Title
55513
    1DOPE     N    1   3.703   3.804   7.327  0.0828  0.0828 -0.6755
    1DOPE   HN1    2   3.659   3.716   7.296  2.3388 -1.7201  0.8953
    1DOPE   HN2    3   3.756   3.852   7.251  0.6196 -1.2776 -1.1929
    1DOPE   HN3    4   3.771   3.772   7.399 -1.3857 -0.9525  0.3075
    1DOPE   C12    5   3.599   3.901   7.377  0.4313  0.1491 -0.5660
    1DOPE  H12A    6   3.632   3.947   7.473 -0.5612  1.9002 -1.0244
    1DOPE  H12B    7   3.506   3.843   7.392  1.2075 -0.4835  2.4163
    1DOPE   C11    8   3.571   4.027   7.286 -0.5290  0.0832  0.9387
    1DOPE  H11A    9   3.501   4.094   7.341  0.6656  2.1379  0.0799
    1DOPE  H11B   10   3.508   3.987   7.203  1.5423 -1.1038 -0.1464
    1DOPE     P   11   3.759   4.069   7.106  0.2328  0.3229  0.2760
    1DOPE   O13   12   3.905   4.106   7.101  0.1513 -0.0756  0.0335
    1DOPE   O14   13   3.673   4.134   7.007 -0.9044  0.5799  0.0986
    1DOPE   O11   14   3.756   3.911   7.094 -0.1529  0.4099  0.2010
    1DOPE   O12   15   3.704   4.090   7.252 -0.5402 -0.2265  0.2523
    1DOPE    C1   16   3.690   3.841   6.984  0.5352  0.2380 -0.4693
    1DOPE    HA   17   3.597   3.888   6.947  0.6154  0.9456  0.1994
    1DOPE    HB   18   3.648   3.744   7.018 -0.0305  0.4876 -0.4511
    1DOPE    C2   19   3.797   3.806   6.871  0.4117  0.1219 -0.3554
    1DOPE    HS   20   3.892   3.784   6.925 -0.1290  2.4361  1.7150
    1DOPE   O21   21   3.804   3.916   6.789 -0.2872 -0.1374 -0.1326
    1DOPE   C21   22   3.932   3.933   6.740 -0.3446  0.2649  0.5080
    1DOPE   O22   23   4.028   3.861   6.771  0.1033 -0.3417 -0.0844
    1DOPE   C22   24   3.927   4.044   6.636  0.0377  0.4326  0.1198
    1DOPE   H2R   25   3.994   4.125   6.673  1.1338 -0.8852  1.1208
    1DOPE   H2S   26   3.822   4.079   6.642 -0.1235 -0.2495  1.6267
    1DOPE    C3   27   3.749   3.680   6.787 -0.0661 -0.3056  0.1192
    1DOPE    HX   28   3.644   3.698   6.758  0.3247  1.8723 -0.0666
    1DOPE    HY   29   3.735   3.592   6.853 -0.2248  0.0642  0.5848
    1DOPE   O31   30   3.830   3.652   6.672  0.2712 -0.4596 -0.0589
    1DOPE   C31   31   3.891   3.537   6.667 -0.7752  0.1708  0.4446
    1DOPE   O32   32   3.890   3.453   6.755 -0.9410  0.0133  0.1613
    1DOPE   C32   33   3.986   3.539   6.543 -0.6549  0.8152  0.6992
    1DOPE   H2X   34   4.076   3.601   6.560 -0.5870  0.9032  0.0672
    1DOPE   H2Y   35   4.019   3.434   6.523 -0.6924  1.1774 -1.5783
    1DOPE   C23   36   3.977   4.007   6.497  0.7311  0.1533  0.1988
    1DOPE   H3R   37   3.957   4.094   6.431  1.6851 -0.5702 -1.0857
    1DOPE   H3S   38   3.911   3.922   6.470  2.7892 -1.0986 -1.1255
    1DOPE   C24   39   4.120   3.973   6.484 -0.6455 -0.1148 -0.3925
    1DOPE   H4R   40   4.139   3.876   6.535  0.5803  0.4449  0.2409
    1DOPE   H4S   41   4.184   4.055   6.523 -1.1468  0.6784 -1.1924
    1DOPE   C25   42   4.160   3.969   6.334 -0.4690  0.2227 -0.1084
    1DOPE   H5R   43   4.270   3.981   6.327 -0.7502  2.3261 -2.1597
    1DOPE   H5S   44   4.113   4.050   6.274 -2.4547  0.4191  1.5921
    1DOPE   C26   45   4.138   3.842   6.259  0.1638  0.3177 -0.7491
    1DOPE   H6R   46   4.031   3.819   6.279  0.1765  0.7021 -0.2366
    1DOPE   H6S   47   4.202   3.762   6.303  0.3227  1.7905  1.8307
    1DOPE   C27   48   4.153   3.859   6.103 -0.3457 -0.7635 -0.7159
    1DOPE   H7R   49   4.260   3.885   6.086 -0.2056 -0.2799  0.7804
    1DOPE   H7S   50   4.102   3.956   6.085  1.4140  1.0896  3.0692
    1DOPE   C28   51   4.104   3.743   6.024 -0.3818  0.7400 -0.0254
    1DOPE   H8R   52   4.105   3.783   5.920  0.3589  2.3494  0.5756
    1DOPE   H8S   53   3.997   3.724   6.044 -0.7758  1.1879 -1.5971
    1DOPE   C29   54   4.170   3.607   6.034  0.0513  0.2852 -0.2999
    1DOPE   H9R   55   4.147   3.544   6.121  0.5387  2.3326  1.3992
    1DOPE  C210   56   4.237   3.559   5.930 -0.7095 -0.4222  0.8598
    1DOPE  H10R   57   4.251   3.450   5.931  0.3944 -0.3453 -0.9705
    1DOPE  C211   58   4.296   3.625   5.809 -0.1379 -0.0422  0.2243
    1DOPE  H11R   59   4.399   3.584   5.796 -0.7960 -1.2058 -1.6199
    1DOPE  H11S   60   4.299   3.734   5.829 -1.6230  0.7115 -2.9967
    1DOPE  C212   61   4.223   3.588   5.679 -1.0261 -0.7485  0.0658
    1DOPE  H12R   62   4.260   3.650   5.595  0.0946 -0.9816  0.3603
    1DOPE  H12S   63   4.115   3.611   5.679 -0.8752  0.1518 -1.7624
    1DOPE  C213   64   4.244   3.445   5.629 -0.0534 -0.2738 -0.0714
    1DOPE  H13R   65   4.259   3.372   5.712  1.4741 -0.7169 -0.7152
    1DOPE  H13S   66   4.341   3.443   5.576  0.5380 -0.7269  1.0053
    1DOPE  C214   67   4.137   3.417   5.524  1.4716  0.1877  0.5782
    1DOPE  H14R   68   4.120   3.496   5.448 -0.8424 -1.5006 -0.7349
    1DOPE  H14S   69   4.040   3.431   5.577  1.8526 -1.3425  1.7667
    1DOPE  C215   70   4.165   3.291   5.439 -0.3306  0.2421  0.8751
    1DOPE  H15R   71   4.124   3.204   5.494  1.2566 -1.0623  0.0823
    1DOPE  H15S   72   4.276   3.281   5.435 -0.3865 -0.0210 -1.5548
    1DOPE  C216   73   4.118   3.296   5.294  0.0318 -0.6698 -0.2363
    1DOPE  H16R   74   4.158   3.380   5.234 -2.3235  0.1114 -0.8269
    1DOPE  H16S   75   4.009   3.321   5.301  0.1022  0.8088 -2.9197
    1DOPE  C217   76   4.131   3.170   5.205 -0.7117  0.7502 -0.5044
    1DOPE  H17R   77   4.060   3.184   5.120  0.5855  1.0623 -1.5751
    1DOPE  H17S   78   4.080   3.091   5.263  0.0317  0.5638 -0.0917
    1DOPE  C218   79   4.272   3.132   5.166 -0.2759  0.2416 -0.4216
    1DOPE  H18R   80   4.313   3.208   5.096  0.8438  1.4078  1.4292
    1DOPE  H18S   81   4.284   3.032   5.119  0.9408  0.1261  0.0932
    1DOPE  H18T   82   4.338   3.120   5.254 -0.4733 -1.6979 -0.4974
    1DOPE   C33   83   3.921   3.589   6.408 -0.4792  0.3129  0.2701
    1DOPE   H3X   84   4.005   3.617   6.341 -0.3916 -0.6700 -0.0472
    1DOPE   H3Y   85   3.857   3.679   6.423  0.2210  0.4613  3.0677
    1DOPE   C34   86   3.849   3.472   6.333 -0.7213  0.1647 -0.1307
    1DOPE   H4X   87   3.928   3.404   6.294  0.2389  0.2106  1.6271
    1DOPE   H4Y   88   3.781   3.411   6.395  2.2053 -1.0398  2.1324
    1DOPE   C35   89   3.772   3.534   6.219  0.2756  0.9488  0.1228
    1DOPE   H5X   90   3.836   3.610   6.169  0.9171 -0.7612 -1.7660
    1DOPE   H5Y   91   3.691   3.594   6.265 -0.6710  0.4065 -0.7880
    1DOPE   C36   92   3.700   3.449   6.113  0.4426  0.0589 -0.3547
    1DOPE   H6X   93   3.648   3.514   6.041  1.8543  2.2514  0.4817
    1DOPE   H6Y   94   3.631   3.373   6.157 -1.4560  1.1735 -1.3094
    1DOPE   C37   95   3.793   3.364   6.030 -0.3085 -0.0824  0.2376
    1DOPE   H7X   96   3.892   3.370   6.080  0.1295  0.1199 -0.6448
    1DOPE   H7Y   97   3.773   3.255   6.024 -1.3279  0.0620  0.6568
    1DOPE   C38   98   3.825   3.409   5.887 -0.3560  0.3072 -0.7535
    1DOPE   H8X   99   3.913   3.351   5.853  1.6626  2.7432  0.0393
    1DOPE   H8Y  100   3.867   3.512   5.892 -1.4719  0.7111  1.2124
    1DOPE   C39  101   3.723   3.386   5.778  0.3538 -0.4016  0.1264
    1DOPE   H9X  102   3.709   3.279   5.756 -1.5460  0.1433 -1.6289
    1DOPE  C310  103   3.643   3.476   5.723  0.6303 -0.3306  0.3442
    1DOPE  H10X  104   3.566   3.439   5.654 -0.2675  0.7448  0.7288
    1DOPE  C311  105   3.644   3.627   5.734  0.1484  0.1707 -0.2652
    1DOPE  H11X  106   3.545   3.666   5.704  0.5193  0.0553 -1.6984
    1DOPE  H11Y  107   3.666   3.648   5.841 -0.1857 -0.5876 -0.0381
    1DOPE  C312  108   3.763   3.684   5.661  0.8514 -0.1742 -0.2096
    1DOPE  H12X  109   3.859   3.665   5.712 -0.3221 -3.1194  1.1636
    1DOPE  H12Y  110   3.746   3.792   5.680 -1.8302 -0.7661  1.3779
    1DOPE  C313  111   3.769   3.654   5.515  0.4796  0.0037 -0.6671
    1DOPE  H13X  112   3.785   3.546   5.493  1.6282  0.1112 -0.4461
    1DOPE  H13Y  113   3.688   3.690   5.449  0.7879 -2.9237 -2.8317
    1DOPE  C314  114   3.898   3.720   5.460 -0.5536  0.4848  0.5756
    1DOPE  H14X  115   3.985   3.692   5.523  0.1627  0.3401 -0.4602
    1DOPE  H14Y  116   3.894   3.829   5.479 -1.8839  0.6485 -0.4180
    1DOPE  C315  117   3.922   3.690   5.309 -0.1810 -0.3207  0.1152
    1DOPE  H15X  118   3.847   3.746   5.248  1.9313  1.2861 -1.1685
    1DOPE  H15Y  119   3.918   3.581   5.290 -2.0893 -0.4272  0.9445
    1DOPE  C316  120   4.057   3.744   5.263  0.1675 -0.1512  0.1435
    1DOPE  H16X  121   4.139   3.686   5.309  0.9630 -1.5936 -2.8674
    1DOPE  H16Y  122   4.062   3.850   5.297  0.4832 -0.1222  0.0092
    1DOPE  C317  123   4.092   3.747   5.117  0.0810 -0.6822  0.4992
    1DOPE  H17X  124   4.007   3.796   5.064  0.5712  0.8868  1.1017
    1DOPE  H17Y  125   4.184   3.808   5.102 -0.8952  0.4272 -1.3228
    1DOPE  C318  126   4.111   3.612   5.046  0.1610  0.6027  0.6156
    1DOPE  H18X  127   4.149   3.615   4.942 -0.0210  1.1668  0.5669
    1DOPE  H18Y  128   4.187   3.550   5.099 -1.2469  1.2793  3.6402
    1DOPE  H18Z  129   4.018   3.552   5.048  1.0461 -0.8102  1.4435
    2DOPE     N  130   3.805   5.203   6.699 -0.0461 -0.1873 -0.1775
    2DOPE   HN1  131   3.905   5.177   6.696  0.0636  0.2980 -0.8662
    2DOPE   HN2  132   3.768   5.156   6.615  0.6257  0.4294 -0.8291
    2DOPE   HN3  133   3.787   5.303   6.675  0.9085 -0.3109 -1.4969
    2DOPE   C12  134   3.755   5.158   6.839 -0.6236  0.4692 -0.0512
    2DOPE  H12A  135   3.655   5.117   6.811 -0.4313  0.8770 -1.4131
    2DOPE  H12B  136   3.742   5.257   6.889  1.6551  1.7652 -1.8257
    2DOPE   C11  137   3.854   5.063   6.906 -0.2364  0.1569 -0.1953
    2DOPE  H11A  138   3.835   5.061   7.016  0.5322 -0.1812 -0.0613
    2DOPE  H11B  139   3.953   5.114   6.899  0.4851 -0.7964  2.1163
    2DOPE     P  140   3.965   4.825   6.903  0.3462  0.1281 -0.0302
    2DOPE   O13  141   3.906   4.687   6.882  0.0191 -0.7964 -0.2572
    2DOPE   O14  142   3.998   4.853   7.042 -0.2577  0.6183  0.8549
    2DOPE   O11  143   4.092   4.835   6.808 -0.4160 -0.1244 -0.0350
    2DOPE   O12  144   3.861   4.932   6.846  0.4143  0.1874 -0.0752
    2DOPE    C1  145   4.082   4.884   6.673 -0.3583 -0.7244  0.1246
    2DOPE    HA  146   4.184   4.908   6.635 -1.1995  0.0504 -1.7735
    2DOPE    HB  147   4.029   4.982   6.668 -0.7243 -0.9193  0.1949
    2DOPE    C2  148   4.031   4.781   6.575  0.5375 -0.0567  0.3658
    2DOPE    HS  149   3.924   4.761   6.597 -0.9143  3.2211 -2.6950
    2DOPE   O21  150   4.118   4.668   6.576  0.4720  0.3146  0.1078
    2DOPE   C21  151   4.056   4.557   6.522 -0.0559  0.4101 -0.3545
    2DOPE   O22  152   3.935   4.549   6.491 -0.1107 -0.4155 -0.2191
    2DOPE   C22  153   4.153   4.441   6.510 -0.1505  0.3311 -0.4908
    2DOPE   H2R  154   4.140   4.383   6.604  1.2640 -1.1743 -1.1695
    2DOPE   H2S  155   4.259   4.475   6.511  0.2251 -0.7223 -1.5450
    2DOPE    C3  156   4.035   4.842   6.429  0.4704  0.5726 -0.3119
    2DOPE    HX  157   3.946   4.907   6.413 -1.2367 -1.4331  0.5553
    2DOPE    HY  158   3.995   4.760   6.366 -0.6721  1.3705 -0.6542
    2DOPE   O31  159   4.163   4.892   6.385 -0.0066 -0.1777  0.0052
    2DOPE   C31  160   4.194   4.860   6.263  0.2555 -0.0714  0.2224
    2DOPE   O32  161   4.117   4.822   6.175  1.3749  0.5148 -0.1064
    2DOPE   C32  162   4.341   4.890   6.240 -0.7516 -0.4296  0.0927
    2DOPE   H2X  163   4.345   4.996   6.207  4.8011 -0.1521  0.7795
    2DOPE   H2Y  164   4.396   4.890   6.336 -3.2445 -0.1315  1.6104
    2DOPE   C23  165   4.133   4.358   6.383  1.0109  0.2930 -0.5763
    2DOPE   H3R  166   4.024   4.340   6.376  0.5206  1.0026  3.3563
    2DOPE   H3S  167   4.175   4.255   6.384  1.0139  0.2951  0.5544
    2DOPE   C24  168   4.179   4.426   6.254  0.0440  0.0719 -0.0260
    2DOPE   H4R  169   4.280   4.467   6.274  0.6551 -1.5610  0.4636
    2DOPE   H4S  170   4.100   4.499   6.226 -0.8942 -0.7597  0.3782
    2DOPE   C25  171   4.188   4.330   6.129  0.3110  0.1501 -0.1275
    2DOPE   H5R  172   4.088   4.292   6.098  0.2028  0.9618 -0.7947
    2DOPE   H5S  173   4.241   4.233   6.144  1.7820  0.8605 -0.4850
    2DOPE   C26  174   4.232   4.397   6.000  0.1328 -0.7122  0.3225
    2DOPE   H6R  175   4.222   4.505   6.026 -0.9255 -1.3261  2.7732
    2DOPE   H6S  176   4.170   4.380   5.910  0.6557  0.5469 -0.2932
    2DOPE   C27  177   4.383   4.373   5.971 -0.1261  0.2239  0.6676
    2DOPE   H7R  178   4.434   4.363   6.069  1.6211 -0.0553 -0.2172
    2DOPE   H7S  179   4.435   4.459   5.922 -0.7557 -1.0847 -2.5389
    2DOPE   C28  180   4.408   4.245   5.889  0.3688  0.2394 -0.8526
    2DOPE   H8R  181   4.361   4.234   5.789 -1.2089 -0.1423 -0.1006
    2DOPE   H8S  182   4.357   4.170   5.953 -1.2716  0.1276 -2.2116
    2DOPE   C29  183   4.556   4.220   5.875 -0.0167 -0.2332 -0.4544
    2DOPE   H9R  184   4.605   4.209   5.973  0.1205 -0.5061 -0.5509
    2DOPE  C210  185   4.622   4.212   5.757  0.1034  0.1594  0.2410
    2DOPE  H10R  186   4.730   4.189   5.759  0.1414  0.3508  1.6577
    2DOPE  C211  187   4.569   4.231   5.619  0.2051 -0.0375  0.2192
    2DOPE  H11R  188   4.651   4.292   5.578  1.0031 -0.2030  1.5020
    2DOPE  H11S  189   4.479   4.296   5.623  1.0512  1.2087 -0.3930
    2DOPE  C212  190   4.551   4.105   5.537  0.0338 -0.6086  0.1075
    2DOPE  H12R  191   4.631   4.028   5.541  0.4952 -0.2414 -1.4134
    2DOPE  H12S  192   4.549   4.135   5.430  1.9855 -0.5443  0.0566
    2DOPE  C213  193   4.421   4.021   5.563 -0.4993 -0.6015 -0.7038
    2DOPE  H13R  194   4.337   4.092   5.576  1.0330  1.3776 -1.1583
    2DOPE  H13S  195   4.446   3.984   5.665  1.8490  3.5662  0.5039
    2DOPE  C214  196   4.402   3.920   5.452 -0.1216  0.1835 -0.0272
    2DOPE  H14R  197   4.404   3.965   5.350  1.3935  0.0438 -0.0791
    2DOPE  H14S  198   4.295   3.889   5.456 -0.0630 -0.1807 -1.0490
    2DOPE  C215  199   4.507   3.803   5.457  0.9868 -0.2302 -0.3250
    2DOPE  H15R  200   4.521   3.760   5.559  0.2328  0.2564 -0.0077
    2DOPE  H15S  201   4.604   3.854   5.439  1.6872 -1.3170  0.3160
    2DOPE  C216  202   4.474   3.705   5.351 -0.0856 -0.3542  0.1819
    2DOPE  H16R  203   4.482   3.759   5.254  2.5483  0.6469  0.8708
    2DOPE  H16S  204   4.370   3.665   5.360 -0.0619 -0.5834 -0.4493
    2DOPE  C217  205   4.572   3.587   5.336  0.6485 -0.4041 -0.0859
    2DOPE  H17R  206   4.586   3.542   5.436 -1.8276 -0.4489  0.3033
    2DOPE  H17S  207   4.661   3.633   5.287 -0.9347 -0.3755 -3.2297
    2DOPE  C218  208   4.512   3.488   5.233  0.5842  0.0252 -0.0223
    2DOPE  H18R  209   4.485   3.534   5.136 -1.7976  3.5601  2.0832
    2DOPE  H18S  210   4.424   3.439   5.279  1.6631 -2.0104  0.0026
    2DOPE  H18T  211   4.586   3.405   5.224 -1.1155 -1.5924  0.2251
    2DOPE   C33  212   4.392   4.791   6.143  0.6554  0.0848  0.0580
    2DOPE   H3X  213   4.333   4.794   6.049 -0.1055  0.5952  0.5365
    2DOPE   H3Y  214   4.385   4.685   6.176  1.6718  0.1468  0.4902
    2DOPE   C34  215   4.534   4.838   6.105  0.2998  0.3750 -0.2848
    2DOPE   H4X  216   4.540   4.942   6.065  0.2850  0.7962  0.7755
    2DOPE   H4Y  217   4.591   4.837   6.199  0.9503  0.9887 -0.6643
    2DOPE   C35  218   4.595   4.741   6.000 -0.0485 -0.0854 -0.4961
    2DOPE   H5X  219   4.617   4.646   6.055  3.2757  1.4025  1.0545
    2DOPE   H5Y  220   4.694   4.788   5.982  0.9109 -2.2947 -1.3502
    2DOPE   C36  221   4.514   4.726   5.867 -0.2539  0.5025 -0.1149
    2DOPE   H6X  222   4.495   4.823   5.816  0.2517  1.2437  1.0849
    2DOPE   H6Y  223   4.425   4.672   5.907  0.6709  1.3678  3.3524
    2DOPE   C37  224   4.588   4.635   5.762  0.8789 -0.1985 -0.0538
    2DOPE   H7X  225   4.646   4.553   5.809  0.5855 -1.1255 -1.2492
    2DOPE   H7Y  226   4.516   4.584   5.694  1.2403  0.5101 -0.9853
    2DOPE   C38  227   4.686   4.725   5.682 -0.2063  0.6674  0.1419
    2DOPE   H8X  228   4.764   4.754   5.756 -0.9800  1.2238  0.7466
    2DOPE   H8Y  229   4.631   4.817   5.652  0.0338  0.5773 -0.6135
    2DOPE   C39  230   4.756   4.660   5.561  0.3361  0.4203 -0.1353
    2DOPE   H9X  231   4.836   4.591   5.592  0.1664 -0.5690 -1.7563
    2DOPE  C310  232   4.730   4.670   5.427 -0.5194  0.4212 -0.3867
    2DOPE  H10X  233   4.792   4.597   5.372  1.6667  1.0041  1.1673
    2DOPE  C311  234   4.633   4.764   5.359  0.3288 -0.5178 -0.6101
    2DOPE  H11X  235   4.608   4.844   5.431  1.6349  0.0094 -0.7273
    2DOPE  H11Y  236   4.679   4.813   5.271  1.2954  0.7611  0.5666
    2DOPE  C312  237   4.510   4.699   5.305  0.2295  0.9500  0.5083
    2DOPE  H12X  238   4.546   4.624   5.232 -1.6521  0.7904 -0.3004
    2DOPE  H12Y  239   4.441   4.771   5.256  1.2623  0.7234 -1.3605
    2DOPE  C313  240   4.423   4.631   5.409 -0.1910 -0.0722 -0.0024
    2DOPE  H13X  241   4.343   4.584   5.347 -0.1069 -0.3694  0.1098
    2DOPE  H13Y  242   4.471   4.554   5.474  0.1343  0.8995  0.9323
    2DOPE  C314  243   4.344   4.729   5.505  0.3158  0.6691  0.1285
    2DOPE  H14X  244   4.274   4.789   5.444 -0.4535 -0.9976 -0.6930
    2DOPE  H14Y  245   4.418   4.803   5.541 -0.0374  0.7246  0.7699
    2DOPE  C315  246   4.257   4.671   5.611  0.9285 -0.3331 -0.5255
    2DOPE  H15X  247   4.247   4.744   5.694  0.4596 -1.2539  0.2462
    2DOPE  H15Y  248   4.323   4.593   5.655  2.1396  1.1760  0.4955
    2DOPE  C316  249   4.115   4.628   5.566 -0.5485  0.3886 -0.1768
    2DOPE  H16X  250   4.136   4.582   5.467 -0.7801 -0.3881  0.1296
    2DOPE  H16Y  251   4.059   4.718   5.533 -0.9370 -0.3442 -1.6077
    2DOPE  C317  252   4.033   4.546   5.666 -0.3870  0.2245 -0.0751
    2DOPE  H17X  253   3.940   4.508   5.620 -1.1820  0.9796  0.8812
    2DOPE  H17Y  254   4.091   4.460   5.705 -2.1934 -0.2422  1.6826
    2DOPE  C318  255   3.993   4.640   5.783  0.3536  0.5322  0.0881
    2DOPE  H18X  256   4.060   4.729   5.789 -0.8009  1.3546  1.5550
    2DOPE  H18Y  257   3.889   4.670   5.757 -0.4541 -1.0551  1.3146
    2DOPE  H18Z  258   3.984   4.576   5.873 -0.9875  0.8979  0.2436
    3DOPE     N  259   3.313   4.342   6.843  0.4252 -0.3110  0.4942
    3DOPE   HN1  260   3.404   4.389   6.828  0.5445  0.0908  2.2677
    3DOPE   HN2  261   3.262   4.392   6.919 -0.4938  0.0995 -0.3632
    3DOPE   HN3  262   3.337   4.246   6.875 -0.2848 -1.3973 -1.9739
    3DOPE   C12  263   3.227   4.329   6.719 -0.2680  0.2178 -0.0535
    3DOPE  H12A  264   3.285   4.299   6.629  1.8480  1.9122  0.6924
    3DOPE  H12B  265   3.181   4.427   6.695 -2.1500 -0.8823 -1.2197
    3DOPE   C11  266   3.115   4.226   6.736 -0.1602 -0.2372 -0.5146
    3DOPE  H11A  267   3.158   4.124   6.738 -0.1010 -0.2551 -1.8560
    3DOPE  H11B  268   3.045   4.231   6.650 -0.9167 -0.0507  0.1008
    3DOPE     P  269   2.905   4.316   6.886 -0.0630  0.0693  0.0405
    3DOPE   O13  270   2.927   4.460   6.908  0.0451 -0.5580  0.5476
    3DOPE   O14  271   2.827   4.241   6.991 -0.1706 -0.7299  0.1964
    3DOPE   O11  272   2.822   4.295   6.754 -0.2831 -0.0634  0.0698
    3DOPE   O12  273   3.047   4.243   6.864  0.0645  0.5810 -0.2453
    3DOPE    C1  274   2.750   4.179   6.738 -0.4775 -0.2789  0.1216
    3DOPE    HA  275   2.671   4.174   6.816  1.3349  2.0714  2.2828
    3DOPE    HB  276   2.821   4.094   6.730  1.8814  1.5419  0.6841
    3DOPE    C2  277   2.662   4.176   6.612 -0.7152 -0.3555  0.2002
    3DOPE    HS  278   2.630   4.072   6.591 -0.4862  0.1487 -3.1035
    3DOPE   O21  279   2.740   4.222   6.497 -0.0779 -0.0311  0.7159
    3DOPE   C21  280   2.825   4.136   6.454 -0.0516  0.9148 -0.0360
    3DOPE   O22  281   2.864   4.036   6.508  0.0914 -0.3156 -0.6594
    3DOPE   C22  282   2.876   4.186   6.316 -0.4516 -0.0831  0.9174
    3DOPE   H2R  283   2.912   4.291   6.321  3.7232 -1.0405 -2.8653
    3DOPE   H2S  284   2.784   4.205   6.257 -1.2944  2.4055  2.8530
    3DOPE    C3  285   2.548   4.272   6.627 -0.0050 -0.0580  0.1195
    3DOPE    HX  286   2.592   4.372   6.645 -1.7417  0.4738  1.8260
    3DOPE    HY  287   2.481   4.247   6.712 -2.0978 -0.7164 -1.6408
    3DOPE   O31  288   2.461   4.294   6.517 -0.3154  0.4743  0.1390
    3DOPE   C31  289   2.419   4.189   6.455  0.0989 -0.3770 -0.6068
    3DOPE   O32  290   2.408   4.074   6.498  0.3485  0.4339 -0.1177
    3DOPE   C32  291   2.366   4.235   6.320 -0.3835  0.6524  0.6260
    3DOPE   H2X  292   2.257   4.220   6.316 -0.2807 -0.7918  2.2570
    3DOPE   H2Y  293   2.392   4.342   6.303  0.3369  0.7396  2.1120
    3DOPE   C23  294   2.981   4.097   6.242 -0.8281  0.0988  0.4458
    3DOPE   H3R  295   2.945   3.992   6.245  1.7737 -0.8721  0.0193
    3DOPE   H3S  296   3.067   4.105   6.313  0.4890  0.8682 -1.1648
    3DOPE   C24  297   3.002   4.129   6.095  0.1973 -0.5784 -0.0695
    3DOPE   H4R  298   3.051   4.229   6.097 -2.3094  0.6925  1.7344
    3DOPE   H4S  299   2.905   4.122   6.042  0.5604 -0.5619 -0.7448
    3DOPE   C25  300   3.101   4.037   6.030  0.3751  0.6755 -0.2188
    3DOPE   H5R  301   3.060   3.934   6.023  2.2307 -0.1210  0.0706
    3DOPE   H5S  302   3.193   4.018   6.089  0.9732 -0.5311 -1.4824
    3DOPE   C26  303   3.137   4.069   5.883  0.2101 -0.9489 -0.4568
    3DOPE   H6R  304   3.199   3.991   5.835 -1.2709 -2.4457 -0.0407
    3DOPE   H6S  305   3.202   4.158   5.890 -0.1439 -0.8329  2.3403
    3DOPE   C27  306   3.016   4.103   5.799  0.4691 -0.1900 -0.1172
    3DOPE   H7R  307   2.975   4.204   5.819  0.4635 -0.4461  1.2509
    3DOPE   H7S  308   2.936   4.031   5.828 -0.4771  0.2638 -1.5157
    3DOPE   C28  309   3.048   4.067   5.658  0.2114  0.1378 -0.6567
    3DOPE   H8R  310   2.953   4.062   5.601 -0.4519  0.0050  0.4243
    3DOPE   H8S  311   3.083   3.962   5.651 -0.9885 -0.3775  0.5994
    3DOPE   C29  312   3.150   4.159   5.592 -0.4801 -0.4331  0.2331
    3DOPE   H9R  313   3.130   4.267   5.607 -0.5764 -0.6760  2.0937
    3DOPE  C210  314   3.268   4.133   5.529  0.4373  0.4482  0.0704
    3DOPE  H10R  315   3.330   4.209   5.480  0.6471  0.9365  1.0624
    3DOPE  C211  316   3.328   3.993   5.523  0.0105 -0.6475 -0.3710
    3DOPE  H11R  317   3.248   3.919   5.542  2.0287 -2.6999  0.6366
    3DOPE  H11S  318   3.407   3.981   5.600  1.5654 -0.2260 -1.8245
    3DOPE  C212  319   3.397   3.959   5.386 -0.0721  0.1685 -0.3026
    3DOPE  H12R  320   3.446   3.861   5.406 -0.5367  0.2164  1.1783
    3DOPE  H12S  321   3.475   4.035   5.363 -0.0261  0.5874  1.1416
    3DOPE  C213  322   3.293   3.958   5.277 -0.3578 -0.7200  0.1766
    3DOPE  H13R  323   3.239   4.055   5.281  0.1071 -0.4926  2.4794
    3DOPE  H13S  324   3.212   3.885   5.296 -0.7999 -0.6954 -1.4325
    3DOPE  C214  325   3.348   3.939   5.136 -0.8133 -0.8796 -0.2305
    3DOPE  H14R  326   3.382   4.041   5.106  2.2529 -1.5031  0.7374
    3DOPE  H14S  327   3.275   3.900   5.061 -1.2569  1.5460 -1.1503
    3DOPE  C215  328   3.459   3.840   5.129 -1.2206  0.2233 -0.1170
    3DOPE  H15R  329   3.414   3.747   5.171  0.2344 -0.4905 -0.0562
    3DOPE  H15S  330   3.549   3.864   5.190  0.9201 -1.0649 -2.5735
    3DOPE  C216  331   3.510   3.828   4.989 -0.7538  0.0156 -0.5069
    3DOPE  H16R  332   3.598   3.895   4.984 -1.1672  0.6739  0.6986
    3DOPE  H16S  333   3.427   3.855   4.920 -0.3952 -1.4262 -1.5571
    3DOPE  C217  334   3.543   3.679   4.973 -0.5758 -0.4343  0.0548
    3DOPE  H17R  335   3.576   3.656   4.869 -0.3026 -0.5219  0.1603
    3DOPE  H17S  336   3.451   3.618   4.984 -1.8007  1.4449  0.6342
    3DOPE  C218  337   3.653   3.635   5.074 -0.0428  0.2027 -0.1849
    3DOPE  H18R  338   3.635   3.654   5.182  0.9830 -0.9135  0.2114
    3DOPE  H18S  339   3.748   3.689   5.050  1.3682 -1.0799  2.1387
    3DOPE  H18T  340   3.683   3.529   5.061 -1.3008 -0.1091 -0.6734
    3DOPE   C33  341   2.431   4.151   6.208  0.1577 -0.1181  0.1649
    3DOPE   H3X  342   2.390   4.048   6.214 -1.2803  0.4486  0.3607
    3DOPE   H3Y  343   2.541   4.142   6.221  0.1912 -0.3939 -0.2983
    3DOPE   C34  344   2.407   4.210   6.067 -0.8437  0.1736 -1.0796
    3DOPE   H4X  345   2.300   4.239   6.069 -0.4784  1.6064 -0.3493
    3DOPE   H4Y  346   2.464   4.304   6.048  0.1396 -0.7655 -3.0150
    3DOPE   C35  347   2.445   4.115   5.960  0.2344  0.3066  0.1715
    3DOPE   H5X  348   2.379   4.026   5.972 -0.9831  1.3469  1.4913
    3DOPE   H5Y  349   2.555   4.096   5.962  0.5887  2.2022  0.6179
    3DOPE   C36  350   2.418   4.169   5.817  0.1557 -0.6591 -0.4602
    3DOPE   H6X  351   2.451   4.274   5.813  0.0894 -0.5684  0.9623
    3DOPE   H6Y  352   2.310   4.165   5.791 -0.4041 -0.8212  1.7217
    3DOPE   C37  353   2.484   4.077   5.710 -0.8385  0.1624 -0.5142
    3DOPE   H7X  354   2.595   4.071   5.709 -0.8382  0.2341 -1.1602
    3DOPE   H7Y  355   2.454   3.972   5.726 -1.1962  0.3238 -0.0882
    3DOPE   C38  356   2.443   4.118   5.568  0.3962  0.1036  0.7869
    3DOPE   H8X  357   2.332   4.125   5.571  0.4504  1.2138  0.7862
    3DOPE   H8Y  358   2.469   4.034   5.501 -1.4135 -0.0218  0.1979
    3DOPE   C39  359   2.517   4.232   5.499 -0.1018  0.3345  0.8784
    3DOPE   H9X  360   2.453   4.321   5.489 -1.5565 -0.8753 -1.4687
    3DOPE  C310  361   2.643   4.233   5.446  0.2652 -0.2685 -0.1108
    3DOPE  H10X  362   2.685   4.324   5.401 -0.0902  1.1550  2.2479
    3DOPE  C311  363   2.727   4.106   5.438 -0.3894 -0.0935 -0.0107
    3DOPE  H11X  364   2.750   4.073   5.542 -3.0527 -1.2445  0.3023
    3DOPE  H11Y  365   2.664   4.022   5.401  0.2333  0.0052 -1.3505
    3DOPE  C312  366   2.858   4.131   5.363 -0.3694  0.2309 -0.3238
    3DOPE  H12X  367   2.916   4.038   5.380 -0.1520  0.4534  0.1726
    3DOPE  H12Y  368   2.910   4.217   5.410 -1.0464  0.1095  0.6813
    3DOPE  C313  369   2.845   4.169   5.220 -0.5346 -0.4328  0.1682
    3DOPE  H13X  370   2.785   4.085   5.177 -1.9218  0.4077  0.4094
    3DOPE  H13Y  371   2.782   4.259   5.206 -4.4003 -2.6957  1.3783
    3DOPE  C314  372   2.984   4.209   5.164 -0.0659  0.0171 -0.4890
    3DOPE  H14X  373   3.040   4.123   5.205 -1.5036 -1.1151 -0.7937
    3DOPE  H14Y  374   3.015   4.310   5.198 -0.2189 -0.7560  2.2227
    3DOPE  C315  375   2.971   4.212   5.011  0.2963  0.5888 -0.3866
    3DOPE  H15X  376   2.929   4.310   4.979 -1.6647 -0.0979 -0.0479
    3DOPE  H15Y  377   2.913   4.121   4.984  1.3546  0.1696 -1.3436
    3DOPE  C316  378   3.108   4.195   4.936  1.1431  0.6202  0.6194
    3DOPE  H16X  379   3.155   4.100   4.968 -2.1062 -1.2445  0.3790
    3DOPE  H16Y  380   3.161   4.291   4.951  1.4663  1.0660 -2.6004
    3DOPE  C317  381   3.081   4.191   4.784  0.3391  0.7060 -0.4625
    3DOPE  H17X  382   3.170   4.144   4.736  0.2507  2.2538 -2.2393
    3DOPE  H17Y  383   3.006   4.117   4.749  0.1550  1.8614 -2.6629
    3DOPE  C318  384   3.063   4.333   4.716 -0.0394  0.8229  0.3378
    3DOPE  H18X  385   2.964   4.370   4.748  0.0201  0.9228  0.4054
    3DOPE  H18Y  386   3.151   4.397   4.739 -0.5407  1.1742  1.3295
    3DOPE  H18Z  387   3.053   4.322   4.606 -2.0892 -1.2122  0.6517
    4DOPE     N  388   4.565   1.917   7.347 -0.1288 -0.5326 -0.3678
    4DOPE   HN1  389   4.543   1.972   7.262 -0.6418 -0.5695 -0.2638
    4DOPE   HN2  390   4.567   1.817   7.319 -2.2070 -0.2583 -1.7032
    4DOPE   HN3  391   4.476   1.929   7.401 -0.1851  1.3658 -0.8166
    4DOPE   C12  392   4.686   1.968   7.420 -0.9124  0.2631  0.3478
    4DOPE  H12A  393   4.718   1.904   7.505 -0.8545  1.1189  0.9781
    4DOPE  H12B  394   4.661   2.062   7.473 -0.8648 -0.5940  1.9517
    4DOPE   C11  395   4.798   1.969   7.317 -0.3373 -0.3419 -1.1350
    4DOPE  H11A  396   4.772   2.005   7.215  0.8097  1.5272 -0.8154
    4DOPE  H11B  397   4.835   1.864   7.307 -1.6473 -0.9744  0.2728
    4DOPE     P  398   4.931   2.196   7.329  0.0281  0.1670 -0.1034
    4DOPE   O13  399   4.996   2.271   7.434 -0.3001  0.6557 -0.3443
    4DOPE   O14  400   4.805   2.258   7.281 -0.2364  0.4899 -0.3498
    4DOPE   O11  401   5.037   2.194   7.202  0.3749 -0.3581 -0.0927
    4DOPE   O12  402   4.906   2.048   7.373  0.1219  0.0286 -0.3578
    4DOPE    C1  403   5.115   2.082   7.158 -0.2802  0.3326 -0.1673
    4DOPE    HA  404   5.102   1.988   7.215 -0.3771  1.0895  1.1106
    4DOPE    HB  405   5.221   2.113   7.167 -0.4738  1.2930 -0.9866
    4DOPE    C2  406   5.083   2.038   7.008  0.2859 -0.3287 -0.0379
    4DOPE    HS  407   5.137   1.946   6.977 -1.1468 -1.5098  0.8876
    4DOPE   O21  408   5.083   2.145   6.911 -0.3337  0.3016 -0.0231
    4DOPE   C21  409   5.208   2.176   6.866 -0.2804 -0.0743  0.3733
    4DOPE   O22  410   5.309   2.116   6.897  0.3945 -0.4283  0.2679
    4DOPE   C22  411   5.195   2.290   6.761 -0.2748  0.3089 -0.2228
    4DOPE   H2R  412   5.252   2.379   6.796  0.3419 -0.2592  0.2376
    4DOPE   H2S  413   5.087   2.314   6.757 -0.6792 -0.9201  2.0951
    4DOPE    C3  414   4.935   1.992   7.009  0.1259  0.3336  0.1731
    4DOPE    HX  415   4.878   2.084   7.034  0.3724  0.6716 -0.4794
    4DOPE    HY  416   4.913   1.912   7.083  0.2025  0.8588  0.7668
    4DOPE   O31  417   4.892   1.945   6.884  0.9077  0.0051 -0.0962
    4DOPE   C31  418   4.756   1.960   6.861  0.2196 -0.1870  0.4251
    4DOPE   O32  419   4.662   1.991   6.932 -0.3725 -0.3691  0.2020
    4DOPE   C32  420   4.730   1.967   6.710 -0.6096 -1.0689 -0.1261
    4DOPE   H2X  421   4.697   2.069   6.679 -0.0074 -1.3771 -1.8801
    4DOPE   H2Y  422   4.827   1.957   6.657 -0.3860  0.4750 -0.0779
    4DOPE   C23  423   5.245   2.259   6.615  0.5509  0.1249  0.4414
    4DOPE   H3R  424   5.328   2.185   6.620 -0.5673 -1.0931  1.8295
    4DOPE   H3S  425   5.276   2.349   6.557  0.2238 -0.6676 -1.0301
    4DOPE   C24  426   5.131   2.195   6.538 -0.3344  0.1401 -0.3625
    4DOPE   H4R  427   5.044   2.265   6.537 -1.7421 -1.4657 -3.7574
    4DOPE   H4S  428   5.096   2.101   6.584 -2.4007  0.5185 -1.0806
    4DOPE   C25  429   5.156   2.187   6.393 -0.1139 -0.1130 -0.0585
    4DOPE   H5R  430   5.252   2.130   6.392  0.1597  0.3388  0.0872
    4DOPE   H5S  431   5.184   2.286   6.350  1.8601  0.3983  2.1880
    4DOPE   C26  432   5.049   2.127   6.308  0.4498  0.3484 -0.2880
    4DOPE   H6R  433   5.016   2.028   6.345  2.5776 -0.1916  0.2580
    4DOPE   H6S  434   5.075   2.114   6.200  1.0092 -3.2172  0.1669
    4DOPE   C27  435   4.913   2.209   6.301  0.6834 -0.8738  0.2195
    4DOPE   H7R  436   4.944   2.314   6.282 -2.1366  0.0771  0.4296
    4DOPE   H7S  437   4.879   2.213   6.406 -0.6596 -0.1702 -0.2136
    4DOPE   C28  438   4.806   2.163   6.205 -0.0198 -0.1878 -0.5088
    4DOPE   H8R  439   4.784   2.057   6.228 -0.8918  0.1039  0.0592
    4DOPE   H8S  440   4.852   2.171   6.104  1.4178 -0.3828  0.0990
    4DOPE   C29  441   4.682   2.244   6.226  0.6309  0.5487  0.3013
    4DOPE   H9R  442   4.686   2.317   6.308  1.6915 -0.3017  1.0337
    4DOPE  C210  443   4.589   2.278   6.133 -0.2010 -0.1870  0.7188
    4DOPE  H10R  444   4.518   2.360   6.154  2.5496  3.1502 -1.7218
    4DOPE  C211  445   4.575   2.219   5.999 -0.5882 -0.2358 -0.1789
    4DOPE  H11R  446   4.614   2.116   5.984 -0.4744  0.1446 -2.9288
    4DOPE  H11S  447   4.634   2.284   5.931 -0.7311  0.9366  0.7868
    4DOPE  C212  448   4.429   2.230   5.943  0.6583 -0.0148  0.4386
    4DOPE  H12R  449   4.436   2.193   5.838  1.2906  3.1929 -0.7709
    4DOPE  H12S  450   4.396   2.336   5.929  0.7904 -0.2058 -1.7264
    4DOPE  C213  451   4.331   2.160   6.041 -0.0188 -1.1050  0.3311
    4DOPE  H13R  452   4.229   2.180   6.001  1.6584  2.7190 -2.7115
    4DOPE  H13S  453   4.334   2.225   6.132 -1.0199  2.3587 -1.9295
    4DOPE  C214  454   4.368   2.015   6.062 -0.1308 -0.1085  0.2001
    4DOPE  H14R  455   4.472   2.018   6.100  0.8302  0.9263 -2.2928
    4DOPE  H14S  456   4.362   1.965   5.963 -4.0232 -0.3585  0.4252
    4DOPE  C215  457   4.272   1.944   6.159  0.2793  0.1080 -0.2964
    4DOPE  H15R  458   4.261   2.026   6.232 -0.1591 -0.5505  0.4032
    4DOPE  H15S  459   4.325   1.856   6.201  1.8530  0.2057 -1.9330
    4DOPE  C216  460   4.140   1.895   6.105 -0.4526  1.0623 -0.2707
    4DOPE  H16R  461   4.149   1.813   6.030 -1.0349  1.8887 -1.2613
    4DOPE  H16S  462   4.079   1.975   6.058 -2.0043  0.2958  0.3252
    4DOPE  C217  463   4.054   1.852   6.225  0.0215  0.3042 -0.3897
    4DOPE  H17R  464   3.953   1.817   6.197 -0.1190 -1.5280  2.0852
    4DOPE  H17S  465   4.046   1.952   6.274 -0.6621  0.7100 -1.2976
    4DOPE  C218  466   4.108   1.740   6.314 -0.3887  0.2272  0.0159
    4DOPE  H18R  467   4.204   1.769   6.360  1.0395 -0.8090 -2.1465
    4DOPE  H18S  468   4.121   1.645   6.258  0.7792 -1.0345  2.2617
    4DOPE  H18T  469   4.034   1.711   6.393 -0.4065 -0.3011 -0.1906
    4DOPE   C33  470   4.636   1.860   6.660  0.4955 -0.2538  0.2295
    4DOPE   H3X  471   4.542   1.871   6.718 -1.8080  0.3978 -3.3385
    4DOPE   H3Y  472   4.682   1.759   6.669  1.4818  0.1125 -0.5695
    4DOPE   C34  473   4.599   1.884   6.510  0.2748  1.2371  0.2506
    4DOPE   H4X  474   4.684   1.876   6.440 -0.9313  0.9541 -1.2347
    4DOPE   H4Y  475   4.539   1.795   6.483  1.4569  0.7849 -0.9977
    4DOPE   C35  476   4.524   2.011   6.473  0.1270 -0.0491  0.0584
    4DOPE   H5X  477   4.490   2.005   6.368 -1.4643  2.1356  0.3530
    4DOPE   H5Y  478   4.599   2.092   6.487 -0.6224  0.9863 -1.6181
    4DOPE   C36  479   4.400   2.042   6.565 -0.1506 -0.8533  0.0726
    4DOPE   H6X  480   4.432   2.029   6.670  0.8844 -0.0974 -0.1343
    4DOPE   H6Y  481   4.310   1.978   6.548 -0.1064 -0.8908 -0.0219
    4DOPE   C37  482   4.344   2.181   6.550  1.1134  0.0803 -0.1170
    4DOPE   H7X  483   4.294   2.189   6.451  1.9168  1.9021 -0.4206
    4DOPE   H7Y  484   4.262   2.190   6.625  2.6144 -2.3957  1.9850
    4DOPE   C38  485   4.440   2.299   6.566  0.0289  0.4664  0.0597
    4DOPE   H8X  486   4.400   2.389   6.515  2.1595  1.0936 -0.6108
    4DOPE   H8Y  487   4.525   2.268   6.502 -0.6491 -0.4113 -0.4315
    4DOPE   C39  488   4.494   2.346   6.701  0.5100 -0.5260 -0.2387
    4DOPE   H9X  489   4.427   2.348   6.788  0.6244 -0.2246 -0.1552
    4DOPE  C310  490   4.620   2.372   6.731  0.0138  0.0302  0.1799
    4DOPE  H10X  491   4.634   2.408   6.834 -1.0458 -0.6571  0.5811
    4DOPE  C311  492   4.746   2.360   6.646 -0.1304  0.2304  0.0262
    4DOPE  H11X  493   4.809   2.281   6.691 -1.2367 -0.8473 -0.2650
    4DOPE  H11Y  494   4.738   2.319   6.543  3.0873 -4.3274  1.2905
    4DOPE  C312  495   4.827   2.486   6.641 -0.2468 -0.2814  0.2456
    4DOPE  H12X  496   4.763   2.567   6.599 -0.7864  0.0199  1.5933
    4DOPE  H12Y  497   4.917   2.467   6.578  0.6796  1.2037  1.0559
    4DOPE  C313  498   4.872   2.538   6.779  0.2659  0.6732  0.3458
    4DOPE  H13X  499   4.792   2.582   6.842  0.6564  1.3752  0.3589
    4DOPE  H13Y  500   4.902   2.447   6.836  0.4303 -0.2937 -1.2041
    4DOPE  C314  501   4.994   2.637   6.784 -0.0561 -0.4599  0.5552
    4DOPE  H14X  502   5.079   2.580   6.740  0.0411  1.1669 -1.4845
    4DOPE  H14Y  503   5.011   2.656   6.892  0.2284 -0.5590  0.5289
    4DOPE  C315  504   4.979   2.765   6.709  0.4503 -0.3422 -0.5205
    4DOPE  H15X  505   4.904   2.822   6.767  0.8365 -1.5106  1.1943
    4DOPE  H15Y  506   4.933   2.742   6.610  4.6078 -0.0466 -2.7464
    4DOPE  C316  507   5.093   2.861   6.696 -0.1354 -0.7804 -0.0553
    4DOPE  H16X  508   5.173   2.814   6.635  1.0557 -0.1030  0.9201
    4DOPE  H16Y  509   5.139   2.883   6.795  1.4887 -0.8787 -0.7472
    4DOPE  C317  510   5.044   3.001   6.646 -0.9573 -0.4284 -0.1530
    4DOPE  H17X  511   5.132   3.061   6.613  1.9366 -3.3322  1.6393
    4DOPE  H17Y  512   4.969   2.986   6.565  0.2861 -1.6364 -1.1240
    4DOPE  C318  513   4.978   3.083   6.763 -0.3767  0.4541  0.6261
    4DOPE  H18X  514   5.059   3.109   6.835  1.9530 -1.6504 -1.0598
    4DOPE  H18Y  515   4.942   3.175   6.711 -1.0172  0.3011  0.7986
    4DOPE  H18Z  516   4.893   3.030   6.810 -0.4841 -1.2437 -1.3168
    5DOPE     N  517   0.946   2.862   6.892  0.0449  0.4555  0.3631
    5DOPE   HN1  518   0.953   2.792   6.968 -2.6500 -0.4896 -0.1083
    5DOPE   HN2  519   0.857   2.844   6.840  0.1539 -1.4052  0.7315
    5DOPE   HN3  520   1.018   2.836   6.822 -1.8825 -0.2941 -1.4809
    5DOPE   C12  521   0.961   2.997   6.947 -0.7532  0.1519  0.5216
    5DOPE  H12A  522   1.049   2.990   7.014  0.0996 -1.1441 -0.6842
    5DOPE  H12B  523   0.872   3.020   7.011 -0.2209  1.7599  0.7331
    5DOPE   C11  524   0.976   3.096   6.832 -0.2642 -0.0166  0.2437
    5DOPE  H11A  525   0.887   3.084   6.767  0.5607 -1.3861 -0.6928
    5DOPE  H11B  526   1.065   3.084   6.767  0.5889 -0.0312  1.3777
    5DOPE     P  527   1.095   3.297   6.963 -0.1058  0.0194  0.2520
    5DOPE   O13  528   1.100   3.235   7.095 -0.4051  1.1884 -0.1364
    5DOPE   O14  529   1.061   3.440   6.959  0.2566  0.0480 -0.4722
    5DOPE   O11  530   1.228   3.259   6.896 -0.6167 -0.1791  0.2482
    5DOPE   O12  531   0.988   3.228   6.872 -0.4669 -0.5639 -0.1813
    5DOPE    C1  532   1.309   3.363   6.844  0.5594 -0.2021  0.0033
    5DOPE    HA  533   1.409   3.321   6.820 -0.3208 -3.2349  1.2521
    5DOPE    HB  534   1.314   3.451   6.912  0.9571 -1.3543  1.5262
    5DOPE    C2  535   1.241   3.407   6.706 -0.4016  0.7511 -0.0998
    5DOPE    HS  536   1.161   3.478   6.739  0.1432  0.7091  1.3822
    5DOPE   O21  537   1.195   3.288   6.628  0.5387 -0.6236 -0.1429
    5DOPE   C21  538   1.107   3.318   6.536 -0.0415  1.4910 -0.0929
    5DOPE   O22  539   1.057   3.428   6.517 -0.5128  0.2475  0.3191
    5DOPE   C22  540   1.074   3.190   6.461  0.7838  0.2619 -0.8969
    5DOPE   H2R  541   1.007   3.134   6.529  0.4254  1.2456 -0.4183
    5DOPE   H2S  542   1.159   3.118   6.457  1.1989  0.5992  1.0638
    5DOPE    C3  543   1.335   3.494   6.627  0.2629 -0.3573 -0.2065
    5DOPE    HX  544   1.369   3.567   6.703 -2.4809  0.1800  0.6423
    5DOPE    HY  545   1.291   3.553   6.543 -0.1893 -1.1862 -0.5702
    5DOPE   O31  546   1.458   3.427   6.587  0.4622 -0.1986  0.2320
    5DOPE   C31  547   1.479   3.394   6.461 -0.5049  0.9567 -0.4890
    5DOPE   O32  548   1.409   3.394   6.367  0.2647 -0.3017 -0.4187
    5DOPE   C32  549   1.630   3.367   6.453  0.3292 -0.2787  0.0772
    5DOPE   H2X  550   1.675   3.419   6.540  0.1587 -2.7435  1.7320
    5DOPE   H2Y  551   1.633   3.261   6.485  2.4610 -0.1337  0.4904
    5DOPE   C23  552   1.014   3.224   6.322  0.0242  0.3700 -0.4405
    5DOPE   H3R  553   0.918   3.278   6.340 -0.0387  0.3110 -0.5993
    5DOPE   H3S  554   0.989   3.124   6.279  1.4044  0.7369 -2.1944
    5DOPE   C24  555   1.107   3.299   6.226  0.4037 -0.1956  0.8486
    5DOPE   H4R  556   1.210   3.258   6.232  1.2304  1.6304 -0.0097
    5DOPE   H4S  557   1.119   3.409   6.238  0.1676  0.0925 -1.0878
    5DOPE   C25  558   1.050   3.296   6.081  0.5460 -0.1251 -0.1363
    5DOPE   H5R  559   0.974   3.376   6.093  0.5045 -0.4866  2.5428
    5DOPE   H5S  560   0.992   3.203   6.060  1.1057 -0.4540 -0.2405
    5DOPE   C26  561   1.157   3.326   5.974  0.2932 -0.0520  0.2583
    5DOPE   H6R  562   1.224   3.239   5.957 -1.2112 -0.7667 -2.7731
    5DOPE   H6S  563   1.230   3.402   6.010  3.0693 -3.4763  2.5151
    5DOPE   C27  564   1.097   3.377   5.839 -0.6377  0.4338  0.3736
    5DOPE   H7R  565   1.022   3.458   5.854 -0.6137  0.2475  1.6474
    5DOPE   H7S  566   1.040   3.291   5.797  1.3891  0.8537 -3.6876
    5DOPE   C28  567   1.208   3.424   5.740  0.0548 -0.5336  0.1807
    5DOPE   H8R  568   1.301   3.367   5.760 -0.7963 -1.0280  3.2349
    5DOPE   H8S  569   1.224   3.534   5.746 -2.8323  0.0173 -0.6901
    5DOPE   C29  570   1.144   3.403   5.605  0.0786 -0.4002  0.0603
    5DOPE   H9R  571   1.035   3.418   5.599  0.0777 -1.0578 -2.7098
    5DOPE  C210  572   1.207   3.361   5.492 -0.3966  0.3484 -0.2146
    5DOPE  H10R  573   1.148   3.356   5.399 -2.0389  0.9464  0.7688
    5DOPE  C211  574   1.356   3.340   5.482 -0.4910 -0.4963  0.0501
    5DOPE  H11R  575   1.382   3.279   5.393  1.4865 -1.9288  1.5099
    5DOPE  H11S  576   1.408   3.283   5.562  1.0308 -0.8160 -1.1207
    5DOPE  C212  577   1.430   3.477   5.470 -0.1032 -0.3578  0.7606
    5DOPE  H12R  578   1.429   3.534   5.565 -1.7717  3.1516 -1.1896
    5DOPE  H12S  579   1.387   3.546   5.394 -0.8386 -0.5106  1.0275
    5DOPE  C213  580   1.576   3.469   5.421  0.2097  0.0784  0.1489
    5DOPE  H13R  581   1.573   3.395   5.338  0.0485 -0.0914  0.3066
    5DOPE  H13S  582   1.641   3.429   5.503  1.4859 -0.0850 -0.9057
    5DOPE  C214  583   1.638   3.605   5.380  0.1723 -0.4235  1.2499
    5DOPE  H14R  584   1.729   3.584   5.320 -0.5199 -1.0702  0.4179
    5DOPE  H14S  585   1.664   3.666   5.469 -0.5134 -1.9225  2.5374
    5DOPE  C215  586   1.550   3.695   5.289  0.3952  0.2566 -0.3431
    5DOPE  H15R  587   1.492   3.760   5.357 -1.6470  0.1387 -1.8953
    5DOPE  H15S  588   1.471   3.639   5.235 -0.3487  0.1951  0.7825
    5DOPE  C216  589   1.640   3.768   5.175 -0.2710 -0.5519 -0.2344
    5DOPE  H16R  590   1.564   3.813   5.107 -0.6075 -0.1546  0.3926
    5DOPE  H16S  591   1.698   3.689   5.124  1.1582  0.3705 -0.1103
    5DOPE  C217  592   1.726   3.887   5.233 -0.4227 -0.5236  0.2041
    5DOPE  H17R  593   1.788   3.851   5.319 -0.9847 -1.1231  0.3635
    5DOPE  H17S  594   1.654   3.959   5.276  0.3998  0.4692 -0.0508
    5DOPE  C218  595   1.813   3.957   5.130 -1.0290 -0.0310 -0.7491
    5DOPE  H18R  596   1.886   4.029   5.173  0.0591 -2.0130  0.9275
    5DOPE  H18S  597   1.748   4.017   5.063  1.1180  1.4788 -1.6375
    5DOPE  H18T  598   1.873   3.877   5.082 -0.0762  1.2603 -1.8181
    5DOPE   C33  599   1.701   3.395   6.319  0.2965  0.2103  0.1641
    5DOPE   H3X  600   1.654   3.483   6.271 -0.0543  0.3602  0.7750
    5DOPE   H3Y  601   1.678   3.310   6.250 -2.0961  1.0996 -0.2271
    5DOPE   C34  602   1.852   3.417   6.326  0.7737  0.7793  0.0528
    5DOPE   H4X  603   1.876   3.479   6.415 -2.0038  0.3098  1.2279
    5DOPE   H4Y  604   1.883   3.316   6.359  0.4294  0.5406 -0.3430
    5DOPE   C35  605   1.916   3.456   6.189 -0.3269  0.4554  0.6628
    5DOPE   H5X  606   1.859   3.528   6.126  0.6033 -1.0595 -2.0676
    5DOPE   H5Y  607   1.935   3.366   6.127 -0.9186  0.5566  0.3259
    5DOPE   C36  608   2.058   3.510   6.221  0.0131  0.0866  0.1024
    5DOPE   H6X  609   2.112   3.529   6.126 -0.5626  1.3783  0.0133
    5DOPE   H6Y  610   2.111   3.436   6.284  0.3920  1.5282  1.5467
    5DOPE   C37  611   2.047   3.635   6.302  0.7330 -0.3616 -0.3421
    5DOPE   H7X  612   1.948   3.678   6.274  0.7148 -0.8064 -0.9982
    5DOPE   H7Y  613   2.049   3.618   6.412 -2.1280 -3.0057 -0.5622
    5DOPE   C38  614   2.154   3.738   6.260 -0.5934 -0.0980 -0.3220
    5DOPE   H8X  615   2.257   3.701   6.279 -0.1069  0.6392 -1.3827
    5DOPE   H8Y  616   2.142   3.824   6.328  1.5540 -0.6185  0.7716
    5DOPE   C39  617   2.151   3.793   6.123  0.3388  0.1844 -0.2019
    5DOPE   H9X  618   2.058   3.846   6.096  0.7482  0.7892 -0.4481
    5DOPE  C310  619   2.235   3.763   6.030  0.2577 -0.0682 -0.2905
    5DOPE  H10X  620   2.221   3.804   5.929  0.9584 -3.0246 -1.6995
    5DOPE  C311  621   2.364   3.679   6.033  0.2894  0.0681 -0.3504
    5DOPE  H11X  622   2.451   3.748   6.040 -0.1559  0.4580  1.9366
    5DOPE  H11Y  623   2.368   3.617   6.125  0.1945  1.4199  0.5737
    5DOPE  C312  624   2.381   3.581   5.915 -0.2574 -0.4752 -0.0787
    5DOPE  H12X  625   2.286   3.525   5.902  0.1840 -0.6441 -3.7706
    5DOPE  H12Y  626   2.465   3.508   5.925 -0.6190 -0.9601 -0.5067
    5DOPE  C313  627   2.412   3.655   5.782 -0.5572  0.0125  0.3392
    5DOPE  H13X  628   2.364   3.754   5.768  0.0254  0.0670 -1.6024
    5DOPE  H13Y  629   2.521   3.671   5.773 -0.9046  1.8035 -1.2558
    5DOPE  C314  630   2.361   3.567   5.664  0.1004  0.6171 -1.2646
    5DOPE  H14X  631   2.251   3.555   5.674  0.3687 -1.5149 -0.3802
    5DOPE  H14Y  632   2.418   3.472   5.669  2.9504  2.2808  1.3787
    5DOPE  C315  633   2.404   3.626   5.530 -0.2266  0.3616  1.0578
    5DOPE  H15X  634   2.389   3.544   5.457 -0.0465  0.9899  0.3043
    5DOPE  H15Y  635   2.514   3.644   5.525 -0.0211 -0.9981 -3.3731
    5DOPE  C316  636   2.342   3.761   5.504 -0.3028  0.0402  0.7092
    5DOPE  H16X  637   2.375   3.837   5.577  3.3421 -1.6059  1.0092
    5DOPE  H16Y  638   2.232   3.764   5.497 -0.1885  0.2883 -1.8432
    5DOPE  C317  639   2.385   3.808   5.358  0.5234 -0.4721 -0.3413
    5DOPE  H17X  640   2.340   3.909   5.350 -0.4710 -0.8666  0.0328
    5DOPE  H17Y  641   2.494   3.802   5.339  0.2195 -0.7534 -2.0975
    5DOPE  C318  642   2.318   3.730   5.244 -0.6237 -0.3674 -0.2347
    5DOPE  H18X  643   2.211   3.706   5.264 -0.6284  0.1507  0.4256
    5DOPE  H18Y  644   2.329   3.789   5.151 -0.7433 -0.1166 -0.0929
    5DOPE  H18Z  645   2.373   3.634   5.238  0.9308  0.5063 -0.4539
    6DOPE     N  646   2.903   3.878   7.193 -0.0241 -0.6518 -0.2790
    6DOPE   HN1  647   2.840   3.877   7.276  1.7489  2.0063  1.2513
    6DOPE   HN2  648   2.995   3.867   7.240 -0.0827  0.5321  0.1485
    6DOPE   HN3  649   2.924   3.976   7.165  0.0308 -0.8483 -0.9339
    6DOPE   C12  650   2.874   3.797   7.072  0.7037  0.4064  0.0850
    6DOPE  H12A  651   2.859   3.691   7.101  3.0279 -0.0314 -0.0554
    6DOPE  H12B  652   2.962   3.802   7.004  0.6610 -0.1647 -0.0134
    6DOPE   C11  653   2.746   3.846   7.005  0.0154  0.2199  0.1875
    6DOPE  H11A  654   2.722   3.786   6.915 -1.8668  1.4865 -0.2071
    6DOPE  H11B  655   2.760   3.947   6.961 -0.3159  0.9033  1.5676
    6DOPE     P  656   2.531   3.739   7.105  0.1653  0.0447 -0.0182
    6DOPE   O13  657   2.428   3.777   7.205 -0.3912  0.3773 -0.4688
    6DOPE   O14  658   2.603   3.612   7.125 -0.1048  0.0658 -0.2457
    6DOPE   O11  659   2.459   3.730   6.967 -0.5398  0.7368  0.2714
    6DOPE   O12  660   2.635   3.853   7.093  0.1092  0.7619  0.2648
    6DOPE    C1  661   2.436   3.606   6.899  0.2300  0.3173  0.4033
    6DOPE    HA  662   2.401   3.529   6.971  0.4421 -0.4630 -0.3152
    6DOPE    HB  663   2.526   3.567   6.848  0.3021 -1.0080  1.4846
    6DOPE    C2  664   2.313   3.617   6.804 -0.0671  0.6707  0.5728
    6DOPE    HS  665   2.275   3.516   6.775  1.0092  0.7805 -1.3646
    6DOPE   O21  666   2.364   3.685   6.691 -0.2381 -0.1464  0.0970
    6DOPE   C21  667   2.444   3.608   6.608  0.5056 -0.3102  0.5276
    6DOPE   O22  668   2.472   3.494   6.628  0.4911 -0.1736  0.2809
    6DOPE   C22  669   2.484   3.689   6.487  0.2861  0.1768  0.0682
    6DOPE   H2R  670   2.402   3.758   6.456  0.1125 -0.1877 -0.2972
    6DOPE   H2S  671   2.493   3.614   6.406  0.1028  1.4811 -1.2022
    6DOPE    C3  672   2.196   3.703   6.873 -0.1071  0.4797 -0.4551
    6DOPE    HX  673   2.246   3.786   6.927  0.2295  0.5978 -0.9399
    6DOPE    HY  674   2.144   3.655   6.959  1.9050  0.7564  0.9893
    6DOPE   O31  675   2.098   3.754   6.777  0.3209  0.4103  0.1231
    6DOPE   C31  676   2.003   3.668   6.745 -0.1284  0.2918 -0.2556
    6DOPE   O32  677   1.992   3.547   6.783 -0.4869 -0.3018  0.0481
    6DOPE   C32  678   1.893   3.729   6.665  0.4621  0.1074  0.3768
    6DOPE   H2X  679   1.900   3.840   6.677  0.9251  0.1189  0.0435
    6DOPE   H2Y  680   1.929   3.699   6.564  3.2891  0.2999  1.2316
    6DOPE   C23  681   2.620   3.766   6.516 -0.6868  1.1267 -0.0659
    6DOPE   H3R  682   2.621   3.822   6.611  0.4606  0.9835  0.0259
    6DOPE   H3S  683   2.651   3.841   6.440  2.6630  0.3742  0.3767
    6DOPE   C24  684   2.734   3.667   6.517 -0.2005  0.5449 -0.1637
    6DOPE   H4R  685   2.718   3.582   6.587 -1.8314 -1.7418 -3.0943
    6DOPE   H4S  686   2.816   3.735   6.550  1.0513 -0.4012 -1.2611
    6DOPE   C25  687   2.772   3.615   6.380  0.6329  0.6202 -0.2150
    6DOPE   H5R  688   2.688   3.570   6.324 -0.4928  1.3122  0.8666
    6DOPE   H5S  689   2.827   3.519   6.384 -0.1708  0.1004 -1.2986
    6DOPE   C26  690   2.850   3.719   6.305 -0.4658  0.1638  0.1357
    6DOPE   H6R  691   2.945   3.719   6.363 -1.4845  1.9191  1.9519
    6DOPE   H6S  692   2.802   3.820   6.305 -1.3111 -0.2325 -0.3942
    6DOPE   C27  693   2.888   3.680   6.163  0.4368  0.5313  0.4047
    6DOPE   H7R  694   2.939   3.581   6.164 -2.0155 -0.8704 -1.7656
    6DOPE   H7S  695   2.966   3.751   6.128 -2.3692  2.6791 -1.9394
    6DOPE   C28  696   2.775   3.672   6.054 -0.4208  0.5587 -0.5146
    6DOPE   H8R  697   2.680   3.630   6.093 -1.1256  1.0627 -1.6229
    6DOPE   H8S  698   2.797   3.609   5.966 -2.1401  2.2571 -2.2689
    6DOPE   C29  699   2.750   3.806   6.001 -0.8324 -0.7983  0.4042
    6DOPE   H9R  700   2.721   3.883   6.074 -0.5716  0.5497 -0.8713
    6DOPE  C210  701   2.757   3.840   5.868 -0.5444 -0.4272  0.6513
    6DOPE  H10R  702   2.717   3.937   5.835  1.1394  0.2882  0.6416
    6DOPE  C211  703   2.791   3.739   5.760  0.9795  0.2383  0.8804
    6DOPE  H11R  704   2.731   3.646   5.754 -2.0424  2.1009  0.0902
    6DOPE  H11S  705   2.899   3.715   5.747  0.8730 -0.6694  1.6285
    6DOPE  C212  706   2.763   3.806   5.625  0.0716  0.2100 -0.2759
    6DOPE  H12R  707   2.823   3.899   5.616 -3.4461  2.5172 -2.2884
    6DOPE  H12S  708   2.656   3.836   5.619 -0.0030  1.4151  3.7204
    6DOPE  C213  709   2.796   3.709   5.501  0.3362  0.4033 -0.9618
    6DOPE  H13R  710   2.710   3.641   5.486 -0.5909  1.1667  0.6629
    6DOPE  H13S  711   2.880   3.644   5.534 -0.1619  0.4754  0.5142
    6DOPE  C214  712   2.837   3.771   5.363  0.6165  0.2818  0.1895
    6DOPE  H14R  713   2.934   3.825   5.363  0.8843 -0.1832 -0.4359
    6DOPE  H14S  714   2.770   3.859   5.349  0.4082 -0.1718 -2.0343
    6DOPE  C215  715   2.816   3.683   5.243 -0.1970  0.6008  1.0589
    6DOPE  H15R  716   2.715   3.637   5.245  0.5878 -1.3805 -0.8290
    6DOPE  H15S  717   2.883   3.595   5.242 -1.3111 -0.4116 -3.0035
    6DOPE  C216  718   2.840   3.755   5.104  0.0650  0.7893 -0.3634
    6DOPE  H16R  719   2.776   3.843   5.080 -1.0134 -0.1590 -1.0976
    6DOPE  H16S  720   2.826   3.674   5.029  2.6513  0.5541 -0.6881
    6DOPE  C217  721   2.983   3.801   5.083  0.4981 -0.1450  0.2211
    6DOPE  H17R  722   3.047   3.712   5.100 -0.8070 -0.9283  1.2279
    6DOPE  H17S  723   3.012   3.880   5.156 -0.2411  0.8180 -0.5023
    6DOPE  C218  724   3.013   3.839   4.940 -0.0068  0.5619 -0.2869
    6DOPE  H18R  725   2.984   3.766   4.861 -1.6829  1.4142 -0.5107
    6DOPE  H18S  726   3.123   3.840   4.928  0.2918 -1.2835  1.6213
    6DOPE  H18T  727   2.952   3.926   4.905 -1.6659  0.2922  1.7141
    6DOPE   C33  728   1.744   3.679   6.679 -0.4712  0.8647 -0.2966
    6DOPE   H3X  729   1.716   3.686   6.787  2.3633 -1.8885  0.7598
    6DOPE   H3Y  730   1.741   3.572   6.651 -1.5899  0.6560  0.5448
    6DOPE   C34  731   1.648   3.752   6.592 -0.1120 -0.6569 -0.0149
    6DOPE   H4X  732   1.545   3.713   6.607 -0.2494 -0.4885 -0.5183
    6DOPE   H4Y  733   1.652   3.854   6.635  1.7581 -0.6706 -0.0923
    6DOPE   C35  734   1.693   3.751   6.448  0.0389  0.3824 -0.3704
    6DOPE   H5X  735   1.678   3.645   6.416  0.4729  0.9152 -2.4876
    6DOPE   H5Y  736   1.798   3.782   6.433  0.7929 -2.6141 -2.0803
    6DOPE   C36  737   1.604   3.824   6.350  0.0938 -0.9436 -0.9778
    6DOPE   H6X  738   1.597   3.930   6.383 -0.0414 -0.6549 -1.9236
    6DOPE   H6Y  739   1.502   3.779   6.352  1.7454 -5.1528 -0.9326
    6DOPE   C37  740   1.654   3.820   6.216  0.1200 -0.9732  0.1177
    6DOPE   H7X  741   1.760   3.854   6.220  0.1441 -0.8202 -1.2906
    6DOPE   H7Y  742   1.670   3.719   6.173 -0.9138 -2.1826  2.4140
    6DOPE   C38  743   1.570   3.897   6.113  0.2161  0.4269  0.3920
    6DOPE   H8X  744   1.634   3.927   6.027 -0.3128 -0.4844 -0.3454
    6DOPE   H8Y  745   1.534   3.994   6.153  0.7534  0.7885  0.0186
    6DOPE   C39  746   1.453   3.806   6.076 -0.7526 -0.4211  0.4403
    6DOPE   H9X  747   1.392   3.785   6.166 -0.7382  0.5292  0.6811
    6DOPE  C310  748   1.420   3.759   5.955 -0.0055 -0.2638  0.1422
    6DOPE  H10X  749   1.330   3.696   5.954 -0.1215 -0.3210  3.7567
    6DOPE  C311  750   1.494   3.784   5.828  0.1766  0.6235 -0.4265
    6DOPE  H11X  751   1.600   3.774   5.860 -0.3532 -0.8932  0.9974
    6DOPE  H11Y  752   1.485   3.701   5.755 -0.9396 -0.8220  1.2699
    6DOPE  C312  753   1.470   3.926   5.780 -0.0287 -0.4980 -0.3912
    6DOPE  H12X  754   1.487   4.003   5.858 -2.4672  0.1072 -0.3872
    6DOPE  H12Y  755   1.365   3.921   5.745 -0.2826  2.4636 -0.3289
    6DOPE  C313  756   1.556   3.963   5.654  0.0159 -0.9943  0.5146
    6DOPE  H13X  757   1.659   3.926   5.673  0.3764  0.8960  2.7415
    6DOPE  H13Y  758   1.520   3.919   5.559  0.3274 -0.5626  0.1932
    6DOPE  C314  759   1.576   4.118   5.642 -0.2939  0.5108  0.5036
    6DOPE  H14X  760   1.645   4.149   5.724 -0.4202  0.3974  0.6523
    6DOPE  H14Y  761   1.487   4.182   5.660 -1.0303 -1.2616  4.2446
    6DOPE  C315  762   1.639   4.165   5.506  0.1457  0.9602 -0.5799
    6DOPE  H15X  763   1.586   4.115   5.422  2.0837 -3.6054  0.6246
    6DOPE  H15Y  764   1.742   4.127   5.488  0.3725  1.4125 -0.2667
    6DOPE  C316  765   1.623   4.315   5.489  0.0524 -0.0463 -0.1753
    6DOPE  H16X  766   1.662   4.370   5.578  3.3903 -1.3813 -0.6637
    6DOPE  H16Y  767   1.514   4.334   5.479  0.1040  0.6661  0.5020
    6DOPE  C317  768   1.719   4.356   5.383 -0.1553 -0.0833 -0.3665
    6DOPE  H17X  769   1.820   4.313   5.400 -0.7967 -1.6011 -0.2445
    6DOPE  H17Y  770   1.683   4.310   5.289 -1.3958 -1.7131  0.8462
    6DOPE  C318  771   1.711   4.502   5.361 -0.4739 -0.5244 -0.6542
    6DOPE  H18X  772   1.776   4.556   5.434 -0.2681 -0.4178 -0.9136
    6DOPE  H18Y  773   1.731   4.545   5.260 -0.4878 -0.0217 -0.4469
    6DOPE  H18Z  774   1.608   4.532   5.389 -0.5297 -2.6296  1.8302
    7DOPE     N  775   4.746   5.223   6.651  0.4635  0.4198  0.0596
    7DOPE   HN1  776   4.690   5.188   6.571  2.2641 -0.9249 -0.6759
    7DOPE   HN2  777   4.829   5.167   6.679  1.4096  2.1946  0.9609
    7DOPE   HN3  778   4.682   5.235   6.733 -0.4519 -3.0736  0.0224
    7DOPE   C12  779   4.803   5.354   6.596  0.2116 -0.3266 -0.0847
    7DOPE  H12A  780   4.872   5.324   6.515  0.3969 -1.9030  0.6122
    7DOPE  H12B  781   4.860   5.397   6.681  1.1489 -0.3947 -0.6592
    7DOPE   C11  782   4.701   5.461   6.558  0.2342 -0.0747 -0.2386
    7DOPE  H11A  783   4.633   5.430   6.476 -0.6922 -1.6870  1.0732
    7DOPE  H11B  784   4.755   5.552   6.525  0.5757 -0.3966 -0.5912
    7DOPE     P  785   4.640   5.617   6.756  0.4387  0.0161 -0.3238
    7DOPE   O13  786   4.784   5.615   6.795  0.3678  0.2973  0.3585
    7DOPE   O14  787   4.541   5.615   6.871 -0.1793 -1.0254  0.2337
    7DOPE   O11  788   4.622   5.742   6.657 -0.1668  0.1012 -0.2828
    7DOPE   O12  789   4.609   5.490   6.660  0.7824 -0.0441  0.1517
    7DOPE    C1  790   4.489   5.772   6.608 -0.4328 -0.6153  0.4939
    7DOPE    HA  791   4.471   5.882   6.617 -0.4516 -0.4038 -1.7352
    7DOPE    HB  792   4.402   5.727   6.662 -2.3327 -0.9652 -2.6320
    7DOPE    C2  793   4.464   5.732   6.460 -0.1105  0.2220  1.3240
    7DOPE    HS  794   4.475   5.622   6.448 -3.4339 -0.1203  0.5125
    7DOPE   O21  795   4.548   5.815   6.381  0.1244  0.1533  0.2488
    7DOPE   C21  796   4.636   5.756   6.304 -0.3045 -0.4439  0.3260
    7DOPE   O22  797   4.661   5.637   6.300 -0.0522 -0.2143 -0.9686
    7DOPE   C22  798   4.688   5.863   6.201  0.1460 -0.7029 -0.4040
    7DOPE   H2R  799   4.779   5.823   6.152  0.5696 -0.5608  0.2528
    7DOPE   H2S  800   4.712   5.953   6.261  0.0113  0.8355 -2.5448
    7DOPE    C3  801   4.316   5.774   6.429  0.7444 -0.1477  0.1972
    7DOPE    HX  802   4.290   5.878   6.456 -3.3261 -0.6962 -1.0407
    7DOPE    HY  803   4.263   5.706   6.499 -2.1482  2.0394  0.2917
    7DOPE   O31  804   4.287   5.758   6.297 -0.5401 -0.1927 -0.1044
    7DOPE   C31  805   4.260   5.643   6.249 -0.0103  0.3706 -0.4178
    7DOPE   O32  806   4.264   5.534   6.308  0.6371 -0.2968  0.2699
    7DOPE   C32  807   4.239   5.651   6.100  0.6783  0.1503  0.0917
    7DOPE   H2X  808   4.139   5.604   6.090 -0.2496  1.9639  0.4214
    7DOPE   H2Y  809   4.247   5.757   6.065 -0.2673  0.1021 -0.3031
    7DOPE   C23  810   4.581   5.912   6.106  0.0498 -0.1525  0.1011
    7DOPE   H3R  811   4.487   5.934   6.162 -0.0965 -0.4738 -0.0093
    7DOPE   H3S  812   4.539   5.830   6.043 -0.6824 -0.2876  0.7415
    7DOPE   C24  813   4.624   6.039   6.036  0.4274 -0.6883 -0.5322
    7DOPE   H4R  814   4.730   6.008   6.021  1.3363  1.4690  1.0146
    7DOPE   H4S  815   4.619   6.125   6.106  0.4680 -1.6284  0.6429
    7DOPE   C25  816   4.564   6.071   5.900  0.6947 -0.1701 -0.1255
    7DOPE   H5R  817   4.458   6.038   5.897  0.6049 -0.0402  1.1228
    7DOPE   H5S  818   4.617   6.006   5.827  1.1543 -1.8045  1.5783
    7DOPE   C26  819   4.588   6.212   5.848 -0.0590  0.3125 -0.4169
    7DOPE   H6R  820   4.566   6.221   5.739 -3.2205 -0.5140  0.0544
    7DOPE   H6S  821   4.695   6.242   5.851 -0.4482  1.7458 -0.1360
    7DOPE   C27  822   4.503   6.319   5.925  0.2846  0.1495 -0.6510
    7DOPE   H7R  823   4.524   6.296   6.031 -0.4214 -0.9389 -0.7367
    7DOPE   H7S  824   4.396   6.296   5.905 -0.2809  0.5922  1.6699
    7DOPE   C28  825   4.541   6.469   5.886  0.4201  0.5724 -0.2250
    7DOPE   H8R  826   4.650   6.480   5.900  0.5348 -1.4170  0.7637
    7DOPE   H8S  827   4.486   6.534   5.957  0.7271  0.8397 -0.2356
    7DOPE   C29  828   4.500   6.519   5.747  0.2237 -1.0433 -0.2906
    7DOPE   H9R  829   4.556   6.489   5.657 -1.1104  2.4366 -2.4769
    7DOPE  C210  830   4.390   6.591   5.719  0.7750  1.0262 -0.3772
    7DOPE  H10R  831   4.369   6.621   5.615 -2.5801  1.4241  0.2783
    7DOPE  C211  832   4.293   6.646   5.818 -0.0422 -0.2569 -0.9169
    7DOPE  H11R  833   4.323   6.745   5.859 -1.7645 -0.4659  0.9647
    7DOPE  H11S  834   4.293   6.574   5.902 -0.0831  2.0331  1.1710
    7DOPE  C212  835   4.148   6.650   5.764 -0.1621  0.0446 -0.2381
    7DOPE  H12R  836   4.127   6.553   5.715  1.4117 -0.4332 -0.0102
    7DOPE  H12S  837   4.139   6.721   5.679  0.8445  0.9987  0.4230
    7DOPE  C213  838   4.042   6.660   5.874  0.5814  0.7746  0.8451
    7DOPE  H13R  839   4.088   6.737   5.939  2.5419 -1.3875  2.1557
    7DOPE  H13S  840   4.037   6.566   5.933 -1.6162  0.8029  0.7852
    7DOPE  C214  841   3.899   6.707   5.829 -0.6597 -0.2415  0.8286
    7DOPE  H14R  842   3.834   6.629   5.786 -0.9185  0.1717  0.4620
    7DOPE  H14S  843   3.906   6.788   5.753  1.4171 -0.1731  1.0186
    7DOPE  C215  844   3.828   6.778   5.947  0.4768 -0.0429 -0.1932
    7DOPE  H15R  845   3.902   6.848   5.991 -0.4298  0.6647  0.2240
    7DOPE  H15S  846   3.808   6.696   6.020  1.6987  0.6950  1.0163
    7DOPE  C216  847   3.701   6.854   5.900 -0.1754 -0.1535  0.0639
    7DOPE  H16R  848   3.620   6.789   5.861 -0.6384  1.7985 -2.5012
    7DOPE  H16S  849   3.713   6.911   5.806 -2.6227 -1.5491 -1.1826
    7DOPE  C217  850   3.629   6.949   6.000  0.9569 -0.6926 -0.0276
    7DOPE  H17R  851   3.700   7.018   6.051 -0.8623  0.5388  0.9247
    7DOPE  H17S  852   3.596   6.887   6.087 -1.4378  0.5975  0.0559
    7DOPE  C218  853   3.507   7.028   5.949  0.2567  0.0566 -0.7264
    7DOPE  H18R  854   3.424   6.958   5.924 -0.8080  0.7646  0.6623
    7DOPE  H18S  855   3.529   7.092   5.861 -0.5445  0.6454 -0.5080
    7DOPE  H18T  856   3.460   7.088   6.030 -0.8721  0.6182 -1.7722
    7DOPE   C33  857   4.330   5.554   6.020 -0.3667 -0.3133  0.0151
    7DOPE   H3X  858   4.302   5.449   6.045  1.6848 -1.0948 -0.7660
    7DOPE   H3Y  859   4.433   5.567   6.060 -0.7141 -0.5080  1.0008
    7DOPE   C34  860   4.322   5.606   5.881  0.4555  0.1377  0.1084
    7DOPE   H4X  861   4.217   5.611   5.843  0.1850 -0.2477  0.7863
    7DOPE   H4Y  862   4.361   5.710   5.882  0.6751  0.0502  1.5042
    7DOPE   C35  863   4.405   5.526   5.780 -0.0791 -0.7320 -0.2720
    7DOPE   H5X  864   4.359   5.425   5.770 -2.8000  0.4366 -0.3819
    7DOPE   H5Y  865   4.509   5.513   5.816  0.9693  0.1438 -2.8065
    7DOPE   C36  866   4.420   5.587   5.643  0.3735  0.3869 -0.3330
    7DOPE   H6X  867   4.323   5.620   5.600 -0.3036 -0.6215  0.3798
    7DOPE   H6Y  868   4.448   5.504   5.575 -3.4089  1.4229 -3.5123
    7DOPE   C37  869   4.526   5.701   5.626 -0.1379 -0.2896  0.1203
    7DOPE   H7X  870   4.511   5.783   5.699 -2.4725 -2.0328  1.7512
    7DOPE   H7Y  871   4.626   5.665   5.659  1.6629  1.5052 -2.8622
    7DOPE   C38  872   4.530   5.755   5.484  0.5241 -0.1434 -0.3318
    7DOPE   H8X  873   4.599   5.842   5.478  0.9221 -0.2961  1.4958
    7DOPE   H8Y  874   4.429   5.798   5.464 -0.4207 -3.0775 -2.6255
    7DOPE   C39  875   4.570   5.659   5.377 -0.1233 -0.3469 -0.5115
    7DOPE   H9X  876   4.553   5.554   5.405  0.0844 -0.1765  0.2898
    7DOPE  C310  877   4.598   5.690   5.250  0.1533  0.1110  0.6947
    7DOPE  H10X  878   4.625   5.606   5.184  0.4064 -0.6177  1.7138
    7DOPE  C311  879   4.603   5.828   5.189  1.3849 -0.9506 -0.7900
    7DOPE  H11X  880   4.621   5.908   5.264 -2.4239 -2.0588  1.6564
    7DOPE  H11Y  881   4.680   5.836   5.111  1.3979  1.1873 -0.6276
    7DOPE  C312  882   4.464   5.851   5.116 -0.1414  0.1503  0.2235
    7DOPE  H12X  883   4.389   5.867   5.197  1.7455  0.9148  1.9090
    7DOPE  H12Y  884   4.434   5.763   5.055  1.6903 -1.1074  1.0548
    7DOPE  C313  885   4.468   5.973   5.029 -0.3238  0.0178  0.1556
    7DOPE  H13X  886   4.488   6.071   5.077 -0.4545 -0.5056  1.3141
    7DOPE  H13Y  887   4.557   5.959   4.963  0.6719 -0.6644  1.5855
    7DOPE  C314  888   4.344   5.968   4.927  0.4255 -0.2889  0.0161
    7DOPE  H14X  889   4.254   5.972   4.991 -0.1885 -1.2398 -0.7653
    7DOPE  H14Y  890   4.330   5.874   4.869 -0.9703 -0.2244  0.2275
    7DOPE  C315  891   4.347   6.081   4.822  0.0187  0.3268  0.2174
    7DOPE  H15X  892   4.424   6.060   4.744 -2.1397 -1.4925 -1.5279
    7DOPE  H15Y  893   4.375   6.176   4.873 -2.1549  1.0187  0.2050
    7DOPE  C316  894   4.212   6.100   4.751  0.2582  0.0334  0.6165
    7DOPE  H16X  895   4.208   6.187   4.682 -1.6929 -1.8145 -1.7624
    7DOPE  H16Y  896   4.132   6.113   4.828 -1.7485 -4.1584 -0.4523
    7DOPE  C317  897   4.163   5.980   4.674 -0.8490 -0.0762 -0.9073
    7DOPE  H17X  898   4.244   5.949   4.604  0.4681  0.2184  0.4201
    7DOPE  H17Y  899   4.155   5.898   4.748 -0.5523  0.5898 -0.1129
    7DOPE  C318  900   4.041   6.015   4.597 -0.2649  0.2396  0.1778
    7DOPE  H18X  901   3.994   5.923   4.555 -2.3694  0.8308  1.1138
    7DOPE  H18Y  902   3.970   6.073   4.660 -0.6977 -1.6487  1.5151
    7DOPE  H18Z  903   4.060   6.086   4.514 -0.5093  0.2171  0.1008
    8DOPE     N  904   5.846   6.012   6.493  0.0851 -0.0447  0.0463
    8DOPE   HN1  905   5.788   6.043   6.574  1.3340  2.1550  0.1666
    8DOPE   HN2  906   5.873   5.915   6.517 -2.2343 -0.6925  0.3265
    8DOPE   HN3  907   5.930   6.072   6.497 -0.2185  0.3248  2.1416
    8DOPE   C12  908   5.761   6.011   6.371  0.0136  0.5272 -0.1142
    8DOPE  H12A  909   5.823   5.969   6.289  0.9181  0.8879  0.3660
    8DOPE  H12B  910   5.734   6.113   6.338  0.2110  0.4371 -0.5600
    8DOPE   C11  911   5.640   5.920   6.396  0.7215  0.4120 -0.0458
    8DOPE  H11A  912   5.674   5.816   6.417 -1.5948 -0.7252 -1.5435
    8DOPE  H11B  913   5.591   5.909   6.297 -1.7020 -0.7183  1.2102
    8DOPE     P  914   5.449   5.872   6.559  0.0073 -0.1094 -0.3402
    8DOPE   O13  915   5.324   5.937   6.604  0.4198 -0.2695 -0.1560
    8DOPE   O14  916   5.523   5.799   6.659 -0.7424 -0.2353 -0.0429
    8DOPE   O11  917   5.426   5.763   6.449  0.4788 -0.4715 -0.2341
    8DOPE   O12  918   5.547   5.977   6.491  0.0072  0.0489 -0.0093
    8DOPE    C1  919   5.303   5.710   6.427  0.0840  0.5269  0.2195
    8DOPE    HA  920   5.282   5.709   6.318 -0.7873  0.2076  0.3733
    8DOPE    HB  921   5.223   5.769   6.477  1.2762  0.8928  1.7824
    8DOPE    C2  922   5.296   5.557   6.457  0.0193 -0.5124 -0.5589
    8DOPE    HS  923   5.352   5.540   6.551 -0.1707  0.4153 -0.2706
    8DOPE   O21  924   5.370   5.490   6.355 -0.1567  0.5325 -0.2125
    8DOPE   C21  925   5.389   5.363   6.371  0.1161  0.3524 -0.2901
    8DOPE   O22  926   5.366   5.303   6.476 -0.1855  0.7802  0.0048
    8DOPE   C22  927   5.462   5.305   6.248  0.4386  0.7880  0.0170
    8DOPE   H2R  928   5.488   5.198   6.264 -0.8284  0.5210  0.3527
    8DOPE   H2S  929   5.559   5.358   6.233  1.7990 -0.8081  2.4586
    8DOPE    C3  930   5.150   5.516   6.461  0.0293  0.0658 -0.0843
    8DOPE    HX  931   5.109   5.579   6.543  0.5790 -0.8668  0.9252
    8DOPE    HY  932   5.142   5.411   6.494  0.8158 -0.4701 -1.4788
    8DOPE   O31  933   5.078   5.547   6.338 -0.0255 -0.0626  0.1317
    8DOPE   C31  934   5.049   5.444   6.263 -0.6580 -0.0567 -0.2673
    8DOPE   O32  935   5.082   5.323   6.288  0.4096 -0.1961  0.1337
    8DOPE   C32  936   4.980   5.479   6.136  0.2063  0.4360 -0.5937
    8DOPE   H2X  937   5.000   5.400   6.060 -0.8354 -1.8356  1.3511
    8DOPE   H2Y  938   4.872   5.484   6.161  0.5071 -2.0612  1.5876
    8DOPE   C23  939   5.384   5.316   6.108  0.2260 -0.3656 -0.4340
    8DOPE   H3R  940   5.278   5.285   6.120  0.1068  0.1932 -0.0271
    8DOPE   H3S  941   5.436   5.246   6.038  1.7044  0.7446 -0.4908
    8DOPE   C24  942   5.381   5.451   6.042  1.3300 -0.4155 -0.1486
    8DOPE   H4R  943   5.488   5.474   6.025  1.2439 -0.4948 -0.8313
    8DOPE   H4S  944   5.348   5.535   6.107  1.7039 -0.7529  0.4839
    8DOPE   C25  945   5.297   5.445   5.910  0.1924  0.9125 -0.1678
    8DOPE   H5R  946   5.193   5.419   5.938  0.8800  0.9443  2.7067
    8DOPE   H5S  947   5.332   5.361   5.847  1.0221  0.1812  1.2229
    8DOPE   C26  948   5.315   5.580   5.837  0.0101 -0.0496  0.1086
    8DOPE   H6R  949   5.425   5.594   5.832 -0.0321  0.3960  0.4047
    8DOPE   H6S  950   5.275   5.660   5.902  0.1146 -0.4630  0.6929
    8DOPE   C27  951   5.261   5.580   5.690  1.3957  0.3464 -0.9130
    8DOPE   H7R  952   5.243   5.684   5.657  2.2970  0.5427 -0.8064
    8DOPE   H7S  953   5.163   5.528   5.691  1.1137  0.8374  1.5250
    8DOPE   C28  954   5.357   5.525   5.583 -1.0624  0.5041  0.2567
    8DOPE   H8R  955   5.457   5.568   5.607  0.3166 -2.7656  0.8330
    8DOPE   H8S  956   5.329   5.565   5.483 -0.4266 -0.0104 -0.1363
    8DOPE   C29  957   5.352   5.372   5.555  0.4067 -0.1714  0.0764
    8DOPE   H9R  958   5.275   5.340   5.484  1.4364 -2.6497 -0.0126
    8DOPE  C210  959   5.436   5.279   5.602  0.1873 -0.3458 -0.3418
    8DOPE  H10R  960   5.419   5.172   5.585 -1.5141 -0.0753 -0.4977
    8DOPE  C211  961   5.557   5.288   5.690 -0.0991  0.1093 -0.8109
    8DOPE  H11R  962   5.548   5.379   5.753 -0.1502 -0.5060  0.1009
    8DOPE  H11S  963   5.647   5.288   5.626 -0.0292 -0.5092 -0.7248
    8DOPE  C212  964   5.554   5.168   5.802 -0.9868 -0.7955  0.5501
    8DOPE  H12R  965   5.552   5.074   5.743 -3.4318  0.1747 -1.0597
    8DOPE  H12S  966   5.454   5.158   5.850 -1.5072  0.7459 -0.1526
    8DOPE  C213  967   5.668   5.181   5.895  0.4200 -0.1766 -0.0761
    8DOPE  H13R  968   5.660   5.278   5.950 -2.6517 -0.9671  1.1127
    8DOPE  H13S  969   5.765   5.185   5.841 -0.0137  0.5218 -0.8314
    8DOPE  C214  970   5.671   5.060   5.994 -0.1635 -0.2784  0.5179
    8DOPE  H14R  971   5.668   4.968   5.932  1.3851  0.0572 -0.1024
    8DOPE  H14S  972   5.586   5.058   6.065  0.7139  2.1708  1.7626
    8DOPE  C215  973   5.799   5.049   6.077 -0.8437 -0.0870  0.4919
    8DOPE  H15R  974   5.888   5.072   6.014 -0.9830 -0.3244  0.2047
    8DOPE  H15S  975   5.814   4.945   6.114 -0.1130 -0.0674  0.2518
    8DOPE  C216  976   5.808   5.152   6.193  0.3598 -0.8212 -0.0896
    8DOPE  H16R  977   5.715   5.154   6.255 -0.1206  1.7799 -0.7877
    8DOPE  H16S  978   5.823   5.254   6.153  1.4854 -0.5206  1.0422
    8DOPE  C217  979   5.923   5.121   6.299  0.7615  0.3259  0.9111
    8DOPE  H17R  980   6.010   5.110   6.231 -0.5884 -0.2538 -0.8033
    8DOPE  H17S  981   5.899   5.017   6.329  0.5471  0.1025  0.0075
    8DOPE  C218  982   5.932   5.217   6.414  0.0526 -0.7359  0.1989
    8DOPE  H18R  983   5.926   5.322   6.378  1.1642 -0.2778  1.2906
    8DOPE  H18S  984   6.001   5.184   6.494 -0.3822 -1.7210  0.1854
    8DOPE  H18T  985   5.836   5.217   6.470 -0.2494 -1.7014 -0.2992
    8DOPE   C33  986   5.012   5.626   6.088  0.4318  0.4944  0.1225
    8DOPE   H3X  987   5.119   5.643   6.064  0.4755  1.6284  0.9968
    8DOPE   H3Y  988   4.971   5.701   6.159  0.1240  0.4103  0.0372
    8DOPE   C34  989   4.943   5.635   5.952  0.1631  0.3582  0.2821
    8DOPE   H4X  990   4.987   5.558   5.885  1.6087  1.1730  0.2564
    8DOPE   H4Y  991   4.833   5.627   5.963  0.1711 -0.9661 -0.4068
    8DOPE   C35  992   4.956   5.776   5.886 -0.2240  0.0851  0.2655
    8DOPE   H5X  993   5.059   5.801   5.851 -0.2650 -1.9499 -1.4766
    8DOPE   H5Y  994   4.935   5.843   5.973  0.7469 -0.8919  1.2853
    8DOPE   C36  995   4.862   5.800   5.770 -0.0066 -0.2006  0.1131
    8DOPE   H6X  996   4.759   5.807   5.810  0.1030  1.5676  0.1960
    8DOPE   H6Y  997   4.863   5.711   5.705 -0.8213  1.6549 -2.6229
    8DOPE   C37  998   4.900   5.930   5.689 -0.3263  0.1387  0.2164
    8DOPE   H7X  999   5.003   5.909   5.652  0.5334  2.5156  1.0581
    8DOPE   H7Y 1000   4.847   5.945   5.593  0.0859 -0.2591 -0.0802
    8DOPE   C38 1001   4.914   6.054   5.786 -0.0689  0.3425 -0.3447
    8DOPE   H8X 1002   4.999   6.029   5.853 -0.2944  0.8947  0.1534
    8DOPE   H8Y 1003   4.821   6.061   5.846  0.1965 -0.7016  0.2145
    8DOPE   C39 1004   4.932   6.174   5.695  0.1355 -0.1166  0.3152
    8DOPE   H9X 1005   4.848   6.195   5.627 -0.0711 -1.1601  0.2359
    8DOPE  C310 1006   5.051   6.232   5.674 -0.3904 -0.4033  1.1636
    8DOPE  H10X 1007   5.053   6.321   5.610 -2.3961 -0.2790  1.2076
    8DOPE  C311 1008   5.186   6.190   5.711  0.9078  0.5303  0.1573
    8DOPE  H11X 1009   5.230   6.273   5.770  0.3689  1.0015 -0.0947
    8DOPE  H11Y 1010   5.186   6.105   5.782  1.6570  1.1424  0.9018
    8DOPE  C312 1011   5.275   6.161   5.591 -0.8334  0.0787 -0.8172
    8DOPE  H12X 1012   5.372   6.188   5.637 -0.7361 -1.0284 -0.3477
    8DOPE  H12Y 1013   5.260   6.231   5.506  1.6318  1.8687  0.1070
    8DOPE  C313 1014   5.283   6.011   5.553 -0.9381 -0.6917 -0.0719
    8DOPE  H13X 1015   5.321   5.945   5.634 -0.9848  0.0809  0.5971
    8DOPE  H13Y 1016   5.182   5.970   5.535 -1.6558  1.1709 -0.4663
    8DOPE  C314 1017   5.371   5.971   5.433 -0.4598  0.2711 -0.1116
    8DOPE  H14X 1018   5.475   6.006   5.451 -0.8329 -0.0071  3.4116
    8DOPE  H14Y 1019   5.326   6.027   5.349 -3.1275 -0.9272  0.4066
    8DOPE  C315 1020   5.370   5.822   5.403  0.3850  0.1477  0.0132
    8DOPE  H15X 1021   5.263   5.796   5.413  0.7367 -0.7838  1.5973
    8DOPE  H15Y 1022   5.434   5.764   5.472  1.1703  0.0283 -0.7935
    8DOPE  C316 1023   5.420   5.799   5.264  0.1497 -0.4442 -0.2116
    8DOPE  H16X 1024   5.355   5.860   5.198  1.1402 -0.9675 -1.7209
    8DOPE  H16Y 1025   5.410   5.693   5.232  0.9652  0.1476 -2.7049
    8DOPE  C317 1026   5.570   5.827   5.243  0.0924  0.4634  0.3592
    8DOPE  H17X 1027   5.589   5.936   5.242  1.7909  0.2011 -0.8272
    8DOPE  H17Y 1028   5.629   5.771   5.318  0.3673  1.4763  0.9163
    8DOPE  C318 1029   5.608   5.784   5.099  0.0045 -0.1693 -0.3954
    8DOPE  H18X 1030   5.552   5.690   5.083  0.0562 -0.1618 -0.6244
    8DOPE  H18Y 1031   5.718   5.765   5.092 -0.1278 -0.9261 -0.4883
    8DOPE  H18Z 1032   5.585   5.869   5.031  2.2541 -0.2949 -1.4279
    9DOPE     N 1033   0.562   3.473   6.906  0.4627  0.3202  0.5258
    9DOPE   HN1 1034   0.491   3.472   6.830 -0.2993  0.3001  1.2219
    9DOPE   HN2 1035   0.655   3.440   6.872 -0.4763 -2.2938  0.2650
    9DOPE   HN3 1036   0.522   3.415   6.983  3.4165 -1.8684  0.5798
    9DOPE   C12 1037   0.578   3.619   6.963 -0.3910 -0.2948  0.7111
    9DOPE  H12A 1038   0.660   3.613   7.038  0.8349  2.1960 -0.3184
    9DOPE  H12B 1039   0.482   3.649   7.011 -0.1145  0.3075  0.8986
    9DOPE   C11 1040   0.598   3.734   6.855 -0.1486  0.1610  0.3456
    9DOPE  H11A 1041   0.516   3.734   6.779 -0.0700  2.1416  0.2123
    9DOPE  H11B 1042   0.696   3.713   6.807 -0.7211 -1.3549 -0.2246
    9DOPE     P 1043   0.532   3.984   6.869  0.5185  0.6084  0.3436
    9DOPE   O13 1044   0.539   4.091   6.969  0.3081 -0.2367  0.4526
    9DOPE   O14 1045   0.402   3.930   6.821 -0.0049  0.2483  0.3614
    9DOPE   O11 1046   0.633   4.006   6.749 -0.0512 -0.4262 -0.7755
    9DOPE   O12 1047   0.601   3.858   6.933  0.0417  0.1343 -0.0530
    9DOPE    C1 1048   0.770   4.035   6.773  0.4016  0.7888  0.4691
    9DOPE    HA 1049   0.814   3.991   6.865  0.6972  0.8560  0.3623
    9DOPE    HB 1050   0.782   4.146   6.774  0.0280  0.8283  0.8865
    9DOPE    C2 1051   0.868   3.989   6.658  0.6857  0.4327  0.6763
    9DOPE    HS 1052   0.970   4.031   6.661  0.9691 -0.1263 -0.4019
    9DOPE   O21 1053   0.806   4.001   6.530 -0.1609  0.0339 -0.2978
    9DOPE   C21 1054   0.783   4.119   6.493 -0.5614  0.0907 -0.3029
    9DOPE   O22 1055   0.842   4.223   6.525 -0.1199 -0.4133  0.3256
    9DOPE   C22 1056   0.672   4.122   6.392  0.2424  0.7618 -0.4629
    9DOPE   H2R 1057   0.678   4.219   6.338  0.9636  0.5925 -0.6927
    9DOPE   H2S 1058   0.576   4.111   6.447  1.3559  1.0384  1.6413
    9DOPE    C3 1059   0.893   3.829   6.669  0.6043  0.5040 -0.5266
    9DOPE    HX 1060   0.790   3.786   6.663  1.0480 -0.9014  0.9627
    9DOPE    HY 1061   0.930   3.804   6.771  0.7011 -0.1946 -0.7264
    9DOPE   O31 1062   0.983   3.786   6.564 -0.3193 -0.3633  0.2407
    9DOPE   C31 1063   0.929   3.716   6.469  0.1414  0.5632 -0.4257
    9DOPE   O32 1064   0.820   3.659   6.475 -0.0929 -0.1548 -0.2761
    9DOPE   C32 1065   1.021   3.734   6.345  1.1539 -0.3467 -0.4447
    9DOPE   H2X 1066   1.027   3.842   6.322  0.4990 -0.6145 -2.0912
    9DOPE   H2Y 1067   1.122   3.697   6.369  1.8333  2.9827  2.5159
    9DOPE   C23 1068   0.668   3.998   6.295 -0.5394  0.3584 -0.0540
    9DOPE   H3R 1069   0.631   3.910   6.352 -0.3199  0.8468  0.8707
    9DOPE   H3S 1070   0.768   3.971   6.254 -0.1141  0.0905  1.0919
    9DOPE   C24 1071   0.583   4.021   6.171  0.1909 -0.1074  0.8254
    9DOPE   H4R 1072   0.610   4.116   6.122 -0.0965 -0.4001  0.0881
    9DOPE   H4S 1073   0.476   4.020   6.202 -0.7452 -0.4759 -2.0909
    9DOPE   C25 1074   0.607   3.920   6.053  0.2821 -0.2667 -0.5435
    9DOPE   H5R 1075   0.615   3.813   6.079  0.5370 -0.1000  0.0933
    9DOPE   H5S 1076   0.704   3.945   6.006  0.3378  0.4696 -0.0683
    9DOPE   C26 1077   0.505   3.943   5.943  0.9778  0.3022  0.4644
    9DOPE   H6R 1078   0.513   4.045   5.900 -0.7781 -0.8840 -3.1140
    9DOPE   H6S 1079   0.401   3.938   5.981  1.4481  1.1056  1.8951
    9DOPE   C27 1080   0.512   3.833   5.832  0.6349 -0.2771  0.7214
    9DOPE   H7R 1081   0.512   3.735   5.885  1.0181 -0.1266  1.0024
    9DOPE   H7S 1082   0.606   3.836   5.774 -0.1527 -0.2202 -0.5914
    9DOPE   C28 1083   0.407   3.838   5.724  0.4547  0.4380 -0.0683
    9DOPE   H8R 1084   0.416   3.937   5.674 -0.0648  0.0164 -1.0185
    9DOPE   H8S 1085   0.303   3.832   5.762  0.9676  0.1959  1.3545
    9DOPE   C29 1086   0.426   3.731   5.620  0.1355  0.1295 -0.4400
    9DOPE   H9R 1087   0.417   3.631   5.665  0.9497  0.8683  1.5137
    9DOPE  C210 1088   0.425   3.741   5.487 -0.1239  0.2146 -0.5431
    9DOPE  H10R 1089   0.440   3.648   5.431 -0.3566 -0.2413  0.1529
    9DOPE  C211 1090   0.406   3.869   5.406  0.5475  0.2954 -1.1324
    9DOPE  H11R 1091   0.495   3.907   5.352  1.2333  2.8173  1.5171
    9DOPE  H11S 1092   0.375   3.958   5.465 -1.3628 -0.0909 -1.4740
    9DOPE  C212 1093   0.295   3.866   5.298 -0.0949 -0.3112 -0.1983
    9DOPE  H12R 1094   0.275   3.964   5.249  2.3476  0.6866  0.6860
    9DOPE  H12S 1095   0.207   3.833   5.357  0.8103 -0.8264  0.8931
    9DOPE  C213 1096   0.318   3.758   5.189  0.2031 -0.0569 -0.1180
    9DOPE  H13R 1097   0.218   3.739   5.143 -0.8860  3.0815  0.7197
    9DOPE  H13S 1098   0.348   3.660   5.232  0.9430 -0.0182 -0.5295
    9DOPE  C214 1099   0.416   3.783   5.083  0.3452 -0.2366  0.3219
    9DOPE  H14R 1100   0.511   3.814   5.131 -0.8623  1.8222  1.4820
    9DOPE  H14S 1101   0.379   3.863   5.016 -0.3408 -2.7179 -2.4547
    9DOPE  C215 1102   0.438   3.657   4.994 -0.4569 -0.8195 -0.2807
    9DOPE  H15R 1103   0.338   3.616   4.966 -2.6163  2.4359  1.8750
    9DOPE  H15S 1104   0.487   3.582   5.059  1.1244  0.4602  0.0612
    9DOPE  C216 1105   0.498   3.693   4.854 -1.0074 -0.0496 -0.2390
    9DOPE  H16R 1106   0.587   3.753   4.882  0.1204 -0.6147 -2.3285
    9DOPE  H16S 1107   0.439   3.765   4.794 -1.4930  0.2001  0.5305
    9DOPE  C217 1108   0.520   3.571   4.765 -1.0178  0.1911 -0.3838
    9DOPE  H17R 1109   0.551   3.607   4.665  1.0287 -0.8499 -0.1920
    9DOPE  H17S 1110   0.430   3.507   4.769 -1.6583  1.0761 -0.3939
    9DOPE  C218 1111   0.629   3.480   4.816 -0.0700 -0.2492 -0.0857
    9DOPE  H18R 1112   0.605   3.430   4.913  0.2009 -0.0615  0.0804
    9DOPE  H18S 1113   0.721   3.538   4.837  0.8446 -0.8774 -2.1173
    9DOPE  H18T 1114   0.660   3.389   4.759 -3.0924 -0.6707 -1.2371
    9DOPE   C33 1115   0.963   3.681   6.205  0.8461 -0.6243 -0.2502
    9DOPE   H3X 1116   0.854   3.703   6.206  0.5292 -2.0442  1.1677
    9DOPE   H3Y 1117   0.994   3.575   6.195  1.5858 -0.4638  0.2272
    9DOPE   C34 1118   1.025   3.751   6.086 -0.1508 -0.7738 -0.2538
    9DOPE   H4X 1119   1.015   3.861   6.103 -1.3950 -0.9800  0.4652
    9DOPE   H4Y 1120   1.134   3.730   6.080  0.2543  1.4810 -2.5817
    9DOPE   C35 1121   0.956   3.714   5.952 -0.1155 -0.6393  0.6777
    9DOPE   H5X 1122   0.851   3.750   5.953  0.2331  0.4846 -0.5819
    9DOPE   H5Y 1123   0.950   3.603   5.961  0.0127 -0.5576  1.9913
    9DOPE   C36 1124   1.002   3.775   5.826 -0.2332 -0.4458 -0.0694
    9DOPE   H6X 1125   1.106   3.740   5.805  0.2850  0.3039  1.1416
    9DOPE   H6Y 1126   1.016   3.882   5.850  0.5144 -0.3209 -1.0068
    9DOPE   C37 1127   0.899   3.750   5.709  0.1390  0.8720 -0.6168
    9DOPE   H7X 1128   0.890   3.639   5.706  2.8356  0.5962 -1.1982
    9DOPE   H7Y 1129   0.799   3.790   5.734 -0.7338 -1.2854 -0.4631
    9DOPE   C38 1130   0.949   3.800   5.579 -0.0593  0.0088  0.0607
    9DOPE   H8X 1131   0.935   3.910   5.583  1.8569  0.3106 -0.3603
    9DOPE   H8Y 1132   0.879   3.780   5.494 -0.1647 -0.4480  0.2524
    9DOPE   C39 1133   1.087   3.756   5.548 -0.0055  0.3205 -0.1417
    9DOPE   H9X 1134   1.096   3.647   5.562 -0.7181  0.1729 -0.7937
    9DOPE  C310 1135   1.195   3.831   5.523  0.0615 -0.5831  0.4271
    9DOPE  H10X 1136   1.287   3.774   5.504 -1.3834 -2.8343 -0.1911
    9DOPE  C311 1137   1.197   3.980   5.502 -0.2987 -0.4800 -0.7220
    9DOPE  H11X 1138   1.095   4.023   5.488  0.1771  0.9072 -0.0875
    9DOPE  H11Y 1139   1.250   4.031   5.585  2.1703 -1.6013 -1.5202
    9DOPE  C312 1140   1.268   4.021   5.369 -0.4345 -0.3895  0.6445
    9DOPE  H12X 1141   1.237   3.954   5.286 -0.8521 -2.0004  2.0283
    9DOPE  H12Y 1142   1.378   4.015   5.384  0.3289  0.7888 -3.4409
    9DOPE  C313 1143   1.251   4.164   5.322 -0.1615 -0.9511 -1.3416
    9DOPE  H13X 1144   1.143   4.185   5.307 -0.5060 -0.9299  0.8062
    9DOPE  H13Y 1145   1.280   4.236   5.401 -0.9710 -1.0722 -0.9198
    9DOPE  C314 1146   1.308   4.213   5.184 -0.0612 -0.0805  0.1484
    9DOPE  H14X 1147   1.417   4.228   5.202  0.4522 -1.4358 -1.5371
    9DOPE  H14Y 1148   1.260   4.302   5.139  2.0136  0.5811 -0.8965
    9DOPE  C315 1149   1.296   4.104   5.073  0.8026 -0.0275  0.2746
    9DOPE  H15X 1150   1.192   4.066   5.080  1.2837 -1.3478  0.6175
    9DOPE  H15Y 1151   1.369   4.021   5.088 -0.0273 -1.1574 -1.5711
    9DOPE  C316 1152   1.316   4.163   4.926  0.6706  0.5715 -0.0261
    9DOPE  H16X 1153   1.425   4.171   4.907  1.0217  0.7933  1.8316
    9DOPE  H16Y 1154   1.289   4.270   4.930 -0.3480  0.3501 -0.5119
    9DOPE  C317 1155   1.242   4.085   4.813  0.0217 -0.2435  0.1006
    9DOPE  H17X 1156   1.306   4.002   4.776  0.8608  1.5487 -2.8404
    9DOPE  H17Y 1157   1.144   4.039   4.838 -0.3160  0.2405 -0.2993
    9DOPE  C318 1158   1.234   4.175   4.686 -0.0415 -0.1320 -0.2077
    9DOPE  H18X 1159   1.206   4.115   4.597 -0.6358 -0.0684 -0.0655
    9DOPE  H18Y 1160   1.163   4.257   4.710 -1.2331 -1.0466 -0.5527
    9DOPE  H18Z 1161   1.331   4.223   4.660 -0.5196 -0.8702 -3.7787
   10DOPE     N 1162   0.949   4.698   7.031 -0.2183  0.3592  0.4026
   10DOPE   HN1 1163   0.910   4.642   6.953 -1.2493  0.5145  0.7948
   10DOPE   HN2 1164   1.030   4.756   7.000 -0.7892  0.2983 -1.2437
   10DOPE   HN3 1165   0.994   4.632   7.098  1.5427  0.6931 -0.3840
   10DOPE   C12 1166   0.837   4.777   7.081 -0.1747 -0.0345  0.4175
   10DOPE  H12A 1167   0.859   4.786   7.189  1.7900  0.1216  0.0492
   10DOPE  H12B 1168   0.745   4.721   7.053 -0.5849  1.7488 -2.1959
   10DOPE   C11 1169   0.836   4.919   7.020 -0.3365 -0.1945 -0.4796
   10DOPE  H11A 1170   0.732   4.955   7.041 -0.8915 -1.8425 -0.2600
   10DOPE  H11B 1171   0.849   4.926   6.910  2.6224  0.9716 -0.1254
   10DOPE     P 1172   0.935   5.146   7.087 -0.0441 -0.2695  0.2816
   10DOPE   O13 1173   1.071   5.191   7.110  0.1528 -0.2017 -0.0182
   10DOPE   O14 1174   0.828   5.189   7.180 -0.2717 -0.0289 -0.3203
   10DOPE   O11 1175   0.897   5.181   6.941 -0.0462  0.0776 -0.2584
   10DOPE   O12 1176   0.945   4.992   7.080  0.2862 -0.6476  0.3225
   10DOPE    C1 1177   0.986   5.181   6.830 -0.2678  0.0432  0.7962
   10DOPE    HA 1178   1.041   5.084   6.830 -0.2939  0.0022 -0.5713
   10DOPE    HB 1179   1.058   5.265   6.832 -0.0060 -0.0958 -1.1460
   10DOPE    C2 1180   0.922   5.193   6.687  0.2941 -0.4743 -0.1461
   10DOPE    HS 1181   0.978   5.124   6.620 -0.4027 -1.8630  0.6380
   10DOPE   O21 1182   0.940   5.328   6.637  0.1668 -0.5375  0.0339
   10DOPE   C21 1183   1.057   5.349   6.584  0.1236  0.3491  0.1872
   10DOPE   O22 1184   1.156   5.278   6.588  0.3194 -0.1070  0.4292
   10DOPE   C22 1185   1.050   5.484   6.505 -0.6763 -0.2591 -0.2481
   10DOPE   H2R 1186   1.130   5.554   6.539 -0.8366  1.4019 -3.0172
   10DOPE   H2S 1187   0.953   5.530   6.534 -0.2821 -0.5690  1.7240
   10DOPE    C3 1188   0.775   5.152   6.674  0.3378 -0.3255 -1.0280
   10DOPE    HX 1189   0.724   5.206   6.757  0.6677 -1.8560  0.2145
   10DOPE    HY 1190   0.763   5.045   6.703 -1.3723 -0.5972 -2.5280
   10DOPE   O31 1191   0.728   5.174   6.543 -0.3744  0.8794  0.0540
   10DOPE   C31 1192   0.696   5.299   6.509 -0.7947 -0.1845  0.1565
   10DOPE   O32 1193   0.675   5.386   6.593 -0.3595 -0.0973 -0.3313
   10DOPE   C32 1194   0.661   5.311   6.358 -0.1143 -0.0241  0.5713
   10DOPE   H2X 1195   0.748   5.263   6.309 -0.2725  0.7567 -0.5020
   10DOPE   H2Y 1196   0.565   5.256   6.340  0.1643 -0.4937  0.5011
   10DOPE   C23 1197   1.077   5.460   6.351  0.5801  0.9727 -0.2720
   10DOPE   H3R 1198   1.017   5.380   6.302  1.1250 -0.2626  0.9861
   10DOPE   H3S 1199   1.184   5.430   6.348  0.1722 -0.4470 -2.1207
   10DOPE   C24 1200   1.053   5.588   6.278 -0.0330 -0.1271 -0.3705
   10DOPE   H4R 1201   0.971   5.643   6.330 -0.2673 -1.1937  0.4122
   10DOPE   H4S 1202   1.012   5.562   6.178 -1.5582  0.7737 -0.0149
   10DOPE   C25 1203   1.173   5.679   6.273 -0.8032 -0.1678  0.2817
   10DOPE   H5R 1204   1.223   5.703   6.370  0.5715  1.3826 -0.7520
   10DOPE   H5S 1205   1.152   5.784   6.241 -1.1431  0.2578  1.7800
   10DOPE   C26 1206   1.270   5.627   6.166 -0.4218  0.3376  0.4200
   10DOPE   H6R 1207   1.224   5.601   6.068 -1.0326  1.0135  0.5167
   10DOPE   H6S 1208   1.290   5.523   6.198 -1.9729 -0.2469 -0.3857
   10DOPE   C27 1209   1.402   5.705   6.147  0.1484 -0.5411 -0.3149
   10DOPE   H7R 1210   1.448   5.717   6.248  0.1336 -0.6032 -0.3006
   10DOPE   H7S 1211   1.389   5.809   6.111  1.0513 -0.5036 -0.5581
   10DOPE   C28 1212   1.514   5.634   6.077  0.1811 -0.7517  0.1390
   10DOPE   H8R 1213   1.540   5.532   6.114 -0.7183 -0.8127  0.6167
   10DOPE   H8S 1214   1.604   5.697   6.096  1.2822 -1.6210 -1.8291
   10DOPE   C29 1215   1.495   5.637   5.927 -0.5444 -0.2188  0.3674
   10DOPE   H9R 1216   1.473   5.540   5.881  1.7234 -1.4733  1.7548
   10DOPE  C210 1217   1.538   5.733   5.840  0.3006  0.5726  0.0588
   10DOPE  H10R 1218   1.526   5.713   5.732  0.0322 -1.0565  0.3688
   10DOPE  C211 1219   1.604   5.861   5.881 -0.5325 -0.2673 -0.5452
   10DOPE  H11R 1220   1.711   5.851   5.852  0.0338  1.6289  0.6703
   10DOPE  H11S 1221   1.609   5.865   5.992 -2.4582 -0.2688 -0.4286
   10DOPE  C212 1222   1.540   5.995   5.834  0.3951  0.0152  0.0773
   10DOPE  H12R 1223   1.530   5.985   5.723  0.9950  1.6489 -0.1514
   10DOPE  H12S 1224   1.627   6.057   5.865  2.2524 -1.8181 -1.1901
   10DOPE  C213 1225   1.400   6.032   5.891  0.1419 -1.1279 -0.0074
   10DOPE  H13R 1226   1.391   6.018   6.000 -1.7896  1.8065  0.3142
   10DOPE  H13S 1227   1.320   5.972   5.841 -1.0834  1.3419 -1.2118
   10DOPE  C214 1228   1.367   6.179   5.867 -0.2469  0.0734  0.0411
   10DOPE  H14R 1229   1.376   6.204   5.759 -0.4748 -0.3714 -0.0847
   10DOPE  H14S 1230   1.427   6.246   5.931  1.5226 -0.7776 -0.6651
   10DOPE  C215 1231   1.219   6.212   5.891 -0.0712  0.2439 -0.3452
   10DOPE  H15R 1232   1.205   6.200   6.000  1.4826  0.7675 -0.0621
   10DOPE  H15S 1233   1.150   6.136   5.848  0.3198 -1.3013  1.6079
   10DOPE  C216 1234   1.183   6.357   5.872  0.2916  0.2399  0.2939
   10DOPE  H16R 1235   1.205   6.388   5.767  0.6423  0.1907  0.3522
   10DOPE  H16S 1236   1.245   6.423   5.936  0.4532 -1.5884  2.0882
   10DOPE  C217 1237   1.032   6.382   5.903 -1.0333  0.7322 -0.0968
   10DOPE  H17R 1238   1.012   6.317   5.991 -0.1498  2.4924  1.4640
   10DOPE  H17S 1239   0.970   6.346   5.818 -1.5463  0.1763  0.4995
   10DOPE  C218 1240   0.984   6.528   5.933  0.0620  0.0580 -0.0120
   10DOPE  H18R 1241   0.985   6.593   5.842 -0.5033 -1.3895 -1.0966
   10DOPE  H18S 1242   1.066   6.568   5.996  0.6003 -0.6360 -0.2533
   10DOPE  H18T 1243   0.892   6.522   5.994  0.6604 -2.8140  0.7653
   10DOPE   C33 1244   0.644   5.453   6.298  0.8654 -0.2928  0.4958
   10DOPE   H3X 1245   0.740   5.506   6.313 -0.3059  2.0482  0.0724
   10DOPE   H3Y 1246   0.551   5.496   6.341  0.4764 -0.9136  0.2961
   10DOPE   C34 1247   0.621   5.437   6.142 -0.2210 -0.4397 -0.7060
   10DOPE   H4X 1248   0.705   5.378   6.100 -0.1050  1.2456 -3.0734
   10DOPE   H4Y 1249   0.523   5.385   6.141 -0.7131  0.4361  0.1898
   10DOPE   C35 1250   0.614   5.580   6.081 -0.3193  0.3012 -0.2306
   10DOPE   H5X 1251   0.711   5.632   6.070 -0.4804  0.9621  1.3433
   10DOPE   H5Y 1252   0.548   5.645   6.143  0.4666 -1.5519  2.7578
   10DOPE   C36 1253   0.555   5.570   5.939 -0.8182 -0.2268  0.0935
   10DOPE   H6X 1254   0.467   5.502   5.937 -1.7150  0.8464  1.4907
   10DOPE   H6Y 1255   0.637   5.516   5.887 -1.6712  0.0064 -1.5443
   10DOPE   C37 1256   0.518   5.707   5.890  0.3527 -0.6584  0.2601
   10DOPE   H7X 1257   0.448   5.754   5.962 -1.7138 -1.2235 -1.2534
   10DOPE   H7Y 1258   0.612   5.764   5.877  0.3264 -0.1660  2.0718
   10DOPE   C38 1259   0.453   5.697   5.753 -0.4138 -0.6643 -0.1307
   10DOPE   H8X 1260   0.373   5.621   5.768  0.2843 -0.9101  3.2170
   10DOPE   H8Y 1261   0.535   5.678   5.681  1.4530  1.3391  1.3347
   10DOPE   C39 1262   0.400   5.835   5.714 -0.8067 -0.6125  1.1919
   10DOPE   H9X 1263   0.438   5.917   5.778  0.0837 -0.2074  0.1726
   10DOPE  C310 1264   0.367   5.864   5.585 -0.0061 -0.0092  0.8532
   10DOPE  H10X 1265   0.343   5.968   5.557 -2.4911 -0.5349  0.8313
   10DOPE  C311 1266   0.344   5.764   5.479 -0.4845  0.0473  0.1676
   10DOPE  H11X 1267   0.335   5.661   5.519  1.2698  0.4282  1.7240
   10DOPE  H11Y 1268   0.257   5.770   5.410 -0.4870 -0.4653  0.1274
   10DOPE  C312 1269   0.472   5.748   5.395 -0.7061 -0.5245 -0.1591
   10DOPE  H12X 1270   0.557   5.720   5.461 -0.9602  1.1107  0.9292
   10DOPE  H12Y 1271   0.486   5.849   5.350 -0.1686 -0.4060  0.2654
   10DOPE  C313 1272   0.439   5.644   5.285 -0.1951 -0.2684 -0.3636
   10DOPE  H13X 1273   0.392   5.549   5.316 -0.6047 -0.1542 -0.6391
   10DOPE  H13Y 1274   0.362   5.703   5.231 -0.7686  1.1510  1.8576
   10DOPE  C314 1275   0.548   5.602   5.183  0.3247 -0.1214 -0.5011
   10DOPE  H14X 1276   0.521   5.571   5.080  1.2565  1.0170 -1.1222
   10DOPE  H14Y 1277   0.604   5.517   5.228  0.6216  0.4715  0.2908
   10DOPE  C315 1278   0.664   5.709   5.172 -0.5637  0.1834 -0.2129
   10DOPE  H15X 1279   0.689   5.722   5.279 -2.4953 -0.1342  0.3095
   10DOPE  H15Y 1280   0.626   5.806   5.134 -0.5104  0.1551 -0.3396
   10DOPE  C316 1281   0.777   5.663   5.074 -0.3201  0.6563  0.6482
   10DOPE  H16X 1282   0.797   5.554   5.085 -1.4709  0.3770  0.1900
   10DOPE  H16Y 1283   0.862   5.723   5.111 -0.4640 -0.4127  2.8924
   10DOPE  C317 1284   0.750   5.695   4.922 -0.9669  0.6272 -0.4503
   10DOPE  H17X 1285   0.659   5.633   4.905  0.5185 -0.8901 -3.8299
   10DOPE  H17Y 1286   0.725   5.803   4.923  2.5738  1.5787 -1.3993
   10DOPE  C318 1287   0.859   5.645   4.820  0.3684 -0.7009 -0.4744
   10DOPE  H18X 1288   0.828   5.636   4.714  0.6655 -1.0345 -0.5339
   10DOPE  H18Y 1289   0.954   5.702   4.828  1.4567 -2.4932 -0.1904
   10DOPE  H18Z 1290   0.878   5.542   4.857  1.9063 -0.7392 -1.2815
   11DOPE     N 1291   7.412   3.635   7.131  0.0544 -0.2898 -0.1406
   11DOPE   HN1 1292   7.454   3.728   7.150  0.3713 -0.1431 -1.4486
   11DOPE   HN2 1293   7.366   3.602   7.218 -0.2406  1.1461  0.2651
   11DOPE   HN3 1294   7.485   3.561   7.125  0.2725 -0.4679  2.9874
   11DOPE   C12 1295   7.305   3.649   7.028 -0.9641 -0.2720 -0.8432
   11DOPE  H12A 1296   7.342   3.702   6.938 -0.4721  0.5504 -0.1708
   11DOPE  H12B 1297   7.239   3.721   7.079  1.2195  0.3444  1.2803
   11DOPE   C11 1298   7.245   3.511   6.988 -0.2592 -0.5818 -0.0508
   11DOPE  H11A 1299   7.328   3.459   6.935 -0.3907 -1.3085  0.4400
   11DOPE  H11B 1300   7.171   3.538   6.910 -1.0860  0.2785  1.0023
   11DOPE     P 1301   7.049   3.444   7.139 -0.3972 -0.2257 -0.0267
   11DOPE   O13 1302   6.983   3.579   7.133  0.0253  0.2026  0.0009
   11DOPE   O14 1303   7.030   3.372   7.266  0.0327  0.0918  0.1114
   11DOPE   O11 1304   6.976   3.357   7.031 -0.0613 -0.7563 -0.2021
   11DOPE   O12 1305   7.201   3.444   7.104  0.3626  0.4589 -0.4842
   11DOPE    C1 1306   7.001   3.219   7.029 -0.8002  0.0733  0.6385
   11DOPE    HA 1307   6.909   3.156   7.026 -1.2761  0.7626  0.7335
   11DOPE    HB 1308   7.052   3.183   7.120 -0.1708 -0.6290  0.0266
   11DOPE    C2 1309   7.085   3.183   6.900  0.0671 -0.1897 -0.3349
   11DOPE    HS 1310   7.184   3.232   6.908  0.4218 -0.9751  0.2380
   11DOPE   O21 1311   7.016   3.229   6.785 -0.0439  0.1180 -0.1738
   11DOPE   C21 1312   7.080   3.307   6.702  0.5823 -0.0240  0.0860
   11DOPE   O22 1313   7.196   3.346   6.716  0.3019  0.4447  0.0914
   11DOPE   C22 1314   6.987   3.344   6.588  0.2686  0.5029  0.1766
   11DOPE   H2R 1315   6.907   3.413   6.623  2.6409  2.9074  1.1990
   11DOPE   H2S 1316   6.937   3.250   6.555 -1.3079  1.4448 -0.2400
   11DOPE    C3 1317   7.104   3.026   6.905  0.5514 -0.6175  0.2847
   11DOPE    HX 1318   7.005   2.981   6.928  1.4697 -2.5229  0.7452
   11DOPE    HY 1319   7.180   3.001   6.982  2.4185  0.4313 -1.1301
   11DOPE   O31 1320   7.137   2.980   6.770  0.3019  0.2959 -0.2261
   11DOPE   C31 1321   7.264   2.965   6.748  0.3864 -0.4560  0.2224
   11DOPE   O32 1322   7.349   3.007   6.823 -0.6978  0.4294 -0.2280
   11DOPE   C32 1323   7.276   2.891   6.614  0.1928 -0.6135 -1.1356
   11DOPE   H2X 1324   7.276   2.782   6.634 -1.1635 -0.4522 -0.1446
   11DOPE   H2Y 1325   7.187   2.921   6.554 -0.6616 -0.4892  0.1566
   11DOPE   C23 1326   7.060   3.409   6.471 -0.6029  1.0832  0.6833
   11DOPE   H3R 1327   7.138   3.336   6.441 -3.6979 -2.0745 -0.2559
   11DOPE   H3S 1328   7.105   3.505   6.506  2.1030 -0.5059  1.9123
   11DOPE   C24 1329   6.974   3.420   6.345  0.2932  0.1513  0.4384
   11DOPE   H4R 1330   6.905   3.333   6.345 -0.2309  0.5303  2.0639
   11DOPE   H4S 1331   7.041   3.405   6.258 -0.8600 -2.1625 -0.1341
   11DOPE   C25 1332   6.888   3.547   6.329 -0.2983 -0.6150 -0.7072
   11DOPE   H5R 1333   6.838   3.553   6.428  1.0447  1.4709 -0.0924
   11DOPE   H5S 1334   6.806   3.551   6.255 -0.1934  1.1478 -0.7739
   11DOPE   C26 1335   6.970   3.677   6.294  0.0230  0.1105  0.1387
   11DOPE   H6R 1336   7.066   3.669   6.349 -0.2772  0.9375  0.8080
   11DOPE   H6S 1337   6.905   3.764   6.320  0.3491  1.1141 -2.1553
   11DOPE   C27 1338   7.000   3.697   6.150 -0.2431  0.2727 -0.8351
   11DOPE   H7R 1339   7.067   3.614   6.120 -1.6076 -1.9904  1.9765
   11DOPE   H7S 1340   7.060   3.790   6.142  1.0929 -0.3995  0.8247
   11DOPE   C28 1341   6.884   3.725   6.051 -0.5936  0.2788 -0.3348
   11DOPE   H8R 1342   6.939   3.773   5.967 -0.1392 -0.1220 -0.2648
   11DOPE   H8S 1343   6.825   3.803   6.104 -0.5618 -1.1881  2.0180
   11DOPE   C29 1344   6.795   3.614   5.997 -0.2309 -0.0798 -0.1040
   11DOPE   H9R 1345   6.709   3.583   6.058  1.8265 -2.7737  1.6787
   11DOPE  C210 1346   6.824   3.539   5.892  0.4036  0.0486 -0.3240
   11DOPE  H10R 1347   6.743   3.469   5.864  1.2457 -1.6364  1.2267
   11DOPE  C211 1348   6.942   3.555   5.796  0.5466 -0.4987  0.1268
   11DOPE  H11R 1349   6.978   3.452   5.773  1.5696 -0.7531  2.5682
   11DOPE  H11S 1350   7.028   3.608   5.843  0.2721 -2.0400  2.5205
   11DOPE  C212 1351   6.903   3.623   5.660 -0.2758  1.1984 -0.0045
   11DOPE  H12R 1352   6.992   3.608   5.596 -1.7493 -2.5839 -1.4926
   11DOPE  H12S 1353   6.888   3.731   5.679  0.6825  1.4507 -0.6296
   11DOPE  C213 1354   6.778   3.574   5.582 -0.1267  0.0385 -0.5284
   11DOPE  H13R 1355   6.683   3.586   5.639 -0.0859 -2.8797  0.2810
   11DOPE  H13S 1356   6.793   3.465   5.567  2.2893  0.2812 -0.3539
   11DOPE  C214 1357   6.762   3.632   5.439 -0.1924 -0.3697 -0.1896
   11DOPE  H14R 1358   6.796   3.737   5.432  0.5943 -0.7612 -3.6503
   11DOPE  H14S 1359   6.657   3.618   5.407 -0.2195 -0.9981  0.1508
   11DOPE  C215 1360   6.829   3.560   5.328 -0.1546  0.5751  0.4646
   11DOPE  H15R 1361   6.780   3.460   5.323  1.4407 -0.2177 -4.1971
   11DOPE  H15S 1362   6.938   3.543   5.337 -0.1371  0.2637 -0.2140
   11DOPE  C216 1363   6.812   3.622   5.188 -0.0158 -0.2951 -0.0700
   11DOPE  H16R 1364   6.858   3.722   5.170 -2.1087  0.7734  0.1944
   11DOPE  H16S 1365   6.705   3.629   5.158  0.3371 -0.9194 -1.5554
   11DOPE  C217 1366   6.867   3.524   5.078  0.1241  0.1421 -0.0326
   11DOPE  H17R 1367   6.845   3.417   5.095 -0.1146 -0.0604 -1.4601
   11DOPE  H17S 1368   6.978   3.534   5.083  0.3191 -0.0990 -2.5334
   11DOPE  C218 1369   6.825   3.558   4.938  0.2179  0.3314 -0.0586
   11DOPE  H18R 1370   6.715   3.540   4.931  0.4387 -1.0348 -0.3579
   11DOPE  H18S 1371   6.868   3.500   4.854 -0.5652 -1.6150  0.8267
   11DOPE  H18T 1372   6.826   3.667   4.918 -0.9528  0.4877  0.6327
   11DOPE   C33 1373   7.402   2.941   6.534 -0.6302  0.3207  0.4183
   11DOPE   H3X 1374   7.504   2.905   6.558  0.2992  2.9461  0.6891
   11DOPE   H3Y 1375   7.415   3.051   6.544 -2.7450  0.6420  0.0501
   11DOPE   C34 1376   7.378   2.921   6.383 -0.0705  0.4506 -0.3175
   11DOPE   H4X 1377   7.370   2.811   6.376  0.5035  0.4251 -0.7123
   11DOPE   H4Y 1378   7.282   2.967   6.351 -0.1285  2.6327  2.6169
   11DOPE   C35 1379   7.498   2.975   6.292 -0.5724 -0.2824 -0.0802
   11DOPE   H5X 1380   7.552   3.057   6.344 -0.5419  0.1697 -0.8108
   11DOPE   H5Y 1381   7.461   3.020   6.197  2.3567  1.3421 -0.5816
   11DOPE   C36 1382   7.601   2.869   6.247  0.0607 -0.4971 -0.2389
   11DOPE   H6X 1383   7.553   2.772   6.218  2.2979 -1.3701 -1.2400
   11DOPE   H6Y 1384   7.662   2.834   6.333  0.7806 -1.0362 -0.9514
   11DOPE   C37 1385   7.683   2.924   6.138 -0.3085 -0.1441  0.4629
   11DOPE   H7X 1386   7.673   3.035   6.136 -1.3260 -0.2060  1.0184
   11DOPE   H7Y 1387   7.786   2.883   6.148 -0.4796 -0.7965 -0.3151
   11DOPE   C38 1388   7.634   2.874   6.003  0.5636  0.0378  0.6340
   11DOPE   H8X 1389   7.532   2.918   6.005  0.8225  0.6208  1.7115
   11DOPE   H8Y 1390   7.625   2.765   5.984 -0.3758  0.1782  0.1875
   11DOPE   C39 1391   7.710   2.946   5.891  0.9263  0.8241  0.4970
   11DOPE   H9X 1392   7.767   3.038   5.912  0.2841  1.6754 -1.2651
   11DOPE  C310 1393   7.736   2.886   5.770  0.1172 -0.7137 -0.2220
   11DOPE  H10X 1394   7.803   2.938   5.701  0.2328 -1.5080 -0.7231
   11DOPE  C311 1395   7.691   2.754   5.723  0.6078  0.2463  0.1948
   11DOPE  H11X 1396   7.756   2.672   5.762  0.3024 -0.2629 -0.3395
   11DOPE  H11Y 1397   7.594   2.732   5.773  0.0610  1.8155 -0.1241
   11DOPE  C312 1398   7.669   2.735   5.569  0.1732 -0.2633  0.3125
   11DOPE  H12X 1399   7.611   2.821   5.529 -2.0381 -1.8323 -0.0364
   11DOPE  H12Y 1400   7.601   2.651   5.545 -1.5922  0.5270  2.2202
   11DOPE  C313 1401   7.806   2.725   5.494 -0.1326  0.1332  0.2650
   11DOPE  H13X 1402   7.866   2.818   5.498  5.8943 -3.1928 -1.3438
   11DOPE  H13Y 1403   7.868   2.647   5.543 -2.5008 -2.7453 -0.9769
   11DOPE  C314 1404   7.796   2.692   5.342  0.4968 -0.8695  0.4127
   11DOPE  H14X 1405   7.746   2.777   5.292  1.1332  0.4970  1.9997
   11DOPE  H14Y 1406   7.736   2.600   5.325 -2.3987  1.1767 -1.1939
   11DOPE  C315 1407   7.931   2.674   5.273  0.5068 -0.3788  0.0226
   11DOPE  H15X 1408   8.010   2.611   5.319 -0.6051 -0.4177  1.9878
   11DOPE  H15Y 1409   7.986   2.769   5.258 -0.3256  0.3159  1.2306
   11DOPE  C316 1410   7.914   2.629   5.123  0.0556 -0.2090 -0.1208
   11DOPE  H16X 1411   7.844   2.544   5.106 -1.3199  0.7106  0.7045
   11DOPE  H16Y 1412   8.012   2.609   5.076  0.1592  1.9570 -0.9281
   11DOPE  C317 1413   7.851   2.748   5.041 -0.6513 -0.4552 -0.1554
   11DOPE  H17X 1414   7.751   2.780   5.078  0.1460  1.2713  0.6493
   11DOPE  H17Y 1415   7.920   2.835   5.042 -2.6214  1.2249  1.8242
   11DOPE  C318 1416   7.836   2.719   4.891 -0.5252 -0.3395 -0.2010
   11DOPE  H18X 1417   7.934   2.697   4.845 -0.5451 -1.2465  0.1722
   11DOPE  H18Y 1418   7.758   2.645   4.864 -1.0022 -0.3926  1.2438
   11DOPE  H18Z 1419   7.789   2.810   4.848 -0.0404 -0.1349 -0.2984
   12DOPE     N 1420   3.003   4.703   6.850  0.1374 -0.1661  0.1945
   12DOPE   HN1 1421   2.969   4.607   6.870 -1.1960  0.0617 -0.8360
   12DOPE   HN2 1422   3.096   4.720   6.894 -0.3097 -2.8609  2.4551
   12DOPE   HN3 1423   2.935   4.770   6.890 -1.9773 -1.4665 -1.0398
   12DOPE   C12 1424   2.999   4.749   6.710 -0.1726 -0.1894 -0.2077
   12DOPE  H12A 1425   2.904   4.711   6.667 -2.6253 -1.7823  5.6310
   12DOPE  H12B 1426   3.091   4.717   6.655 -0.3175 -0.8807 -0.0608
   12DOPE   C11 1427   3.005   4.905   6.704 -0.2740 -0.4231 -0.3593
   12DOPE  H11A 1428   2.923   4.953   6.763  0.2981 -0.2410  0.3013
   12DOPE  H11B 1429   2.993   4.928   6.596 -1.3933  0.8702  0.0144
   12DOPE     P 1430   3.190   5.094   6.735 -0.1765  0.6265  0.2079
   12DOPE   O13 1431   3.332   5.084   6.788  0.1554 -0.3558  0.6604
   12DOPE   O14 1432   3.103   5.185   6.810 -0.4126 -0.2429 -0.4688
   12DOPE   O11 1433   3.184   5.127   6.582  0.0837 -0.2162 -0.1858
   12DOPE   O12 1434   3.134   4.951   6.745  0.0020  0.4638  0.8626
   12DOPE    C1 1435   3.235   5.041   6.475  0.3817 -0.3304 -0.5246
   12DOPE    HA 1436   3.157   4.968   6.444 -1.5720  1.0248  0.9708
   12DOPE    HB 1437   3.333   5.005   6.513  0.4764  2.3323  2.1106
   12DOPE    C2 1438   3.284   5.125   6.351 -0.1714  0.1614  0.7546
   12DOPE    HS 1439   3.340   5.212   6.393 -1.2838  0.5447  1.4916
   12DOPE   O21 1440   3.168   5.168   6.275 -0.3044 -0.0414  0.0587
   12DOPE   C21 1441   3.148   5.290   6.244 -0.0638 -0.4047 -0.2573
   12DOPE   O22 1442   3.220   5.384   6.274  0.0728 -0.0510 -0.0098
   12DOPE   C22 1443   3.012   5.296   6.163  0.7026  0.1535 -0.6017
   12DOPE   H2R 1444   2.932   5.293   6.241 -0.2118 -0.2770 -1.5298
   12DOPE   H2S 1445   3.001   5.208   6.096 -1.6818 -0.1395  0.0573
   12DOPE    C3 1446   3.375   5.048   6.259 -0.0141 -0.3018  0.4753
   12DOPE    HX 1447   3.314   4.964   6.219  1.1023 -1.1495  0.4738
   12DOPE    HY 1448   3.466   5.011   6.312 -0.1283 -0.6049  0.4661
   12DOPE   O31 1449   3.406   5.122   6.140 -0.0632  0.4910  0.5236
   12DOPE   C31 1450   3.503   5.212   6.148  1.1148  1.0413 -0.2803
   12DOPE   O32 1451   3.579   5.227   6.246  0.6973  0.3806 -0.2925
   12DOPE   C32 1452   3.520   5.273   6.011  0.1296 -0.0194 -0.4370
   12DOPE   H2X 1453   3.537   5.190   5.939 -1.0834  0.1727 -0.9666
   12DOPE   H2Y 1454   3.422   5.319   5.986  0.5564  1.3915  0.3183
   12DOPE   C23 1455   2.990   5.416   6.075  0.2488 -0.1373  0.6940
   12DOPE   H3R 1456   2.993   5.512   6.131 -0.8566  1.0539 -1.1906
   12DOPE   H3S 1457   2.888   5.402   6.035  0.8566 -2.1777 -0.2888
   12DOPE   C24 1458   3.081   5.425   5.950 -0.2179  0.4338 -0.5580
   12DOPE   H4R 1459   3.072   5.329   5.896 -1.4254  0.1074  0.2152
   12DOPE   H4S 1460   3.186   5.449   5.980 -0.7296 -0.3006  2.0261
   12DOPE   C25 1461   3.055   5.546   5.856 -0.0223  0.4083  0.1759
   12DOPE   H5R 1462   3.050   5.628   5.930 -0.6928  0.3566  0.1933
   12DOPE   H5S 1463   2.954   5.540   5.809  0.5159  0.4818 -1.0272
   12DOPE   C26 1464   3.157   5.584   5.747 -0.6600  0.6249  0.1308
   12DOPE   H6R 1465   3.158   5.504   5.670 -0.8146  0.1028  0.6722
   12DOPE   H6S 1466   3.257   5.586   5.794 -0.7088  1.3953  0.2215
   12DOPE   C27 1467   3.132   5.718   5.671 -0.3572 -0.4026  0.2325
   12DOPE   H7R 1468   3.231   5.761   5.645 -0.6399 -0.2572 -0.6147
   12DOPE   H7S 1469   3.090   5.792   5.743  0.5401  1.2601 -0.9165
   12DOPE   C28 1470   3.059   5.707   5.535 -0.4160 -0.1331 -0.4079
   12DOPE   H8R 1471   2.965   5.650   5.545 -0.0888 -0.3744  1.9554
   12DOPE   H8S 1472   3.124   5.640   5.475  0.0585 -0.1994  0.1674
   12DOPE   C29 1473   3.048   5.836   5.463  0.8531  0.1114 -0.1023
   12DOPE   H9R 1474   3.138   5.866   5.407  0.7487 -0.0521 -0.3566
   12DOPE  C210 1475   2.937   5.913   5.470 -0.2597  0.4757  0.5532
   12DOPE  H10R 1476   2.932   5.996   5.399  0.4145 -1.1717 -1.5123
   12DOPE  C211 1477   2.807   5.895   5.547 -0.1572  0.1186 -0.1281
   12DOPE  H11R 1478   2.832   5.813   5.618  0.5664 -1.6070 -2.2440
   12DOPE  H11S 1479   2.726   5.853   5.484  0.0672 -0.4770 -0.0285
   12DOPE  C212 1480   2.763   6.028   5.614  0.5288  0.3209  0.4483
   12DOPE  H12R 1481   2.733   6.094   5.530 -0.3558 -1.9979 -1.1300
   12DOPE  H12S 1482   2.851   6.067   5.670 -0.1656  1.0255  1.0843
   12DOPE  C213 1483   2.643   6.012   5.709  0.0476  0.3846 -0.6746
   12DOPE  H13R 1484   2.544   6.010   5.658 -0.0703  1.5325 -0.5058
   12DOPE  H13S 1485   2.641   6.105   5.769 -1.5615 -0.2439  0.3290
   12DOPE  C214 1486   2.657   5.895   5.801  0.2614  0.2255 -0.4294
   12DOPE  H14R 1487   2.670   5.797   5.751  0.8896 -0.4343  0.9731
   12DOPE  H14S 1488   2.568   5.892   5.866  0.4249 -0.4074 -0.2276
   12DOPE  C215 1489   2.779   5.915   5.897 -0.1965  0.7079  0.0791
   12DOPE  H15R 1490   2.767   6.011   5.950  0.5974 -0.4654  2.5263
   12DOPE  H15S 1491   2.877   5.915   5.844  1.6343  0.2645  3.2072
   12DOPE  C216 1492   2.768   5.821   6.015  0.2428 -0.1172  0.2905
   12DOPE  H16R 1493   2.793   5.718   5.982 -1.3722 -0.0726 -1.1449
   12DOPE  H16S 1494   2.673   5.821   6.072  0.2682  4.3005  0.6506
   12DOPE  C217 1495   2.872   5.852   6.123 -0.5870 -0.1841 -0.0180
   12DOPE  H17R 1496   2.974   5.875   6.084  0.0190 -0.9560  1.0528
   12DOPE  H17S 1497   2.883   5.758   6.181  0.2085  1.0739  1.9864
   12DOPE  C218 1498   2.839   5.968   6.210 -0.5853  0.0805  0.7454
   12DOPE  H18R 1499   2.822   6.063   6.155 -3.2066  0.5686  2.2234
   12DOPE  H18S 1500   2.920   5.976   6.286 -0.3745  0.5833  0.4727
   12DOPE  H18T 1501   2.753   5.945   6.277  0.0356 -0.9024  1.2238
   12DOPE   C33 1502   3.635   5.381   6.005  0.2144  0.5897 -0.4545
   12DOPE   H3X 1503   3.736   5.354   6.043 -0.3495 -0.0142  0.6995
   12DOPE   H3Y 1504   3.600   5.472   6.058 -2.3215  0.3211 -1.5541
   12DOPE   C34 1505   3.662   5.416   5.856 -0.4159 -0.1268  0.5014
   12DOPE   H4X 1506   3.751   5.483   5.851  0.6857 -1.5338  0.5261
   12DOPE   H4Y 1507   3.695   5.318   5.814  3.6914  0.5853  1.6479
   12DOPE   C35 1508   3.541   5.479   5.799  0.3967 -0.2592  0.2809
   12DOPE   H5X 1509   3.480   5.530   5.877 -0.9985 -0.9514 -0.3303
   12DOPE   H5Y 1510   3.471   5.399   5.767  0.6920  0.0363 -1.1913
   12DOPE   C36 1511   3.577   5.582   5.687  0.8487  0.3110  0.1150
   12DOPE   H6X 1512   3.482   5.600   5.633  0.5392 -0.2041  0.4799
   12DOPE   H6Y 1513   3.659   5.549   5.620  0.4181 -1.0857  0.2619
   12DOPE   C37 1514   3.622   5.714   5.760 -0.9477  1.0009 -0.2641
   12DOPE   H7X 1515   3.579   5.722   5.862  0.0804 -0.7222  0.3507
   12DOPE   H7Y 1516   3.730   5.705   5.785 -1.3261 -1.7500  0.7981
   12DOPE   C38 1517   3.587   5.846   5.690  0.0835 -0.3555 -0.3012
   12DOPE   H8X 1518   3.631   5.919   5.761  0.7157 -0.1982 -0.8461
   12DOPE   H8Y 1519   3.478   5.864   5.687  0.0133 -0.5826  0.5197
   12DOPE   C39 1520   3.656   5.856   5.558  0.4576 -0.8417  0.2052
   12DOPE   H9X 1521   3.741   5.786   5.556  0.1998 -1.1388 -1.1809
   12DOPE  C310 1522   3.613   5.917   5.441 -0.1905 -0.2981 -0.5231
   12DOPE  H10X 1523   3.669   5.913   5.347  1.6593  2.2565  0.3571
   12DOPE  C311 1524   3.486   5.998   5.420 -0.6125  0.5825 -0.3930
   12DOPE  H11X 1525   3.425   5.932   5.354 -0.6939  1.6522 -1.4280
   12DOPE  H11Y 1526   3.426   6.020   5.511  1.3998  0.3862  1.0273
   12DOPE  C312 1527   3.510   6.128   5.341  0.1183 -0.6599  0.2304
   12DOPE  H12X 1528   3.573   6.198   5.400 -0.7156  0.6586 -0.3778
   12DOPE  H12Y 1529   3.409   6.172   5.328 -0.0881 -1.6244 -1.9317
   12DOPE  C313 1530   3.571   6.109   5.203 -0.2785  0.4510  0.1708
   12DOPE  H13X 1531   3.665   6.050   5.211 -1.6827 -1.9829 -0.0467
   12DOPE  H13Y 1532   3.511   6.038   5.142  2.2449 -2.1308  0.4540
   12DOPE  C314 1533   3.593   6.244   5.133 -0.7605 -0.9128  0.1570
   12DOPE  H14X 1534   3.647   6.320   5.193  1.6714 -1.1284 -1.5867
   12DOPE  H14Y 1535   3.496   6.285   5.098  0.0243  0.9029 -0.0034
   12DOPE  C315 1536   3.686   6.216   5.016  0.2991  0.2659  0.0783
   12DOPE  H15X 1537   3.785   6.194   5.061  0.5764  1.7106  0.2260
   12DOPE  H15Y 1538   3.692   6.312   4.961  1.8806 -0.1960 -0.6238
   12DOPE  C316 1539   3.639   6.107   4.919 -0.2087 -0.1911  0.1128
   12DOPE  H16X 1540   3.533   6.112   4.885 -0.3133 -0.9410  0.3028
   12DOPE  H16Y 1541   3.633   6.006   4.965 -0.7447  0.0731  0.6406
   12DOPE  C317 1542   3.731   6.110   4.797 -0.7553 -0.1296 -0.2850
   12DOPE  H17X 1543   3.733   6.218   4.768  1.2246  0.4215  1.5814
   12DOPE  H17Y 1544   3.831   6.087   4.841 -1.0230  1.3319  1.1875
   12DOPE  C318 1545   3.684   6.033   4.678 -0.7958 -0.6260  0.0172
   12DOPE  H18X 1546   3.749   6.053   4.590  1.4900 -1.2977  1.4737
   12DOPE  H18Y 1547   3.689   5.923   4.694 -0.5082 -0.4336  1.3734
   12DOPE  H18Z 1548   3.581   6.068   4.654  0.3785  3.3041 -0.0151
   13DOPE     N 1549   3.264   7.117   6.398 -0.1684  0.0764 -0.1111
   13DOPE   HN1 1550   3.309   7.065   6.320  0.2903 -0.1659  0.3031
   13DOPE   HN2 1551   3.213   7.201   6.366 -2.1705 -1.1879 -0.4279
   13DOPE   HN3 1552   3.330   7.161   6.465 -2.5457  1.6216  1.3928
   13DOPE   C12 1553   3.171   7.029   6.473  0.2026  0.5642 -0.3548
   13DOPE  H12A 1554   3.226   6.937   6.504 -2.8031 -1.1127  0.3766
   13DOPE  H12B 1555   3.084   7.014   6.406  0.3447 -5.0581  0.2645
   13DOPE   C11 1556   3.136   7.101   6.598 -0.4448 -0.0681 -0.5745
   13DOPE  H11A 1557   3.235   7.130   6.640 -0.0280 -1.5249 -0.4939
   13DOPE  H11B 1558   3.092   7.040   6.680  2.5235  0.3996  1.5462
   13DOPE     P 1559   2.926   7.239   6.664 -0.4686  0.2751 -0.0643
   13DOPE   O13 1560   2.961   7.285   6.801  0.5302  0.1443  0.3810
   13DOPE   O14 1561   2.837   7.119   6.671 -0.4715 -0.0688  0.0483
   13DOPE   O11 1562   2.844   7.358   6.598 -0.4416  0.3790  0.1608
   13DOPE   O12 1563   3.053   7.218   6.577  0.0881  0.0844 -0.0581
   13DOPE    C1 1564   2.896   7.491   6.589  0.7306 -0.0210  0.4505
   13DOPE    HA 1565   2.948   7.519   6.683 -0.0657 -1.6014  1.4144
   13DOPE    HB 1566   2.806   7.556   6.592  0.9301  0.2781 -0.0030
   13DOPE    C2 1567   2.988   7.507   6.465 -0.3845 -0.8392 -0.2505
   13DOPE    HS 1568   3.062   7.430   6.493 -0.2161 -0.2988  0.8421
   13DOPE   O21 1569   3.041   7.648   6.461  0.5904  0.0012 -0.1548
   13DOPE   C21 1570   3.170   7.651   6.439 -0.8157  0.4211  0.0228
   13DOPE   O22 1571   3.238   7.555   6.397  0.2196  0.1016 -0.0526
   13DOPE   C22 1572   3.217   7.796   6.443 -0.0825 -0.2942 -0.2761
   13DOPE   H2R 1573   3.310   7.805   6.503 -0.8841  1.5046  0.7961
   13DOPE   H2S 1574   3.148   7.859   6.504 -1.1770 -0.5711 -1.1926
   13DOPE    C3 1575   2.925   7.456   6.331  0.1096 -0.3357  0.1254
   13DOPE    HX 1576   2.830   7.510   6.313  1.2036  1.4771 -0.4167
   13DOPE    HY 1577   2.899   7.349   6.346 -1.7478  0.0439 -0.1345
   13DOPE   O31 1578   3.014   7.493   6.222  0.3044 -0.4163  0.0302
   13DOPE   C31 1579   3.078   7.384   6.178 -0.0713  0.0028  0.0621
   13DOPE   O32 1580   3.078   7.277   6.235  0.2091 -0.5106  0.3809
   13DOPE   C32 1581   3.141   7.429   6.040 -0.5812 -0.2805 -0.1276
   13DOPE   H2X 1582   3.063   7.419   5.962 -0.5630  1.6873 -0.4323
   13DOPE   H2Y 1583   3.169   7.535   6.058  0.7278 -0.9619  2.4067
   13DOPE   C23 1584   3.265   7.845   6.309  0.1041  0.5125 -1.0902
   13DOPE   H3R 1585   3.343   7.774   6.273  0.3100 -0.2373  0.7068
   13DOPE   H3S 1586   3.317   7.943   6.311 -0.1009  0.6517 -2.1389
   13DOPE   C24 1587   3.161   7.841   6.195 -0.1061 -0.0123  0.3572
   13DOPE   H4R 1588   3.090   7.924   6.215  0.3476  0.5795 -0.4365
   13DOPE   H4S 1589   3.118   7.739   6.202 -0.2841  0.1235  1.4867
   13DOPE   C25 1590   3.211   7.864   6.048 -0.4023  0.2612  0.7817
   13DOPE   H5R 1591   3.118   7.871   5.987 -0.9382 -0.2047  1.5218
   13DOPE   H5S 1592   3.255   7.766   6.020 -1.4023 -0.0057  0.0957
   13DOPE   C26 1593   3.306   7.981   6.010 -0.0485  0.3256 -0.1355
   13DOPE   H6R 1594   3.261   8.079   6.039  0.5790  0.9573 -1.2142
   13DOPE   H6S 1595   3.323   7.983   5.900 -1.0573 -0.9133 -0.3302
   13DOPE   C27 1596   3.448   7.967   6.070 -0.9253  0.8594  0.5611
   13DOPE   H7R 1597   3.470   7.859   6.055 -1.9196  0.4095  2.0417
   13DOPE   H7S 1598   3.460   7.978   6.180  2.7024 -1.0249  0.4971
   13DOPE   C28 1599   3.561   8.043   5.999 -0.1555 -0.1879  0.5155
   13DOPE   H8R 1600   3.572   8.008   5.894 -0.4879 -0.3669  0.5405
   13DOPE   H8S 1601   3.655   8.009   6.047 -1.0624 -2.4369  0.8235
   13DOPE   C29 1602   3.545   8.194   6.009  0.6234  0.0658 -0.5987
   13DOPE   H9R 1603   3.530   8.247   6.104  0.0820  1.1574 -1.2730
   13DOPE  C210 1604   3.514   8.272   5.899  0.1155 -0.4314  0.2593
   13DOPE  H10R 1605   3.498   8.381   5.908  0.9323 -0.3566  1.0348
   13DOPE  C211 1606   3.525   8.243   5.748  0.0132 -0.1510 -0.4165
   13DOPE  H11R 1607   3.574   8.144   5.734 -2.3977 -1.5491  0.3727
   13DOPE  H11S 1608   3.573   8.321   5.685 -1.0372  0.5037 -0.4318
   13DOPE  C212 1609   3.386   8.228   5.685  0.2965  0.3262  0.1074
   13DOPE  H12R 1610   3.339   8.136   5.725  0.5904  0.7589  1.4883
   13DOPE  H12S 1611   3.382   8.228   5.574  2.2617 -0.7743 -0.0108
   13DOPE  C213 1612   3.279   8.340   5.722  0.5073 -0.3847 -0.5079
   13DOPE  H13R 1613   3.340   8.430   5.699  2.0430 -1.2896 -0.1486
   13DOPE  H13S 1614   3.248   8.344   5.828  1.3394  2.5165 -0.2844
   13DOPE  C214 1615   3.154   8.340   5.640 -0.7218 -0.3537 -0.6422
   13DOPE  H14R 1616   3.095   8.247   5.656  2.1058 -2.7789 -3.1234
   13DOPE  H14S 1617   3.188   8.334   5.535 -0.7945  0.9281 -0.7451
   13DOPE  C215 1618   3.062   8.465   5.650  0.2230 -1.0227  0.0048
   13DOPE  H15R 1619   3.119   8.559   5.636 -1.4951 -0.3215 -3.4397
   13DOPE  H15S 1620   3.023   8.455   5.754 -0.4035 -0.2621 -0.1462
   13DOPE  C216 1621   2.946   8.469   5.550  0.4689 -0.4068 -0.5788
   13DOPE  H16R 1622   2.890   8.376   5.576  0.4422 -0.6390 -1.4299
   13DOPE  H16S 1623   2.976   8.450   5.444 -1.7728  0.2767 -1.4023
   13DOPE  C217 1624   2.860   8.594   5.573  0.5731  0.0470  0.1103
   13DOPE  H17R 1625   2.931   8.679   5.586  2.6700 -1.5835 -0.1180
   13DOPE  H17S 1626   2.790   8.597   5.658 -0.8490  0.1530 -1.0247
   13DOPE  C218 1627   2.771   8.616   5.455  0.8480  0.2461 -0.6067
   13DOPE  H18R 1628   2.831   8.617   5.362 -1.2605 -2.2543 -2.1341
   13DOPE  H18S 1629   2.727   8.714   5.483  0.0513 -0.3385  0.2697
   13DOPE  H18T 1630   2.694   8.540   5.431  0.9277 -0.0810  0.1291
   13DOPE   C33 1631   3.268   7.358   5.993  0.2602  0.2754 -0.2281
   13DOPE   H3X 1632   3.228   7.255   5.979 -1.7831  1.1461 -1.2694
   13DOPE   H3Y 1633   3.350   7.353   6.068  1.9801 -0.8315 -2.1121
   13DOPE   C34 1634   3.329   7.413   5.866 -0.4115  0.0208 -0.3416
   13DOPE   H4X 1635   3.415   7.354   5.829  1.6738  1.6464  1.6141
   13DOPE   H4Y 1636   3.254   7.418   5.784  0.7427  2.0346 -1.3541
   13DOPE   C35 1637   3.366   7.555   5.881 -0.4133  0.3166 -0.1785
   13DOPE   H5X 1638   3.415   7.573   5.979  0.1378  0.6371 -0.5043
   13DOPE   H5Y 1639   3.285   7.629   5.862 -0.3202  0.5686  0.3943
   13DOPE   C36 1640   3.472   7.588   5.780  0.0836  0.3912 -0.4063
   13DOPE   H6X 1641   3.446   7.538   5.684 -1.2933 -2.0837  1.1356
   13DOPE   H6Y 1642   3.568   7.543   5.812  0.5895  1.9810  0.3918
   13DOPE   C37 1643   3.488   7.735   5.765 -0.7659  0.4392  0.1191
   13DOPE   H7X 1644   3.390   7.783   5.786 -0.2688  1.2802  0.6130
   13DOPE   H7Y 1645   3.557   7.775   5.844 -0.5140  0.3029 -0.0311
   13DOPE   C38 1646   3.544   7.803   5.637 -0.4284 -0.2115  0.1579
   13DOPE   H8X 1647   3.587   7.901   5.669  1.4071 -2.2009  4.7170
   13DOPE   H8Y 1648   3.466   7.821   5.560  1.3555  3.4804 -1.0142
   13DOPE   C39 1649   3.649   7.715   5.572  0.0309  0.2843 -0.2493
   13DOPE   H9X 1650   3.616   7.664   5.480  0.1863 -0.3258  0.0293
   13DOPE  C310 1651   3.772   7.689   5.621 -0.5664  0.0090  0.4029
   13DOPE  H10X 1652   3.846   7.629   5.565 -1.9710 -1.4129  0.0061
   13DOPE  C311 1653   3.829   7.751   5.748  0.0888  0.4421  0.0516
   13DOPE  H11X 1654   3.754   7.798   5.816  0.6947 -0.4111  1.3624
   13DOPE  H11Y 1655   3.897   7.683   5.803  0.3610  1.6623  1.2723
   13DOPE  C312 1656   3.928   7.862   5.720  0.6093  0.4623  0.8436
   13DOPE  H12X 1657   3.879   7.944   5.663 -1.8448 -2.1520 -1.0401
   13DOPE  H12Y 1658   3.998   7.821   5.644 -1.4066  1.1831 -1.5401
   13DOPE  C313 1659   4.011   7.910   5.841  0.7384  0.5237  0.0727
   13DOPE  H13X 1660   4.054   7.821   5.893  0.3218 -0.1972 -0.7966
   13DOPE  H13Y 1661   4.101   7.967   5.810  2.2327 -0.3648  2.4771
   13DOPE  C314 1662   3.942   8.007   5.935  0.7151 -0.1207  0.3654
   13DOPE  H14X 1663   3.847   7.963   5.973 -1.7194  1.9743 -2.7425
   13DOPE  H14Y 1664   3.905   8.093   5.875 -1.4343 -0.7742  0.6862
   13DOPE  C315 1665   4.027   8.062   6.046  0.5853 -1.1643 -0.1215
   13DOPE  H15X 1666   3.982   8.158   6.081  1.7327  0.8264 -3.6676
   13DOPE  H15Y 1667   4.123   8.091   6.000  0.0915 -0.3637 -0.6708
   13DOPE  C316 1668   4.056   7.976   6.171  0.8448 -0.4241  0.1880
   13DOPE  H16X 1669   4.100   7.882   6.133  0.4490 -1.8564  3.0303
   13DOPE  H16Y 1670   3.961   7.943   6.218  1.3427 -3.3958 -0.7434
   13DOPE  C317 1671   4.154   8.045   6.279 -0.2442 -0.2389 -0.0422
   13DOPE  H17X 1672   4.259   8.061   6.246  0.3847  3.5959  3.1205
   13DOPE  H17Y 1673   4.114   8.146   6.303  2.2476  0.7219  0.3138
   13DOPE  C318 1674   4.150   7.978   6.412  0.5925  0.1547 -0.1963
   13DOPE  H18X 1675   4.049   7.988   6.457  1.9411 -2.1119  3.9266
   13DOPE  H18Y 1676   4.174   7.871   6.395 -0.8601 -0.3315  0.5931
   13DOPE  H18Z 1677   4.222   8.016   6.488  0.5520 -2.6929  1.4139
   14DOPE     N 1678   6.686   5.930   7.129  0.2460 -0.0347  0.0796
   14DOPE   HN1 1679   6.685   5.865   7.209  1.1064 -0.5300 -0.2999
   14DOPE   HN2 1680   6.783   5.968   7.130  0.3383 -0.2669  1.0630
   14DOPE   HN3 1681   6.616   6.007   7.136 -0.7655 -0.9999  0.8904
   14DOPE   C12 1682   6.645   5.864   6.995 -0.5761 -0.7417 -0.1245
   14DOPE  H12A 1683   6.669   5.934   6.912  0.0912 -1.1168 -0.2539
   14DOPE  H12B 1684   6.538   5.833   6.998 -0.7857 -0.1001 -0.5267
   14DOPE   C11 1685   6.716   5.725   6.981 -0.6056  0.4810 -0.3618
   14DOPE  H11A 1686   6.826   5.741   6.973 -0.7503  0.9900 -1.6048
   14DOPE  H11B 1687   6.688   5.671   6.888 -0.7472  0.5169 -0.3407
   14DOPE     P 1688   6.761   5.529   7.161  0.1820 -0.1564 -0.1363
   14DOPE   O13 1689   6.710   5.493   7.296  0.1819  0.5102 -0.2353
   14DOPE   O14 1690   6.907   5.555   7.153  0.0467 -0.3216 -0.0183
   14DOPE   O11 1691   6.724   5.417   7.055 -0.5719  0.5073  0.1027
   14DOPE   O12 1692   6.673   5.651   7.098 -0.4201 -0.2155  0.1499
   14DOPE    C1 1693   6.817   5.334   6.982  0.6944  0.7284  0.5034
   14DOPE    HA 1694   6.784   5.229   6.973 -0.5429  1.2263 -1.5353
   14DOPE    HB 1695   6.923   5.336   7.013  1.5039  2.4672 -2.0152
   14DOPE    C2 1696   6.827   5.377   6.828  0.7010 -0.4969  0.0843
   14DOPE    HS 1697   6.859   5.483   6.832  1.5288 -0.7281 -0.2872
   14DOPE   O21 1698   6.694   5.350   6.770 -0.0277 -0.0593 -0.0981
   14DOPE   C21 1699   6.656   5.432   6.680  0.1081 -0.4679  0.8049
   14DOPE   O22 1700   6.712   5.539   6.647  0.4040 -0.1832 -0.4841
   14DOPE   C22 1701   6.535   5.377   6.603 -0.6085 -0.0093  0.1842
   14DOPE   H2R 1702   6.447   5.373   6.671  1.0673  0.9025  2.5426
   14DOPE   H2S 1703   6.564   5.270   6.589  1.1049  0.5185 -0.5393
   14DOPE    C3 1704   6.923   5.295   6.748 -0.4148  1.0307  0.0363
   14DOPE    HX 1705   6.892   5.189   6.749  1.3899  0.4791  0.0957
   14DOPE    HY 1706   7.020   5.300   6.802 -1.1324 -0.0061  1.4762
   14DOPE   O31 1707   6.949   5.343   6.610  0.0060  0.4351  0.0907
   14DOPE   C31 1708   7.029   5.272   6.529  0.4873 -0.0834  0.4871
   14DOPE   O32 1709   7.096   5.179   6.562  0.6671  0.4772  0.3821
   14DOPE   C32 1710   7.027   5.346   6.385 -0.2622  0.2500 -0.1279
   14DOPE   H2X 1711   6.924   5.346   6.345 -0.8471  0.3304  1.3125
   14DOPE   H2Y 1712   7.043   5.453   6.411 -1.2836  0.7741 -1.5392
   14DOPE   C23 1713   6.488   5.438   6.466 -0.2191 -0.1788  0.4668
   14DOPE   H3R 1714   6.500   5.548   6.474  0.3089 -0.0320 -1.7521
   14DOPE   H3S 1715   6.381   5.420   6.442 -0.9942  1.7671  2.1800
   14DOPE   C24 1716   6.567   5.399   6.339 -0.1919 -0.2720 -0.1393
   14DOPE   H4R 1717   6.574   5.289   6.330  1.1985 -0.3379  1.4378
   14DOPE   H4S 1718   6.670   5.433   6.360  0.1813 -0.2866 -1.8470
   14DOPE   C25 1719   6.520   5.469   6.207  0.2349  0.1712 -0.3347
   14DOPE   H5R 1720   6.550   5.574   6.227 -1.3125  0.3639  1.3221
   14DOPE   H5S 1721   6.411   5.470   6.187  0.0868  2.6695  0.2034
   14DOPE   C26 1722   6.606   5.424   6.091 -0.4102  0.4933  0.3745
   14DOPE   H6R 1723   6.706   5.391   6.125  0.6203  1.9313 -1.1252
   14DOPE   H6S 1724   6.611   5.512   6.023 -1.7226 -0.6477 -1.3004
   14DOPE   C27 1725   6.541   5.309   6.009 -0.3224  0.1788 -0.0879
   14DOPE   H7R 1726   6.431   5.322   6.005 -0.5168 -0.9438  1.0304
   14DOPE   H7S 1727   6.557   5.209   6.055  0.0276 -0.3920 -1.3825
   14DOPE   C28 1728   6.588   5.281   5.867 -0.3622 -0.3118  0.6573
   14DOPE   H8R 1729   6.567   5.370   5.804 -1.9936 -2.0368 -1.3731
   14DOPE   H8S 1730   6.512   5.212   5.825 -1.1907  1.6982 -1.3868
   14DOPE   C29 1731   6.728   5.239   5.836  0.6722 -0.0424 -0.7240
   14DOPE   H9R 1732   6.798   5.321   5.856 -1.5520  1.2669  2.5391
   14DOPE  C210 1733   6.776   5.128   5.783 -0.7932 -0.2382 -0.4555
   14DOPE  H10R 1734   6.884   5.113   5.772 -0.9098 -0.3252 -1.5992
   14DOPE  C211 1735   6.689   5.001   5.768  0.1261 -0.3728  0.5602
   14DOPE  H11R 1736   6.591   5.014   5.821  0.2275  1.0284  0.4285
   14DOPE  H11S 1737   6.742   4.913   5.810  0.4950 -1.0134 -1.1591
   14DOPE  C212 1738   6.659   4.968   5.620  0.9130  0.5408  0.1473
   14DOPE  H12R 1739   6.585   5.047   5.595  1.8543  1.3783 -0.0937
   14DOPE  H12S 1740   6.625   4.863   5.628  1.8764  0.0440 -1.9069
   14DOPE  C213 1741   6.775   4.965   5.522 -0.2608  0.1002 -0.3856
   14DOPE  H13R 1742   6.860   4.898   5.548 -0.2966  0.4602  0.7282
   14DOPE  H13S 1743   6.817   5.068   5.522  1.6792 -0.6346  0.5413
   14DOPE  C214 1744   6.747   4.909   5.381 -0.0374 -0.1405  0.2754
   14DOPE  H14R 1745   6.693   4.987   5.323  1.9069  1.1207  0.0845
   14DOPE  H14S 1746   6.677   4.825   5.399  0.3153  0.0238  2.7044
   14DOPE  C215 1747   6.863   4.866   5.295  1.0718 -0.5400  0.5446
   14DOPE  H15R 1748   6.874   4.756   5.303 -2.8604 -1.3084 -1.7380
   14DOPE  H15S 1749   6.951   4.926   5.326 -0.1996  1.8769 -0.2442
   14DOPE  C216 1750   6.836   4.911   5.147 -0.0642  0.3858 -0.5119
   14DOPE  H16R 1751   6.842   5.022   5.153  0.3458  0.3352  4.3352
   14DOPE  H16S 1752   6.735   4.873   5.119 -0.2936  0.9138 -0.4128
   14DOPE  C217 1753   6.945   4.857   5.053 -0.1100  0.3446 -0.8174
   14DOPE  H17R 1754   6.953   4.748   5.071 -0.0660  0.1641 -1.8691
   14DOPE  H17S 1755   7.045   4.903   5.064  0.6859 -1.1381 -1.5928
   14DOPE  C218 1756   6.906   4.868   4.899 -0.3241  0.3655 -0.2239
   14DOPE  H18R 1757   6.978   4.810   4.838 -2.2933 -1.0565 -1.3050
   14DOPE  H18S 1758   6.899   4.975   4.870  0.3822  0.5835  0.3525
   14DOPE  H18T 1759   6.803   4.828   4.883  0.1639 -1.2745  0.5058
   14DOPE   C33 1760   7.125   5.290   6.280 -1.1820 -0.2727  1.1091
   14DOPE   H3X 1761   7.086   5.193   6.241 -1.3462  0.3953 -0.4868
   14DOPE   H3Y 1762   7.224   5.288   6.330 -0.4851 -0.3555 -0.2252
   14DOPE   C34 1763   7.132   5.373   6.151  0.0993  0.4044  0.1907
   14DOPE   H4X 1764   7.037   5.421   6.119  0.6174  1.2493 -0.1172
   14DOPE   H4Y 1765   7.188   5.465   6.175 -2.8342  1.8493  2.1163
   14DOPE   C35 1766   7.204   5.291   6.038  0.3569  0.5691 -0.0268
   14DOPE   H5X 1767   7.165   5.187   6.036  0.3827  0.5239  1.1847
   14DOPE   H5Y 1768   7.311   5.278   6.066  0.1534 -1.5246 -0.0933
   14DOPE   C36 1769   7.215   5.361   5.896 -0.4467  0.3847 -0.0318
   14DOPE   H6X 1770   7.289   5.443   5.900  0.6399 -0.5477 -0.3264
   14DOPE   H6Y 1771   7.118   5.398   5.857  0.6069  0.1732 -3.1417
   14DOPE   C37 1772   7.267   5.257   5.798 -0.1076  0.6028  0.0251
   14DOPE   H7X 1773   7.354   5.212   5.852  0.1527  0.9931 -0.0699
   14DOPE   H7Y 1774   7.195   5.174   5.787  3.2722 -2.5974 -0.0693
   14DOPE   C38 1775   7.324   5.302   5.669  0.7274  0.4038  0.3422
   14DOPE   H8X 1776   7.380   5.211   5.637 -0.1057 -0.8272  2.2049
   14DOPE   H8Y 1777   7.407   5.374   5.680  1.1425  0.4541 -2.3775
   14DOPE   C39 1778   7.222   5.365   5.581 -0.3208  0.0714 -0.1234
   14DOPE   H9X 1779   7.146   5.424   5.634  1.5538 -0.3773  3.3791
   14DOPE  C310 1780   7.207   5.337   5.452  0.8060 -0.0648  1.0298
   14DOPE  H10X 1781   7.147   5.400   5.385  1.8517  1.1745  1.1933
   14DOPE  C311 1782   7.303   5.239   5.382 -0.4748  0.6676  0.3314
   14DOPE  H11X 1783   7.344   5.290   5.292  0.0706 -0.7416 -0.2489
   14DOPE  H11Y 1784   7.398   5.212   5.434  2.2493  2.8180 -3.0568
   14DOPE  C312 1785   7.227   5.109   5.340  0.1965  0.4344  0.9028
   14DOPE  H12X 1786   7.143   5.149   5.279  1.5272  2.6238  0.3890
   14DOPE  H12Y 1787   7.183   5.056   5.427 -0.4931  2.1123  1.6219
   14DOPE  C313 1788   7.329   5.015   5.270 -0.5701 -0.0003 -0.0523
   14DOPE  H13X 1789   7.334   5.044   5.163  1.2471 -1.5376 -0.4385
   14DOPE  H13Y 1790   7.426   5.018   5.324 -0.9940 -0.6721  0.7918
   14DOPE  C314 1791   7.281   4.871   5.262 -0.5765  0.0001 -0.0146
   14DOPE  H14X 1792   7.173   4.883   5.236 -0.6731  0.4073  0.5691
   14DOPE  H14Y 1793   7.292   4.823   5.362 -1.3123  1.7493  0.9583
   14DOPE  C315 1794   7.353   4.797   5.150 -0.4235  0.2641 -0.3531
   14DOPE  H15X 1795   7.348   4.865   5.062 -1.8841  1.2130  0.4102
   14DOPE  H15Y 1796   7.290   4.709   5.126 -1.6921  0.5088  1.7815
   14DOPE  C316 1797   7.497   4.757   5.184  0.3019  0.0893  0.5837
   14DOPE  H16X 1798   7.509   4.715   5.287  2.1473 -1.3196 -0.1465
   14DOPE  H16Y 1799   7.555   4.851   5.188  2.9427 -1.4127 -0.2454
   14DOPE  C317 1800   7.568   4.666   5.080  0.0254 -0.1030 -0.0946
   14DOPE  H17X 1801   7.516   4.568   5.078 -1.5065  0.6017  1.9361
   14DOPE  H17Y 1802   7.555   4.701   4.975  1.9430  0.1608 -0.2771
   14DOPE  C318 1803   7.709   4.642   5.125 -1.1516 -0.4088  0.2275
   14DOPE  H18X 1804   7.770   4.732   5.104  1.1791 -1.4724  1.9660
   14DOPE  H18Y 1805   7.705   4.625   5.235 -2.7870  0.7930  0.3967
   14DOPE  H18Z 1806   7.755   4.558   5.069 -2.0668  0.1316 -1.4046
   15DOPE     N 1807   1.455   2.157   7.245 -0.5968  0.1029 -0.3038
   15DOPE   HN1 1808   1.443   2.117   7.149  1.5134 -0.3479 -0.4383
   15DOPE   HN2 1809   1.377   2.115   7.299 -1.4110  0.9662 -0.7828
   15DOPE   HN3 1810   1.449   2.260   7.253  0.3437  0.3459 -2.1326
   15DOPE   C12 1811   1.587   2.113   7.297 -0.6813 -0.2986 -0.3509
   15DOPE  H12A 1812   1.588   2.163   7.397 -0.0687  0.5707 -0.7843
   15DOPE  H12B 1813   1.669   2.153   7.234  1.5897 -0.7493  2.1219
   15DOPE   C11 1814   1.590   1.960   7.314 -0.0197 -0.1240  0.5708
   15DOPE  H11A 1815   1.514   1.926   7.388 -0.4977  1.0639  0.6409
   15DOPE  H11B 1816   1.689   1.950   7.363 -0.4121  0.7198  1.5888
   15DOPE     P 1817   1.595   1.737   7.193  0.0637  0.1108  0.0253
   15DOPE   O13 1818   1.475   1.676   7.259 -0.4439  0.3096 -0.1866
   15DOPE   O14 1819   1.724   1.706   7.264  0.1875  0.7341  0.1517
   15DOPE   O11 1820   1.610   1.682   7.041  0.1057 -0.2724  0.1344
   15DOPE   O12 1821   1.584   1.895   7.186  0.0826 -0.0144 -0.1722
   15DOPE    C1 1822   1.661   1.769   6.945  0.0382 -0.4271 -0.8405
   15DOPE    HA 1823   1.736   1.720   6.879 -0.8714 -0.1508 -2.1254
   15DOPE    HB 1824   1.703   1.863   6.987  0.2084 -1.1422  0.6340
   15DOPE    C2 1825   1.551   1.816   6.837  0.2282 -0.8767 -0.0875
   15DOPE    HS 1826   1.481   1.890   6.882  1.1298 -0.2480  0.3147
   15DOPE   O21 1827   1.484   1.697   6.787 -0.3764  0.2171 -0.2658
   15DOPE   C21 1828   1.363   1.689   6.831  0.4837  0.5482  0.1242
   15DOPE   O22 1829   1.310   1.760   6.911 -0.1648 -0.0642  0.1558
   15DOPE   C22 1830   1.307   1.562   6.779 -0.3065 -0.4033  0.4797
   15DOPE   H2R 1831   1.199   1.553   6.804 -0.6911  1.6754 -0.2326
   15DOPE   H2S 1832   1.372   1.482   6.821  2.3507  1.3090 -0.1221
   15DOPE    C3 1833   1.615   1.881   6.707  0.1643 -0.0866 -0.0938
   15DOPE    HX 1834   1.683   1.809   6.657 -2.7506 -2.1673 -1.4041
   15DOPE    HY 1835   1.672   1.970   6.740 -0.3909  1.0833 -2.1198
   15DOPE   O31 1836   1.504   1.924   6.625  0.1033  0.7805  0.1313
   15DOPE   C31 1837   1.474   2.054   6.613  0.2600  0.3017  0.0434
   15DOPE   O32 1838   1.502   2.142   6.694  0.1301  0.1209 -0.1908
   15DOPE   C32 1839   1.408   2.085   6.481  0.1728  1.1279  0.1135
   15DOPE   H2X 1840   1.489   2.073   6.406  0.1215 -0.4455  0.2896
   15DOPE   H2Y 1841   1.332   2.009   6.452 -0.2134  1.5656 -0.0431
   15DOPE   C23 1842   1.319   1.546   6.623  0.5119  0.4287  0.1902
   15DOPE   H3R 1843   1.298   1.440   6.595  1.8977 -0.2447  1.5295
   15DOPE   H3S 1844   1.429   1.553   6.607  0.5155  1.2348  0.5451
   15DOPE   C24 1845   1.230   1.632   6.539 -0.3306  0.2543  0.0158
   15DOPE   H4R 1846   1.239   1.731   6.588 -0.0009 -0.3603  1.2296
   15DOPE   H4S 1847   1.125   1.595   6.531  0.5053 -2.1991 -0.3306
   15DOPE   C25 1848   1.296   1.657   6.404 -0.1017  0.3039  0.3535
   15DOPE   H5R 1849   1.291   1.559   6.352 -1.2477  0.3646  0.3243
   15DOPE   H5S 1850   1.404   1.681   6.417  0.1075 -0.5350  0.2742
   15DOPE   C26 1851   1.213   1.756   6.322  0.7260 -0.3220  0.3029
   15DOPE   H6R 1852   1.179   1.838   6.388  2.0548  0.7828 -0.3324
   15DOPE   H6S 1853   1.126   1.703   6.278 -0.2280  0.1235  1.5768
   15DOPE   C27 1854   1.304   1.810   6.210 -0.1192 -0.8022  0.2190
   15DOPE   H7R 1855   1.338   1.726   6.146 -1.0320 -1.3759  0.4637
   15DOPE   H7S 1856   1.392   1.847   6.267 -1.3168  2.1587  0.3273
   15DOPE   C28 1857   1.227   1.914   6.121 -0.3459  0.2211  0.0021
   15DOPE   H8R 1858   1.219   2.002   6.188  0.3462  0.0653  0.2995
   15DOPE   H8S 1859   1.124   1.871   6.112 -0.8528  1.0363  1.5885
   15DOPE   C29 1860   1.291   1.948   5.988  0.4969 -0.3675  0.0243
   15DOPE   H9R 1861   1.344   2.044   5.995  1.6891 -1.0159  0.0042
   15DOPE  C210 1862   1.287   1.881   5.873  0.0817  0.0877 -0.5168
   15DOPE  H10R 1863   1.346   1.917   5.787 -1.0343  0.1715 -1.2766
   15DOPE  C211 1864   1.214   1.755   5.842 -0.5038  0.9683  0.3495
   15DOPE  H11R 1865   1.182   1.702   5.934 -0.8769  0.4646 -0.0661
   15DOPE  H11S 1866   1.279   1.690   5.779 -1.1732 -1.2360  1.8362
   15DOPE  C212 1867   1.082   1.782   5.766 -0.3155  0.3125  0.8015
   15DOPE  H12R 1868   1.044   1.683   5.734 -0.6722  0.0817  1.8891
   15DOPE  H12S 1869   1.104   1.849   5.680 -0.5630  1.1998  1.4180
   15DOPE  C213 1870   0.968   1.831   5.860 -0.2853 -0.6075  0.2711
   15DOPE  H13R 1871   0.995   1.936   5.883 -3.0109  0.1447  0.3691
   15DOPE  H13S 1872   0.966   1.786   5.962  2.7613 -0.8031  0.3256
   15DOPE  C214 1873   0.836   1.829   5.787  0.7853 -0.6641 -0.3275
   15DOPE  H14R 1874   0.805   1.724   5.773  0.1495 -0.6708  0.9823
   15DOPE  H14S 1875   0.848   1.878   5.687  1.1101  4.5015  1.9053
   15DOPE  C215 1876   0.723   1.899   5.867  0.6149  0.0974  0.2207
   15DOPE  H15R 1877   0.745   2.005   5.890 -1.0155  0.4369  0.3244
   15DOPE  H15S 1878   0.696   1.835   5.953 -2.8007 -1.6105 -1.8768
   15DOPE  C216 1879   0.595   1.908   5.783  0.1175 -0.3538  0.2380
   15DOPE  H16R 1880   0.553   1.805   5.773 -0.5882  0.0336 -1.0711
   15DOPE  H16S 1881   0.624   1.946   5.682 -0.3463 -1.4449 -0.3241
   15DOPE  C217 1882   0.486   1.997   5.847  0.3108  0.1657  0.5590
   15DOPE  H17R 1883   0.473   1.966   5.953 -1.3762 -0.0587  0.3097
   15DOPE  H17S 1884   0.393   1.978   5.789  1.0542  0.7994 -0.8798
   15DOPE  C218 1885   0.503   2.147   5.826  0.7545  0.8015 -0.1688
   15DOPE  H18R 1886   0.570   2.185   5.907  0.0400  2.0402 -0.1272
   15DOPE  H18S 1887   0.412   2.206   5.852 -0.4602 -0.7560 -0.7538
   15DOPE  H18T 1888   0.546   2.172   5.727 -1.9482  0.7312 -1.4505
   15DOPE   C33 1889   1.340   2.227   6.473  0.2790 -0.4060 -0.4855
   15DOPE   H3X 1890   1.405   2.312   6.503 -0.1698  0.3734 -1.6589
   15DOPE   H3Y 1891   1.252   2.226   6.539 -0.5214  0.4525 -1.4992
   15DOPE   C34 1892   1.278   2.269   6.342  0.1898  0.4294  1.1375
   15DOPE   H4X 1893   1.197   2.198   6.316  0.2249  0.8894 -0.2878
   15DOPE   H4Y 1894   1.217   2.359   6.362  0.4177  0.2473  2.7631
   15DOPE   C35 1895   1.381   2.289   6.221  0.0843  0.0729  0.0793
   15DOPE   H5X 1896   1.433   2.196   6.189  3.7364  1.8452  0.3650
   15DOPE   H5Y 1897   1.462   2.356   6.255  0.9245 -0.3796 -0.9597
   15DOPE   C36 1898   1.316   2.349   6.095 -0.3652 -0.9049  0.4580
   15DOPE   H6X 1899   1.280   2.453   6.113 -0.9621 -0.2346 -3.7122
   15DOPE   H6Y 1900   1.233   2.283   6.063 -0.2645 -0.2178 -1.3223
   15DOPE   C37 1901   1.414   2.369   5.975 -0.3016 -0.3917 -0.6355
   15DOPE   H7X 1902   1.498   2.430   6.014 -0.2565  0.0817 -1.4426
   15DOPE   H7Y 1903   1.458   2.269   5.954  1.4935  0.2839 -0.2693
   15DOPE   C38 1904   1.357   2.442   5.855 -0.0662  0.4819 -0.1171
   15DOPE   H8X 1905   1.438   2.476   5.787 -0.9381  0.5315 -1.1753
   15DOPE   H8Y 1906   1.288   2.525   5.881 -1.9884 -0.5047 -1.7275
   15DOPE   C39 1907   1.265   2.344   5.789 -0.2832 -0.1899 -0.4876
   15DOPE   H9X 1908   1.185   2.310   5.855  1.1172 -2.3184  0.2091
   15DOPE  C310 1909   1.278   2.281   5.675 -0.2350 -0.4342  0.1996
   15DOPE  H10X 1910   1.201   2.208   5.646 -0.6126  0.6108 -1.5494
   15DOPE  C311 1911   1.394   2.302   5.579 -0.0434 -0.2510  0.1922
   15DOPE  H11X 1912   1.473   2.373   5.612  0.8653 -0.1019 -2.1033
   15DOPE  H11Y 1913   1.447   2.209   5.547  1.7569  0.8623 -0.2410
   15DOPE  C312 1914   1.336   2.345   5.438 -0.4768 -0.0867 -0.7166
   15DOPE  H12X 1915   1.256   2.419   5.457  0.7226  0.7079  1.6907
   15DOPE  H12Y 1916   1.308   2.250   5.388  1.3988 -0.7854 -0.5209
   15DOPE  C313 1917   1.449   2.403   5.352  0.0138  0.1528  0.6548
   15DOPE  H13X 1918   1.410   2.456   5.263  1.4035 -0.4437 -0.3610
   15DOPE  H13Y 1919   1.493   2.484   5.413 -0.0104 -0.1704  1.1092
   15DOPE  C314 1920   1.556   2.297   5.311  0.1527  0.1332  0.3473
   15DOPE  H14X 1921   1.513   2.202   5.271  3.7331 -1.5616  0.0993
   15DOPE  H14Y 1922   1.613   2.265   5.401 -0.4010  0.1414  0.7095
   15DOPE  C315 1923   1.642   2.353   5.193 -0.1069  0.2803  0.0163
   15DOPE  H15X 1924   1.569   2.414   5.135 -0.4806  1.6205  1.8156
   15DOPE  H15Y 1925   1.671   2.262   5.137 -0.4912 -0.3011  0.7451
   15DOPE  C316 1926   1.759   2.429   5.252 -0.7947 -0.1933 -0.0215
   15DOPE  H16X 1927   1.809   2.364   5.328 -1.1130 -0.7573 -0.2882
   15DOPE  H16Y 1928   1.729   2.524   5.300 -0.6199 -0.0684 -0.1586
   15DOPE  C317 1929   1.862   2.448   5.140  0.1890 -0.5847 -0.3396
   15DOPE  H17X 1930   1.863   2.361   5.072 -1.2030 -0.4146 -0.5932
   15DOPE  H17Y 1931   1.808   2.525   5.081 -0.1999 -0.2064  0.5006
   15DOPE  C318 1932   2.000   2.489   5.182 -0.0173  0.0314 -0.0830
   15DOPE  H18X 1933   2.046   2.401   5.232  0.3480  0.0397 -0.3966
   15DOPE  H18Y 1934   2.059   2.522   5.094 -0.8255  2.1338  0.1144
   15DOPE  H18Z 1935   2.010   2.574   5.254  1.1585 -0.7595  0.7317
   16DOPE     N 1936   7.664   2.913   7.266  0.1292  0.3431 -0.4137
   16DOPE   HN1 1937   7.730   2.846   7.221  0.7077 -0.7450  1.8721
   16DOPE   HN2 1938   7.718   2.950   7.347  0.1332  0.1203 -0.3116
   16DOPE   HN3 1939   7.576   2.870   7.300  0.3296  1.2639  1.3757
   16DOPE   C12 1940   7.629   3.030   7.173 -0.1011  0.9674 -0.0534
   16DOPE  H12A 1941   7.699   3.111   7.201 -2.1409  2.5145  0.8083
   16DOPE  H12B 1942   7.528   3.063   7.205 -0.6887 -0.3321 -0.4959
   16DOPE   C11 1943   7.624   3.006   7.022  0.5160  0.9034  0.0317
   16DOPE  H11A 1944   7.618   3.108   6.979  3.0948  0.1595 -2.3175
   16DOPE  H11B 1945   7.537   2.941   6.998  0.8718  0.4697 -0.0843
   16DOPE     P 1946   7.869   3.028   6.942  0.0937  0.1328 -0.0020
   16DOPE   O13 1947   7.992   2.971   6.998 -0.1960 -0.2183 -0.1560
   16DOPE   O14 1948   7.840   3.170   6.965 -0.2878  0.6429 -0.5672
   16DOPE   O11 1949   7.874   2.999   6.790  0.3551 -0.0886  0.6389
   16DOPE   O12 1950   7.742   2.937   6.980  0.2692 -0.4391  0.0540
   16DOPE    C1 1951   7.769   3.042   6.705  0.3265  0.3764  0.2310
   16DOPE    HA 1952   7.686   3.086   6.765 -0.4481  0.3563 -0.7850
   16DOPE    HB 1953   7.722   2.962   6.643  0.2959  1.0952 -0.6946
   16DOPE    C2 1954   7.819   3.154   6.615 -0.6955 -0.2060 -0.5449
   16DOPE    HS 1955   7.898   3.205   6.673 -1.5239  0.5963 -0.0936
   16DOPE   O21 1956   7.706   3.240   6.604 -0.3166  0.0087  0.9183
   16DOPE   C21 1957   7.734   3.360   6.571  0.4074  0.6246 -0.3579
   16DOPE   O22 1958   7.845   3.411   6.559  0.7224  0.1771 -0.6912
   16DOPE   C22 1959   7.604   3.446   6.551  0.1297 -0.1586  0.4071
   16DOPE   H2R 1960   7.628   3.538   6.494 -0.8411  1.2190  2.1249
   16DOPE   H2S 1961   7.569   3.479   6.651 -1.2986  0.1811 -0.1801
   16DOPE    C3 1962   7.877   3.106   6.478 -0.1645 -0.1510  0.8506
   16DOPE    HX 1963   7.790   3.065   6.421 -0.7498  0.7265  1.1072
   16DOPE    HY 1964   7.948   3.020   6.482 -0.3262 -0.2662  1.3499
   16DOPE   O31 1965   7.935   3.208   6.391 -0.5623 -0.2719  0.2882
   16DOPE   C31 1966   8.070   3.220   6.391  0.8623  0.2327  0.0925
   16DOPE   O32 1967   8.148   3.159   6.466 -0.8155 -0.5041 -0.1204
   16DOPE   C32 1968   8.109   3.327   6.296 -0.7485  0.1617  0.2441
   16DOPE   H2X 1969   8.048   3.309   6.206 -0.0928 -0.4403 -0.0849
   16DOPE   H2Y 1970   8.072   3.429   6.321 -0.2125  0.7577 -1.2708
   16DOPE   C23 1971   7.495   3.372   6.478 -1.1005 -0.2060 -0.9692
   16DOPE   H3R 1972   7.400   3.428   6.494 -0.6944  0.1341  0.3497
   16DOPE   H3S 1973   7.486   3.269   6.517 -0.9844  0.3983  0.7266
   16DOPE   C24 1974   7.521   3.378   6.332 -0.1795  0.0207 -0.5106
   16DOPE   H4R 1975   7.601   3.306   6.306 -0.8727 -0.7755 -0.4738
   16DOPE   H4S 1976   7.556   3.479   6.302 -0.7389  0.7086  1.0469
   16DOPE   C25 1977   7.393   3.349   6.250  0.3466 -0.8362  0.4197
   16DOPE   H5R 1978   7.315   3.424   6.277  1.3290  0.6318 -0.6442
   16DOPE   H5S 1979   7.369   3.244   6.276 -1.5744 -0.2932  1.0294
   16DOPE   C26 1980   7.426   3.358   6.094  0.7997  0.4543  0.0374
   16DOPE   H6R 1981   7.496   3.277   6.065 -1.5978 -0.7373 -2.7755
   16DOPE   H6S 1982   7.462   3.462   6.075 -2.3616  1.6949  0.2843
   16DOPE   C27 1983   7.297   3.351   6.010 -0.3456 -0.0655 -0.0815
   16DOPE   H7R 1984   7.230   3.428   6.053  0.4899  0.6148  0.0292
   16DOPE   H7S 1985   7.251   3.250   6.023 -0.4560 -0.4147 -2.7247
   16DOPE   C28 1986   7.317   3.386   5.863 -0.3341  0.4098  0.2354
   16DOPE   H8R 1987   7.382   3.476   5.855 -0.7538  0.8255  1.2125
   16DOPE   H8S 1988   7.217   3.406   5.819  0.1308 -0.0255 -1.0569
   16DOPE   C29 1989   7.374   3.255   5.796 -0.9484 -0.9882 -1.4148
   16DOPE   H9R 1990   7.404   3.179   5.870 -1.3940  0.7456  0.6341
   16DOPE  C210 1991   7.378   3.228   5.666 -0.8521  0.2663 -0.0571
   16DOPE  H10R 1992   7.432   3.139   5.630 -0.9072 -0.5098  1.7117
   16DOPE  C211 1993   7.339   3.323   5.552 -0.4062  0.0948  0.2700
   16DOPE  H11R 1994   7.242   3.373   5.573 -1.0019 -0.2912 -1.4615
   16DOPE  H11S 1995   7.330   3.259   5.462 -0.5809 -0.3684  0.6157
   16DOPE  C212 1996   7.452   3.423   5.528 -0.5032  0.1947  0.5092
   16DOPE  H12R 1997   7.545   3.370   5.500 -0.7105 -1.6572  2.9978
   16DOPE  H12S 1998   7.468   3.490   5.615 -0.2531  1.3407 -0.3896
   16DOPE  C213 1999   7.410   3.518   5.413 -0.4276  0.2597 -0.2032
   16DOPE  H13R 2000   7.494   3.589   5.399 -0.9321  1.0642  0.7721
   16DOPE  H13S 2001   7.324   3.577   5.451 -0.6653  1.2681 -2.1764
   16DOPE  C214 2002   7.369   3.451   5.280  0.6681 -0.0995 -0.4458
   16DOPE  H14R 2003   7.338   3.525   5.204 -0.2746 -0.2066 -0.1829
   16DOPE  H14S 2004   7.281   3.387   5.301 -0.2874  1.1660 -0.4568
   16DOPE  C215 2005   7.476   3.362   5.208  0.3491 -0.2355 -0.4422
   16DOPE  H15R 2006   7.450   3.318   5.109 -0.0947 -0.4503 -0.2277
   16DOPE  H15S 2007   7.501   3.281   5.279  1.7744  1.0197  0.5673
   16DOPE  C216 2008   7.601   3.442   5.172  0.3429  0.3160  0.3545
   16DOPE  H16R 2009   7.649   3.495   5.257  0.7181  0.8467 -0.1825
   16DOPE  H16S 2010   7.566   3.532   5.117  0.6996 -1.5044 -3.1128
   16DOPE  C217 2011   7.698   3.361   5.083  1.4053 -0.6644  0.0592
   16DOPE  H17R 2012   7.639   3.309   5.005  1.5519 -0.5093 -0.1530
   16DOPE  H17S 2013   7.746   3.283   5.147  1.5640 -2.7484 -2.4408
   16DOPE  C218 2014   7.804   3.444   5.005 -0.1199  0.2964  0.1103
   16DOPE  H18R 2015   7.744   3.514   4.944 -2.9086  0.1830  2.5036
   16DOPE  H18S 2016   7.865   3.383   4.936 -0.9852 -2.4943  1.6373
   16DOPE  H18T 2017   7.872   3.495   5.077 -1.1730 -0.5366  1.7666
   16DOPE   C33 2018   8.261   3.322   6.271 -0.7015 -0.0743  0.8357
   16DOPE   H3X 2019   8.288   3.216   6.254 -1.0094 -0.4871  2.7297
   16DOPE   H3Y 2020   8.306   3.343   6.370 -3.0549 -0.6808  2.1103
   16DOPE   C34 2021   8.308   3.406   6.155 -0.1444  0.6627 -0.2948
   16DOPE   H4X 2022   8.254   3.503   6.158 -2.8975 -0.5543 -3.7124
   16DOPE   H4Y 2023   8.418   3.420   6.166 -0.3285  2.6944 -0.6025
   16DOPE   C35 2024   8.266   3.348   6.022  0.0429  0.1766  0.7641
   16DOPE   H5X 2025   8.158   3.352   5.999  0.0815 -0.9236  0.3193
   16DOPE   H5Y 2026   8.308   3.246   6.032 -1.0458 -0.2264  1.3226
   16DOPE   C36 2027   8.333   3.417   5.903 -0.3922 -0.1809  0.1090
   16DOPE   H6X 2028   8.441   3.392   5.913 -0.5001 -0.6293  0.1903
   16DOPE   H6Y 2029   8.308   3.525   5.904  0.1902 -0.0370 -0.2071
   16DOPE   C37 2030   8.281   3.379   5.760  0.4902  0.3726 -0.3017
   16DOPE   H7X 2031   8.254   3.272   5.751 -1.8481  0.6774  1.8051
   16DOPE   H7Y 2032   8.192   3.440   5.733  0.5084  0.7970  0.5424
   16DOPE   C38 2033   8.374   3.428   5.645 -0.1303  0.0845 -0.0553
   16DOPE   H8X 2034   8.481   3.414   5.671 -0.0718 -0.1681 -0.4268
   16DOPE   H8Y 2035   8.360   3.537   5.638  1.3868  0.3146  0.1025
   16DOPE   C39 2036   8.349   3.364   5.507 -0.6295  0.1349 -0.1405
   16DOPE   H9X 2037   8.272   3.287   5.503  0.4391 -0.9901  0.2751
   16DOPE  C310 2038   8.424   3.383   5.396 -0.3125 -0.0768 -0.8345
   16DOPE  H10X 2039   8.391   3.332   5.304  0.4085 -1.1601 -0.5052
   16DOPE  C311 2040   8.528   3.491   5.389  0.4112 -0.0552  0.4095
   16DOPE  H11X 2041   8.531   3.545   5.485 -0.3529  0.8431 -0.0565
   16DOPE  H11Y 2042   8.621   3.435   5.362  0.6288  0.3895  0.2252
   16DOPE  C312 2043   8.494   3.585   5.269  0.5181  0.3517 -0.1502
   16DOPE  H12X 2044   8.413   3.655   5.298 -1.2678 -1.7342  0.2508
   16DOPE  H12Y 2045   8.448   3.528   5.185  0.7824  0.6836 -0.5241
   16DOPE  C313 2046   8.602   3.669   5.217 -0.5129 -0.9916  0.4091
   16DOPE  H13X 2047   8.550   3.736   5.146  0.6493 -0.3095  0.1705
   16DOPE  H13Y 2048   8.645   3.731   5.299  1.1153  0.1348 -1.2135
   16DOPE  C314 2049   8.710   3.582   5.158  0.0008  0.0879  0.3606
   16DOPE  H14X 2050   8.667   3.520   5.076 -1.6767 -0.4005  1.5478
   16DOPE  H14Y 2051   8.756   3.519   5.238 -1.2904 -0.9264  0.3381
   16DOPE  C315 2052   8.821   3.654   5.078  0.1771 -0.1093 -0.7855
   16DOPE  H15X 2053   8.844   3.744   5.139  0.2622 -0.3603 -0.4442
   16DOPE  H15Y 2054   8.771   3.694   4.988 -0.8059  1.3458  0.3599
   16DOPE  C316 2055   8.943   3.582   5.028  0.0211 -0.9291  0.1294
   16DOPE  H16X 2056   8.920   3.487   4.976 -0.4186  0.3384 -2.0967
   16DOPE  H16Y 2057   8.991   3.555   5.125 -0.9543 -2.2025  0.2800
   16DOPE  C317 2058   9.030   3.658   4.924  0.0052 -0.1284 -0.4534
   16DOPE  H17X 2059   8.961   3.670   4.838  0.3496  1.2646 -0.5540
   16DOPE  H17Y 2060   9.060   3.759   4.957 -1.3445 -0.0510  0.6619
   16DOPE  C318 2061   9.159   3.580   4.877 -0.0038 -0.2477  0.0851
   16DOPE  H18X 2062   9.120   3.483   4.839 -1.8928  1.0937 -1.5895
   16DOPE  H18Y 2063   9.214   3.627   4.792  0.4945  0.3082  0.7045
   16DOPE  H18Z 2064   9.233   3.573   4.959  0.1432 -0.8252 -0.0891
   17DOPE     N 2065   2.534   5.203   6.775  0.1731 -0.4638  0.4068
   17DOPE   HN1 2066   2.476   5.244   6.851 -1.6148 -2.1999  0.0516
   17DOPE   HN2 2067   2.568   5.109   6.803  0.3122 -0.4820  0.1816
   17DOPE   HN3 2068   2.616   5.264   6.756 -2.4318  3.4795  0.5460
   17DOPE   C12 2069   2.445   5.210   6.652 -0.6713 -0.0021 -0.3802
   17DOPE  H12A 2070   2.508   5.163   6.573 -2.2097  0.0909 -1.7053
   17DOPE  H12B 2071   2.419   5.315   6.628  0.3247  0.1225 -1.0016
   17DOPE   C11 2072   2.310   5.126   6.661 -0.5327  0.5474 -0.3557
   17DOPE  H11A 2073   2.327   5.023   6.698 -0.7429  0.6994  0.1724
   17DOPE  H11B 2074   2.270   5.115   6.558 -2.0479  0.6308  0.2010
   17DOPE     P 2075   2.064   5.166   6.742 -0.3356 -0.2167 -0.1828
   17DOPE   O13 2076   2.005   5.300   6.776 -0.1016 -0.3818  0.2660
   17DOPE   O14 2077   2.030   5.049   6.824  0.1381  0.4919  0.3233
   17DOPE   O11 2078   2.035   5.134   6.592  0.5716 -0.1075  0.3427
   17DOPE   O12 2079   2.218   5.183   6.749  0.2161  0.6815 -0.5910
   17DOPE    C1 2080   1.935   5.211   6.517 -0.2206  0.1576 -0.0295
   17DOPE    HA 2081   1.866   5.264   6.586  0.4446 -1.3714  1.8915
   17DOPE    HB 2082   1.883   5.140   6.449 -2.6931  0.7815  1.0895
   17DOPE    C2 2083   1.996   5.325   6.419  0.0269 -0.0763  0.7550
   17DOPE    HS 2084   1.916   5.397   6.392  1.0159  0.7662  0.0003
   17DOPE   O21 2085   2.060   5.263   6.304  0.1422 -0.3119 -0.5671
   17DOPE   C21 2086   1.977   5.224   6.215  0.4490  0.1643  1.0627
   17DOPE   O22 2087   1.856   5.240   6.215  0.1138  0.1383  0.1566
   17DOPE   C22 2088   2.053   5.167   6.100  0.1746  0.0454 -0.0315
   17DOPE   H2R 2089   2.064   5.060   6.129 -0.7928 -0.7804 -2.4848
   17DOPE   H2S 2090   2.156   5.208   6.095  1.1639 -2.4213 -1.7346
   17DOPE    C3 2091   2.101   5.418   6.491 -0.1870  0.6144  0.1847
   17DOPE    HX 2092   2.170   5.343   6.537 -0.6844  0.0192 -0.0200
   17DOPE    HY 2093   2.052   5.466   6.578  0.3407 -0.2789  0.9950
   17DOPE   O31 2094   2.146   5.511   6.395  0.0831  0.0185  0.4194
   17DOPE   C31 2095   2.275   5.497   6.372 -0.1048  0.5853 -0.0319
   17DOPE   O32 2096   2.353   5.414   6.416  0.5820  0.1292  0.3403
   17DOPE   C32 2097   2.333   5.603   6.284 -0.2793  0.2037  0.0001
   17DOPE   H2X 2098   2.248   5.651   6.232 -1.2151  0.2496  1.5257
   17DOPE   H2Y 2099   2.363   5.681   6.357  1.0413 -0.0327 -0.2567
   17DOPE   C23 2100   1.971   5.180   5.975 -0.8455 -0.1245 -0.9064
   17DOPE   H3R 2101   1.863   5.155   5.983 -1.2498  1.0734 -2.0556
   17DOPE   H3S 2102   2.006   5.100   5.907 -2.0548 -2.1476  0.7524
   17DOPE   C24 2103   1.981   5.318   5.902  0.7490  0.4578 -0.6510
   17DOPE   H4R 2104   2.086   5.334   5.871  2.0747  1.3631  3.6048
   17DOPE   H4S 2105   1.940   5.401   5.964 -2.8267 -2.2841  1.0157
   17DOPE   C25 2106   1.891   5.309   5.777 -0.7935 -0.8422  0.1736
   17DOPE   H5R 2107   1.795   5.339   5.824 -0.6383 -0.6843  0.3892
   17DOPE   H5S 2108   1.896   5.201   5.751 -0.7877 -0.3648 -1.9880
   17DOPE   C26 2109   1.933   5.402   5.656  0.1433  0.2591 -0.7830
   17DOPE   H6R 2110   2.021   5.357   5.606  0.2133 -1.0655  0.4825
   17DOPE   H6S 2111   1.974   5.500   5.688  0.3674  0.0196 -0.3248
   17DOPE   C27 2112   1.815   5.426   5.562 -0.5214  0.3651 -0.1216
   17DOPE   H7R 2113   1.719   5.439   5.617 -0.8596 -1.4892 -0.1916
   17DOPE   H7S 2114   1.808   5.333   5.501  3.2269 -0.9380  1.1982
   17DOPE   C28 2115   1.839   5.540   5.453 -0.4549  0.5143 -0.6516
   17DOPE   H8R 2116   1.769   5.529   5.368  0.3997  0.1920 -1.3313
   17DOPE   H8S 2117   1.936   5.509   5.408 -0.0082 -0.0064  0.6443
   17DOPE   C29 2118   1.839   5.682   5.499 -0.5335 -0.1563  0.2449
   17DOPE   H9R 2119   1.913   5.693   5.580 -1.3041  3.0099  0.6634
   17DOPE  C210 2120   1.768   5.783   5.456  0.3434 -0.2456 -0.7845
   17DOPE  H10R 2121   1.791   5.883   5.497  0.6734 -0.6945  0.1400
   17DOPE  C211 2122   1.668   5.783   5.347 -0.5122 -0.1908  0.1538
   17DOPE  H11R 2123   1.637   5.684   5.309  0.0003 -0.3486  0.1392
   17DOPE  H11S 2124   1.722   5.822   5.258  2.9745 -2.4264  1.0556
   17DOPE  C212 2125   1.554   5.876   5.389  0.5689  0.5058 -0.5671
   17DOPE  H12R 2126   1.593   5.974   5.423  1.0085  0.1896 -0.1444
   17DOPE  H12S 2127   1.484   5.840   5.468  0.2367  1.8866 -0.1931
   17DOPE  C213 2128   1.450   5.895   5.274 -0.7704  0.2710 -0.2994
   17DOPE  H13R 2129   1.426   5.795   5.232 -1.2513  0.9500 -1.6974
   17DOPE  H13S 2130   1.491   5.954   5.190  0.3285  1.8933  1.3106
   17DOPE  C214 2131   1.322   5.961   5.322  0.0926  0.0879  0.5668
   17DOPE  H14R 2132   1.263   5.908   5.400 -1.5506  1.6818  0.4749
   17DOPE  H14S 2133   1.252   5.968   5.236  2.4187 -0.6542 -1.5207
   17DOPE  C215 2134   1.353   6.107   5.371 -0.0971  0.3698 -0.0600
   17DOPE  H15R 2135   1.405   6.157   5.286 -0.2123  1.3419  0.4305
   17DOPE  H15S 2136   1.415   6.110   5.463 -1.6431 -1.9497  1.1569
   17DOPE  C216 2137   1.217   6.170   5.404 -0.2091  0.1466  0.3273
   17DOPE  H16R 2138   1.170   6.109   5.485  1.5782 -0.4756  0.9489
   17DOPE  H16S 2139   1.146   6.150   5.321 -0.1328  0.0847  0.2767
   17DOPE  C217 2140   1.212   6.322   5.449 -0.3377  0.0323  0.2301
   17DOPE  H17R 2141   1.269   6.387   5.380  1.3180  0.1564  1.6204
   17DOPE  H17S 2142   1.275   6.329   5.541 -3.3942 -0.1971  2.5023
   17DOPE  C218 2143   1.070   6.367   5.478  0.3192 -0.8052  0.0231
   17DOPE  H18R 2144   1.066   6.478   5.476 -0.3527 -0.7504  2.1363
   17DOPE  H18S 2145   1.033   6.343   5.580 -0.6087  1.6929  0.3327
   17DOPE  H18T 2146   1.002   6.336   5.396 -2.0055 -2.1151  2.2934
   17DOPE   C33 2147   2.457   5.559   6.197 -0.6792 -0.3018 -0.4880
   17DOPE   H3X 2148   2.533   5.528   6.272 -0.5608 -1.1616 -0.9482
   17DOPE   H3Y 2149   2.500   5.647   6.144 -2.3002 -0.2752 -1.8527
   17DOPE   C34 2150   2.417   5.448   6.095 -0.3817  0.1175  0.4555
   17DOPE   H4X 2151   2.407   5.361   6.163 -1.7256 -0.4060 -0.3554
   17DOPE   H4Y 2152   2.321   5.463   6.042  0.4596 -2.1105 -1.9089
   17DOPE   C35 2153   2.522   5.442   5.984  0.2400  1.1567  0.6561
   17DOPE   H5X 2154   2.541   5.336   5.955  2.2556  1.7038 -0.2027
   17DOPE   H5Y 2155   2.615   5.483   6.028  1.4338 -0.5808 -0.0926
   17DOPE   C36 2156   2.476   5.504   5.850 -0.0904  0.3072 -0.1090
   17DOPE   H6X 2157   2.432   5.602   5.879  0.0445  0.8128 -1.5512
   17DOPE   H6Y 2158   2.396   5.434   5.816 -0.5003  0.5813  0.2777
   17DOPE   C37 2159   2.582   5.510   5.743  0.2568  0.3726  0.7092
   17DOPE   H7X 2160   2.672   5.564   5.779  0.1338  1.2529 -0.2579
   17DOPE   H7Y 2161   2.617   5.407   5.723  0.6458 -0.2745  4.0823
   17DOPE   C38 2162   2.529   5.582   5.623  0.2216 -0.1037  1.0165
   17DOPE   H8X 2163   2.499   5.683   5.657 -1.2768 -0.2078  0.0981
   17DOPE   H8Y 2164   2.438   5.533   5.582  1.8133 -1.6593 -0.8758
   17DOPE   C39 2165   2.618   5.574   5.500 -0.0282  0.2382 -0.4633
   17DOPE   H9X 2166   2.685   5.661   5.495 -0.4109  0.4838 -1.5509
   17DOPE  C310 2167   2.609   5.489   5.394 -0.6944  0.0713  0.5975
   17DOPE  H10X 2168   2.696   5.484   5.327  0.6508  0.4614  2.2223
   17DOPE  C311 2169   2.507   5.381   5.376  0.2370 -0.2908  0.1107
   17DOPE  H11X 2170   2.552   5.288   5.335 -0.8713 -0.3089 -1.1239
   17DOPE  H11Y 2171   2.451   5.359   5.470  0.0280  0.6888  0.2257
   17DOPE  C312 2172   2.407   5.426   5.265 -0.2219 -0.1840  0.1473
   17DOPE  H12X 2173   2.343   5.344   5.225 -0.8402  0.3146  0.0993
   17DOPE  H12Y 2174   2.477   5.450   5.182 -0.7375  0.8445 -0.0040
   17DOPE  C313 2175   2.310   5.543   5.300  0.5420  1.0172  0.0357
   17DOPE  H13X 2176   2.245   5.514   5.386 -0.6667  0.5616 -0.9913
   17DOPE  H13Y 2177   2.374   5.630   5.326  3.3153 -0.7907 -0.3628
   17DOPE  C314 2178   2.221   5.572   5.175  0.3678 -0.5697 -0.5347
   17DOPE  H14X 2179   2.139   5.640   5.207  0.0862 -1.7166  1.3272
   17DOPE  H14Y 2180   2.165   5.480   5.146  2.1663 -1.6428 -0.7483
   17DOPE  C315 2181   2.281   5.628   5.052  0.1530  0.5706 -0.1181
   17DOPE  H15X 2182   2.339   5.547   5.003 -1.4132 -1.3757  1.0927
   17DOPE  H15Y 2183   2.341   5.718   5.074 -0.7841  1.5814 -1.5153
   17DOPE  C316 2184   2.173   5.676   4.949  0.1106  0.0755  0.3766
   17DOPE  H16X 2185   2.104   5.756   4.984  0.4389 -0.1100  1.4882
   17DOPE  H16Y 2186   2.103   5.590   4.937 -0.5675  0.6441  0.1974
   17DOPE  C317 2187   2.244   5.701   4.810  0.5790  0.2083 -0.4963
   17DOPE  H17X 2188   2.182   5.758   4.737  0.5266  0.9326  0.0981
   17DOPE  H17Y 2189   2.324   5.774   4.834  1.1872  0.1354 -2.1916
   17DOPE  C318 2190   2.295   5.585   4.726  0.2390 -0.3304 -0.3071
   17DOPE  H18X 2191   2.312   5.491   4.784  0.1037  0.1302  0.4816
   17DOPE  H18Y 2192   2.230   5.565   4.638  0.5386 -1.2736 -0.3333
   17DOPE  H18Z 2193   2.389   5.616   4.675  0.3133 -0.9558 -0.5586
   18DOPE     N 2194   0.257   4.118   7.319  0.1995  0.4938 -0.1638
   18DOPE   HN1 2195   0.298   4.192   7.259  1.0994  0.1312 -0.0157
   18DOPE   HN2 2196   0.312   4.096   7.405  1.7498 -2.2224 -1.6930
   18DOPE   HN3 2197   0.273   4.027   7.271 -0.2189 -0.5802  1.6254
   18DOPE   C12 2198   0.110   4.126   7.357 -0.6447  0.4991 -0.2732
   18DOPE  H12A 2199   0.104   4.199   7.441  2.4032  0.7713 -0.2094
   18DOPE  H12B 2200   0.084   4.026   7.399 -1.1180  0.3802 -0.8303
   18DOPE   C11 2201   0.020   4.151   7.233  0.1864 -0.1045  0.0034
   18DOPE  H11A 2202   0.050   4.248   7.187  0.2971 -1.1012 -2.1367
   18DOPE  H11B 2203  -0.088   4.158   7.260  0.2012 -0.7767  0.2408
   18DOPE     P 2204  -0.070   3.960   7.080  0.1350  0.3920 -0.1535
   18DOPE   O13 2205  -0.176   4.049   7.033 -0.1660  0.2847 -0.0942
   18DOPE   O14 2206  -0.108   3.851   7.171  0.0840 -0.0514 -0.1187
   18DOPE   O11 2207  -0.004   3.896   6.955  0.2246 -0.0750  0.0545
   18DOPE   O12 2208   0.045   4.045   7.135 -0.4393  0.0217 -0.2422
   18DOPE    C1 2209   0.029   3.982   6.839 -0.3659  0.0870  0.3644
   18DOPE    HA 2210   0.137   4.007   6.845 -0.1402 -1.0192  1.3198
   18DOPE    HB 2211  -0.030   4.076   6.841 -0.8630 -0.2287  0.5518
   18DOPE    C2 2212   0.003   3.903   6.695 -0.5826  0.7025  0.5007
   18DOPE    HS 2213   0.034   3.981   6.622 -2.3259  0.7214 -0.2527
   18DOPE   O21 2214  -0.130   3.847   6.680  0.5319 -0.0460 -0.9286
   18DOPE   C21 2215  -0.223   3.931   6.652  0.0361 -0.1008  0.3821
   18DOPE   O22 2216  -0.212   4.047   6.628 -0.3988  0.7388  0.2804
   18DOPE   C22 2217  -0.353   3.853   6.652 -0.3327 -0.5236  0.1270
   18DOPE   H2R 2218  -0.412   3.874   6.744  0.2265  0.6508  0.2411
   18DOPE   H2S 2219  -0.332   3.744   6.645 -1.1832 -0.6271 -1.0219
   18DOPE    C3 2220   0.109   3.787   6.670  0.6955 -0.3920 -0.1869
   18DOPE    HX 2221   0.072   3.704   6.734 -1.6062  1.0106  0.3967
   18DOPE    HY 2222   0.210   3.823   6.700  0.9887 -1.2627 -0.0917
   18DOPE   O31 2223   0.105   3.726   6.538 -0.1701  0.5163  0.3040
   18DOPE   C31 2224   0.176   3.795   6.447 -0.0868 -0.0068 -0.2690
   18DOPE   O32 2225   0.210   3.912   6.458 -0.4623  0.0314 -0.1867
   18DOPE   C32 2226   0.203   3.711   6.319 -0.3446 -0.1625  0.4766
   18DOPE   H2X 2227   0.312   3.689   6.314 -0.5875 -1.1692 -0.7279
   18DOPE   H2Y 2228   0.152   3.612   6.319  0.1641 -0.4423  1.3684
   18DOPE   C23 2229  -0.443   3.895   6.537 -0.1704  0.4219 -0.0527
   18DOPE   H3R 2230  -0.467   4.003   6.523 -0.4643  0.1064 -2.1809
   18DOPE   H3S 2231  -0.540   3.847   6.559 -0.6122  1.4185  0.2625
   18DOPE   C24 2232  -0.401   3.840   6.398  0.5332 -0.2555  0.1910
   18DOPE   H4R 2233  -0.492   3.850   6.335  0.8507 -0.7638 -0.3693
   18DOPE   H4S 2234  -0.376   3.732   6.394 -1.1448 -0.6445 -0.9076
   18DOPE   C25 2235  -0.295   3.930   6.332  0.0767 -0.2755 -0.0421
   18DOPE   H5R 2236  -0.192   3.895   6.357  0.5226  0.3585 -0.9412
   18DOPE   H5S 2237  -0.323   4.035   6.359 -3.2623 -0.6464 -1.6190
   18DOPE   C26 2238  -0.313   3.929   6.178  0.8396  1.0937  0.0758
   18DOPE   H6R 2239  -0.225   3.977   6.129  1.1423 -0.0766 -0.5532
   18DOPE   H6S 2240  -0.406   3.985   6.157 -0.2091  0.2028  2.0649
   18DOPE   C27 2241  -0.317   3.791   6.107  0.4293 -0.1525 -0.0211
   18DOPE   H7R 2242  -0.399   3.726   6.145  0.2384 -0.1376 -0.4045
   18DOPE   H7S 2243  -0.226   3.731   6.130 -0.4646 -0.6545  2.5889
   18DOPE   C28 2244  -0.346   3.800   5.952  0.4454 -0.6869  0.3601
   18DOPE   H8R 2245  -0.457   3.807   5.946  0.4428 -0.7973  0.2708
   18DOPE   H8S 2246  -0.311   3.701   5.914 -1.2265 -0.9793 -0.5379
   18DOPE   C29 2247  -0.290   3.912   5.880  0.3239  0.7353  0.3259
   18DOPE   H9R 2248  -0.347   4.007   5.876  0.0121  0.5202 -0.5169
   18DOPE  C210 2249  -0.170   3.913   5.816  0.7041 -0.1721  0.3454
   18DOPE  H10R 2250  -0.161   3.996   5.744 -2.1456 -0.5143 -0.5480
   18DOPE  C211 2251  -0.067   3.801   5.810  0.3464 -0.7534 -0.4561
   18DOPE  H11R 2252  -0.078   3.728   5.893 -0.7425 -1.5617 -1.2922
   18DOPE  H11S 2253   0.037   3.838   5.820 -0.0679  0.7755 -1.4369
   18DOPE  C212 2254  -0.080   3.727   5.675  0.2187 -1.2508 -0.1161
   18DOPE  H12R 2255  -0.187   3.698   5.663  0.5281 -2.2235 -0.5891
   18DOPE  H12S 2256  -0.025   3.632   5.689 -0.3108 -1.5910 -0.2843
   18DOPE  C213 2257  -0.044   3.801   5.547  0.5558 -0.2122  1.0130
   18DOPE  H13R 2258   0.003   3.729   5.477 -0.4263  0.4932 -0.4246
   18DOPE  H13S 2259   0.032   3.876   5.576 -0.1789  1.4258 -0.9993
   18DOPE  C214 2260  -0.161   3.872   5.472  0.5742  0.1568  0.2762
   18DOPE  H14R 2261  -0.220   3.945   5.533 -1.6472 -0.5578 -0.9065
   18DOPE  H14S 2262  -0.229   3.789   5.442  2.2235 -0.3914 -2.2176
   18DOPE  C215 2263  -0.106   3.932   5.333  0.0142 -0.4902 -0.4327
   18DOPE  H15R 2264  -0.010   3.983   5.354  0.0087 -0.7481  0.2809
   18DOPE  H15S 2265  -0.185   4.003   5.301 -0.5594 -0.5743  0.7034
   18DOPE  C216 2266  -0.082   3.827   5.214 -0.4205 -0.5626  0.4338
   18DOPE  H16R 2267  -0.151   3.741   5.225  0.1325 -1.3315 -1.6869
   18DOPE  H16S 2268   0.018   3.780   5.223 -0.5453 -0.5621  2.3879
   18DOPE  C217 2269  -0.097   3.903   5.086 -0.2706  0.6118 -0.6947
   18DOPE  H17R 2270  -0.015   3.978   5.074 -0.8872  1.7416  1.5872
   18DOPE  H17S 2271  -0.196   3.952   5.087 -0.3143  0.5738  1.1326
   18DOPE  C218 2272  -0.103   3.817   4.965 -0.6941 -0.2311  0.1792
   18DOPE  H18R 2273  -0.138   3.878   4.879  0.2457  0.3468  0.1887
   18DOPE  H18S 2274  -0.175   3.734   4.983  0.4624 -1.1623  0.6254
   18DOPE  H18T 2275   0.001   3.785   4.947 -1.8853 -4.2934 -0.4272
   18DOPE   C33 2276   0.164   3.786   6.190 -0.2788 -0.0718 -0.4629
   18DOPE   H3X 2277   0.206   3.889   6.199 -0.6134  0.0595 -0.4237
   18DOPE   H3Y 2278   0.055   3.803   6.177 -0.3103 -0.0117 -0.1166
   18DOPE   C34 2279   0.221   3.702   6.067 -0.7824  0.3419 -0.3436
   18DOPE   H4X 2280   0.182   3.750   5.974 -2.9729  0.5277  0.5956
   18DOPE   H4Y 2281   0.332   3.712   6.071 -0.4342 -2.5579 -0.9146
   18DOPE   C35 2282   0.183   3.548   6.067  0.1836 -0.2894  0.3227
   18DOPE   H5X 2283   0.079   3.545   6.104  0.2031  0.9756  0.5417
   18DOPE   H5Y 2284   0.244   3.487   6.137  0.8771  1.0240  0.8948
   18DOPE   C36 2285   0.188   3.491   5.923 -0.1871  0.0666  0.3730
   18DOPE   H6X 2286   0.289   3.479   5.879 -0.5471  0.1226 -0.4950
   18DOPE   H6Y 2287   0.138   3.561   5.852  0.0195 -0.6707 -0.5079
   18DOPE   C37 2288   0.108   3.366   5.903  0.0447  0.7823 -0.0482
   18DOPE   H7X 2289   0.146   3.291   5.976 -0.1178 -0.0228 -0.7717
   18DOPE   H7Y 2290   0.005   3.392   5.934 -0.6505 -2.6137  0.8786
   18DOPE   C38 2291   0.097   3.299   5.763 -0.4101 -0.3134  0.5151
   18DOPE   H8X 2292   0.050   3.371   5.693 -0.9080 -0.9372  0.1973
   18DOPE   H8Y 2293   0.016   3.223   5.767  0.0639 -0.9362 -0.8139
   18DOPE   C39 2294   0.218   3.223   5.709 -0.1705 -0.1931  0.3069
   18DOPE   H9X 2295   0.287   3.192   5.788 -0.5354 -3.5830 -0.5785
   18DOPE  C310 2296   0.257   3.203   5.584 -0.3450  0.0839  0.4356
   18DOPE  H10X 2297   0.363   3.179   5.567 -0.7807 -2.3303  0.8201
   18DOPE  C311 2298   0.174   3.237   5.464  0.0766  0.4904  0.2906
   18DOPE  H11X 2299   0.135   3.153   5.404 -0.9341  2.4153 -1.9291
   18DOPE  H11Y 2300   0.088   3.301   5.494 -0.9772 -0.7531 -0.0045
   18DOPE  C312 2301   0.262   3.307   5.349 -0.3017 -0.2671  0.1567
   18DOPE  H12X 2302   0.336   3.375   5.395 -0.7852 -1.6404  3.2198
   18DOPE  H12Y 2303   0.200   3.373   5.285  1.7816  0.7453 -0.9057
   18DOPE  C313 2304   0.336   3.209   5.251 -0.6493 -0.3479  0.0122
   18DOPE  H13X 2305   0.395   3.150   5.325  0.7081  2.3050  1.2043
   18DOPE  H13Y 2306   0.266   3.141   5.199  0.6051 -0.5159 -1.5281
   18DOPE  C314 2307   0.432   3.280   5.159  0.1512  0.2543  0.4891
   18DOPE  H14X 2308   0.499   3.345   5.218  2.3940 -2.6819  1.4361
   18DOPE  H14Y 2309   0.375   3.337   5.082  1.2378  0.4110 -0.2139
   18DOPE  C315 2310   0.530   3.183   5.095 -0.3474  0.6925  0.5603
   18DOPE  H15X 2311   0.578   3.137   5.184 -1.4385  1.2838  1.4958
   18DOPE  H15Y 2312   0.610   3.241   5.043  0.4591  0.5912  1.6486
   18DOPE  C316 2313   0.478   3.070   5.001 -0.1747  0.2519  0.6150
   18DOPE  H16X 2314   0.384   3.028   5.044  0.0969 -0.6121  0.3815
   18DOPE  H16Y 2315   0.547   2.984   4.999  0.2615  0.6105 -0.9876
   18DOPE  C317 2316   0.444   3.114   4.856  0.0747 -0.6245 -0.1997
   18DOPE  H17X 2317   0.370   3.196   4.848 -1.0744 -1.5477  0.5934
   18DOPE  H17Y 2318   0.542   3.158   4.829  0.3980 -0.3373  1.3979
   18DOPE  C318 2319   0.398   3.003   4.764  0.4804 -0.2841 -0.0631
   18DOPE  H18X 2320   0.471   2.920   4.771 -0.0700 -0.7251  0.5000
   18DOPE  H18Y 2321   0.304   2.952   4.793  1.3023 -2.0321 -0.3183
   18DOPE  H18Z 2322   0.393   3.036   4.658  2.6787  1.0860  0.1957
   19DOPE     N 2323   7.290   4.479   6.954 -0.2870  0.3346  0.6665
   19DOPE   HN1 2324   7.241   4.570   6.945  1.1306  0.9661 -1.2965
   19DOPE   HN2 2325   7.378   4.481   7.010 -0.0328 -1.6697  0.3924
   19DOPE   HN3 2326   7.325   4.448   6.862 -2.5304 -0.0847 -0.1003
   19DOPE   C12 2327   7.203   4.371   7.003  0.5166  0.3258  0.2775
   19DOPE  H12A 2328   7.262   4.279   7.026 -0.8445 -0.2637  1.6325
   19DOPE  H12B 2329   7.124   4.343   6.931 -0.4016 -1.2797  1.8305
   19DOPE   C11 2330   7.146   4.424   7.130  0.4086 -0.6646 -0.8454
   19DOPE  H11A 2331   7.225   4.457   7.201 -0.5367  2.8095 -1.2408
   19DOPE  H11B 2332   7.104   4.331   7.174 -0.1164 -0.0951 -0.1361
   19DOPE     P 2333   6.954   4.556   7.234 -0.0672 -0.4837  0.1132
   19DOPE   O13 2334   7.036   4.630   7.330  0.3692 -0.1038 -0.1100
   19DOPE   O14 2335   6.892   4.431   7.284  0.2056  0.1768 -0.0113
   19DOPE   O11 2336   6.849   4.656   7.175  0.3903  0.4015 -0.2180
   19DOPE   O12 2337   7.047   4.519   7.111 -0.0530 -0.0479 -0.4354
   19DOPE    C1 2338   6.724   4.611   7.123  0.1865 -0.0778  0.2519
   19DOPE    HA 2339   6.665   4.700   7.092  1.1123 -0.1375 -1.8737
   19DOPE    HB 2340   6.667   4.546   7.193  0.7604 -0.9691 -0.0900
   19DOPE    C2 2341   6.751   4.536   6.982 -0.0898 -0.3073  0.2924
   19DOPE    HS 2342   6.816   4.450   7.008 -0.5370 -0.0174  2.5985
   19DOPE   O21 2343   6.819   4.627   6.886  0.3008 -0.3629 -0.1872
   19DOPE   C21 2344   6.900   4.558   6.800 -0.3683 -0.4418 -0.3011
   19DOPE   O22 2345   6.924   4.439   6.808 -0.2271 -0.1539  0.1869
   19DOPE   C22 2346   6.949   4.661   6.695 -0.2783  0.1051 -0.2933
   19DOPE   H2R 2347   6.957   4.755   6.752 -2.4873 -0.7497  1.5537
   19DOPE   H2S 2348   6.874   4.669   6.613 -1.1116 -0.4329  0.4027
   19DOPE    C3 2349   6.617   4.487   6.921  0.0442 -0.4413 -0.1216
   19DOPE    HX 2350   6.533   4.560   6.925  1.5761  1.7313 -3.2734
   19DOPE    HY 2351   6.585   4.398   6.980 -0.9163 -0.7761 -1.1074
   19DOPE   O31 2352   6.636   4.440   6.787 -0.2578  0.0332 -0.5112
   19DOPE   C31 2353   6.568   4.499   6.694 -0.4840 -0.2296 -0.0159
   19DOPE   O32 2354   6.481   4.586   6.710  0.0911  0.4935 -0.8969
   19DOPE   C32 2355   6.612   4.436   6.561  0.2767 -0.2654  0.5890
   19DOPE   H2X 2356   6.722   4.443   6.545  0.5425 -1.0604  1.9337
   19DOPE   H2Y 2357   6.581   4.329   6.558  1.0594 -0.4731 -0.5167
   19DOPE   C23 2358   7.089   4.644   6.632 -0.6105  0.4319  0.7001
   19DOPE   H3R 2359   7.156   4.603   6.710 -0.9088 -3.9760 -1.0683
   19DOPE   H3S 2360   7.121   4.743   6.592  1.3612 -0.8281 -1.0678
   19DOPE   C24 2361   7.084   4.555   6.509  0.1788  0.5386  0.1385
   19DOPE   H4R 2362   7.018   4.585   6.424  0.5581 -0.4462 -0.5262
   19DOPE   H4S 2363   7.040   4.464   6.556  0.4755  0.2296 -0.1704
   19DOPE   C25 2364   7.220   4.524   6.448  0.9670 -0.1896  0.0891
   19DOPE   H5R 2365   7.282   4.471   6.523  0.8951 -1.9336 -1.0392
   19DOPE   H5S 2366   7.277   4.618   6.432  2.1880 -0.4827  2.3557
   19DOPE   C26 2367   7.207   4.440   6.323 -0.2767  0.3067  0.1805
   19DOPE   H6R 2368   7.119   4.472   6.263 -1.0983 -1.1305  0.5541
   19DOPE   H6S 2369   7.193   4.342   6.375 -1.4943  1.7018  2.6843
   19DOPE   C27 2370   7.333   4.436   6.234 -0.6777 -0.2963 -0.4776
   19DOPE   H7R 2371   7.421   4.417   6.299 -0.3965  0.3302 -0.6573
   19DOPE   H7S 2372   7.335   4.537   6.186 -0.2188  0.4832  1.1240
   19DOPE   C28 2373   7.338   4.325   6.129 -0.0892  0.7926 -0.0366
   19DOPE   H8R 2374   7.252   4.339   6.059  2.0798  3.5813 -2.4472
   19DOPE   H8S 2375   7.330   4.228   6.182  1.0906  0.4349 -0.4685
   19DOPE   C29 2376   7.469   4.325   6.052  0.2249 -0.1527  0.7687
   19DOPE   H9R 2377   7.559   4.333   6.114 -0.0173 -0.0592  1.1124
   19DOPE  C210 2378   7.489   4.327   5.917  0.1611  0.0091  0.1320
   19DOPE  H10R 2379   7.593   4.322   5.882 -0.7003 -0.4491 -2.5466
   19DOPE  C211 2380   7.385   4.338   5.806  0.5788 -0.0187  0.1749
   19DOPE  H11R 2381   7.338   4.438   5.794 -0.9352 -0.7819 -0.4295
   19DOPE  H11S 2382   7.306   4.268   5.838 -1.7529  1.8596 -1.1602
   19DOPE  C212 2383   7.423   4.292   5.667 -0.2303  0.3657  0.2073
   19DOPE  H12R 2384   7.334   4.293   5.601 -0.5374 -1.6952  0.5189
   19DOPE  H12S 2385   7.466   4.189   5.667  0.1868  0.4212 -2.9707
   19DOPE  C213 2386   7.529   4.380   5.603 -0.2572  0.2554 -0.2100
   19DOPE  H13R 2387   7.611   4.416   5.669  0.8979 -0.2035 -1.3570
   19DOPE  H13S 2388   7.477   4.470   5.565  0.7320  0.3513 -1.3928
   19DOPE  C214 2389   7.605   4.332   5.478 -0.0648  0.4126 -0.5845
   19DOPE  H14R 2390   7.667   4.245   5.508 -0.7518  0.8112  2.3198
   19DOPE  H14S 2391   7.675   4.411   5.443  0.2106 -0.3795 -1.8623
   19DOPE  C215 2392   7.508   4.302   5.368  0.3364 -0.0331 -0.2660
   19DOPE  H15R 2393   7.434   4.385   5.360 -1.0988 -1.3216 -0.7910
   19DOPE  H15S 2394   7.444   4.216   5.397 -0.1876  0.5050  0.2021
   19DOPE  C216 2395   7.557   4.289   5.228 -0.5526  0.0192 -0.1719
   19DOPE  H16R 2396   7.647   4.223   5.225 -0.3334  0.2867  0.3687
   19DOPE  H16S 2397   7.608   4.380   5.189  2.2043 -1.8618 -1.3008
   19DOPE  C217 2398   7.454   4.265   5.120  0.7025 -0.5881  0.3659
   19DOPE  H17R 2399   7.376   4.343   5.106 -0.3125 -1.3981  1.2909
   19DOPE  H17S 2400   7.389   4.176   5.133 -0.9597  0.6843  1.2490
   19DOPE  C218 2401   7.515   4.255   4.974  0.3156  0.2004  0.4780
   19DOPE  H18R 2402   7.576   4.341   4.941 -0.6506  0.2512 -1.2784
   19DOPE  H18S 2403   7.427   4.262   4.906  0.6558  1.7004  0.1524
   19DOPE  H18T 2404   7.573   4.161   4.967  2.0518  1.1413  1.5954
   19DOPE   C33 2405   6.552   4.505   6.438 -0.5861 -0.5062 -0.1221
   19DOPE   H3X 2406   6.572   4.614   6.428 -0.4165 -0.6716 -1.8694
   19DOPE   H3Y 2407   6.443   4.489   6.448 -0.4164 -1.6461  0.0277
   19DOPE   C34 2408   6.598   4.433   6.314 -0.0549  0.0235  0.1783
   19DOPE   H4X 2409   6.634   4.330   6.334  3.1060  0.7522 -1.2452
   19DOPE   H4Y 2410   6.511   4.422   6.246  1.2752 -1.0265 -1.4494
   19DOPE   C35 2411   6.706   4.514   6.240  0.3801 -0.0420 -0.2622
   19DOPE   H5X 2412   6.809   4.505   6.279  0.4421  2.5414  0.3303
   19DOPE   H5Y 2413   6.695   4.625   6.244 -0.1100 -0.0132 -1.6214
   19DOPE   C36 2414   6.711   4.476   6.095  0.6220  0.1943  0.1712
   19DOPE   H6X 2415   6.611   4.500   6.052  0.0643 -2.9035 -0.5113
   19DOPE   H6Y 2416   6.724   4.369   6.068 -0.7795  0.5091 -2.0379
   19DOPE   C37 2417   6.826   4.548   6.022  0.2066 -0.0906  0.2861
   19DOPE   H7X 2418   6.831   4.658   6.038 -0.1889  0.3679 -2.3482
   19DOPE   H7Y 2419   6.921   4.497   6.048 -0.3452 -1.2107  0.1676
   19DOPE   C38 2420   6.822   4.530   5.869  0.3734  0.1445  0.2120
   19DOPE   H8X 2421   6.826   4.431   5.819  0.0093 -0.8444  2.0788
   19DOPE   H8Y 2422   6.925   4.567   5.849  1.0617 -0.7009  2.0133
   19DOPE   C39 2423   6.702   4.603   5.813  0.1204  0.5587 -0.4139
   19DOPE   H9X 2424   6.677   4.696   5.865 -1.6714  0.9558 -1.8610
   19DOPE  C310 2425   6.625   4.568   5.711  0.0987  0.9097 -0.7082
   19DOPE  H10X 2426   6.563   4.649   5.670  0.2339  0.3666 -2.0368
   19DOPE  C311 2427   6.630   4.439   5.636  0.1234  1.0977 -0.4028
   19DOPE  H11X 2428   6.697   4.361   5.678 -1.3351 -0.0800 -0.1794
   19DOPE  H11Y 2429   6.529   4.391   5.638  0.3271  0.6726 -0.1975
   19DOPE  C312 2430   6.668   4.465   5.491  0.5249 -0.0843 -0.5749
   19DOPE  H12X 2431   6.712   4.368   5.460  2.1602 -0.5059  2.6042
   19DOPE  H12Y 2432   6.753   4.536   5.479  0.1861  0.3344 -0.5119
   19DOPE  C313 2433   6.551   4.501   5.402 -0.0619  0.7079 -0.2190
   19DOPE  H13X 2434   6.480   4.416   5.400 -0.6613  1.0893  2.1546
   19DOPE  H13Y 2435   6.497   4.589   5.444 -0.1306  1.0978 -1.0920
   19DOPE  C314 2436   6.595   4.533   5.255 -0.1702 -0.7560 -0.9056
   19DOPE  H14X 2437   6.704   4.546   5.240 -0.2702  0.5377 -0.6233
   19DOPE  H14Y 2438   6.550   4.634   5.243  1.7185  0.4015  0.9117
   19DOPE  C315 2439   6.544   4.424   5.160  0.2172  0.1562 -0.3565
   19DOPE  H15X 2440   6.434   4.438   5.163  0.2945  0.9304 -0.8496
   19DOPE  H15Y 2441   6.573   4.330   5.212  0.8473  1.9416  2.7804
   19DOPE  C316 2442   6.611   4.434   5.024 -0.2966 -0.2939  0.0243
   19DOPE  H16X 2443   6.600   4.544   5.013 -0.9161 -0.0565  2.4379
   19DOPE  H16Y 2444   6.551   4.390   4.941 -0.3482  0.4357 -0.3298
   19DOPE  C317 2445   6.753   4.379   5.003  0.0184  0.1861 -0.4125
   19DOPE  H17X 2446   6.824   4.459   5.035 -1.1981  0.4759  1.7825
   19DOPE  H17Y 2447   6.764   4.299   5.080  0.2802 -0.9965 -1.6414
   19DOPE  C318 2448   6.773   4.316   4.861  0.0306 -0.5798  0.0950
   19DOPE  H18X 2449   6.760   4.392   4.781 -2.7064  0.3572  1.3264
   19DOPE  H18Y 2450   6.879   4.286   4.843 -0.1414 -0.3379 -1.4363
   19DOPE  H18Z 2451   6.708   4.229   4.841  1.4212 -1.4859 -0.6772
   20DOPE     N 2452   5.264   6.773   6.807 -0.5358 -0.0933  0.3976
   20DOPE   HN1 2453   5.343   6.829   6.769  1.3685 -1.3967  2.1773
   20DOPE   HN2 2454   5.270   6.675   6.770 -1.6418 -0.0757  0.1261
   20DOPE   HN3 2455   5.180   6.813   6.761  0.4066  0.3025 -1.0209
   20DOPE   C12 2456   5.254   6.780   6.959 -0.1136 -0.8614 -0.6107
   20DOPE  H12A 2457   5.340   6.737   7.015  0.6585  1.0764 -0.2264
   20DOPE  H12B 2458   5.162   6.736   7.002 -0.9486  0.4121 -1.0502
   20DOPE   C11 2459   5.235   6.930   6.992 -0.1811  0.1230  0.0559
   20DOPE  H11A 2460   5.184   6.938   7.090 -0.5915 -1.5409  0.0153
   20DOPE  H11B 2461   5.165   6.982   6.923 -0.5735 -0.3383  0.1048
   20DOPE     P 2462   5.432   7.063   7.104 -0.5862 -0.0124 -0.1464
   20DOPE   O13 2463   5.577   7.048   7.100  0.1802  0.1579 -0.2364
   20DOPE   O14 2464   5.361   7.034   7.232 -0.4581 -0.3809  0.0282
   20DOPE   O11 2465   5.413   7.215   7.078 -0.1491  0.0020 -1.1478
   20DOPE   O12 2466   5.365   6.995   6.983 -0.1782  0.4788 -0.2378
   20DOPE    C1 2467   5.333   7.273   6.979 -0.5941  0.0784  0.1609
   20DOPE    HA 2468   5.308   7.372   7.022 -1.8969 -1.1126  2.3534
   20DOPE    HB 2469   5.235   7.221   6.979 -0.6226  0.1061  1.1585
   20DOPE    C2 2470   5.404   7.275   6.838 -0.2152 -0.3923  0.1001
   20DOPE    HS 2471   5.434   7.173   6.807  3.3183  0.1736  1.1396
   20DOPE   O21 2472   5.527   7.352   6.846  0.6862 -0.8106 -0.0524
   20DOPE   C21 2473   5.651   7.300   6.843 -0.4671  0.1791  0.1398
   20DOPE   O22 2474   5.681   7.185   6.822  0.0790 -0.3598 -0.2861
   20DOPE   C22 2475   5.761   7.407   6.872  0.1298  0.0326  0.4029
   20DOPE   H2R 2476   5.854   7.349   6.893 -1.1756 -1.8187  1.3181
   20DOPE   H2S 2477   5.734   7.477   6.954  1.2582 -0.6034  1.3509
   20DOPE    C3 2478   5.316   7.339   6.729 -0.0866  0.5287 -0.2669
   20DOPE    HX 2479   5.303   7.447   6.750  1.8282  0.6422  0.5515
   20DOPE    HY 2480   5.220   7.283   6.733  0.1819  0.1170  1.2602
   20DOPE   O31 2481   5.374   7.326   6.597 -0.5736 -0.6368  0.1065
   20DOPE   C31 2482   5.289   7.370   6.507  0.0383  0.5258  0.5157
   20DOPE   O32 2483   5.174   7.413   6.523 -0.8769  0.6724  0.7477
   20DOPE   C32 2484   5.357   7.349   6.369 -0.3599 -1.1210 -0.1560
   20DOPE   H2X 2485   5.459   7.394   6.364 -0.7317  0.2294  2.5051
   20DOPE   H2Y 2486   5.354   7.239   6.359 -0.2914 -1.0540 -1.0316
   20DOPE   C23 2487   5.788   7.502   6.747 -0.1700  0.8701 -0.3546
   20DOPE   H3R 2488   5.831   7.598   6.781  0.2166  0.9662 -1.0883
   20DOPE   H3S 2489   5.688   7.530   6.707 -0.9555 -0.6092  0.4950
   20DOPE   C24 2490   5.895   7.449   6.650  0.8100  0.3248  0.1436
   20DOPE   H4R 2491   5.985   7.406   6.698  1.7912 -1.3822 -2.9182
   20DOPE   H4S 2492   5.937   7.532   6.588  1.1983 -0.3478 -0.5049
   20DOPE   C25 2493   5.854   7.334   6.552 -0.1424  0.0015 -1.3219
   20DOPE   H5R 2494   5.811   7.252   6.613 -2.7054 -0.2932 -3.3436
   20DOPE   H5S 2495   5.945   7.302   6.497  0.5547  2.8562 -1.9996
   20DOPE   C26 2496   5.756   7.377   6.447  0.6580 -0.1650 -0.7190
   20DOPE   H6R 2497   5.686   7.452   6.491  0.3951  1.3904 -3.5578
   20DOPE   H6S 2498   5.691   7.292   6.417 -0.1914  0.5476 -0.9594
   20DOPE   C27 2499   5.819   7.441   6.320  0.4089  0.4017 -0.3641
   20DOPE   H7R 2500   5.893   7.366   6.287  0.6370 -0.2475  1.4901
   20DOPE   H7S 2501   5.869   7.536   6.346 -0.2570  0.6857 -0.0731
   20DOPE   C28 2502   5.712   7.468   6.217  0.3968 -0.8764  0.8071
   20DOPE   H8R 2503   5.652   7.553   6.257  1.3211  0.8368 -1.2342
   20DOPE   H8S 2504   5.638   7.385   6.213 -1.1599  0.4931 -0.0185
   20DOPE   C29 2505   5.769   7.499   6.081  0.5578  0.0055 -0.7733
   20DOPE   H9R 2506   5.843   7.428   6.042 -0.1124  0.2299 -2.5799
   20DOPE  C210 2507   5.734   7.608   6.006 -0.0976 -0.4765  0.0215
   20DOPE  H10R 2508   5.777   7.619   5.905  1.4431 -1.2721  0.5581
   20DOPE  C211 2509   5.637   7.708   6.045 -0.3309 -0.0854 -0.0036
   20DOPE  H11R 2510   5.664   7.806   5.999 -0.2696  0.3662  0.9499
   20DOPE  H11S 2511   5.646   7.725   6.155  0.5777  1.8132 -0.3130
   20DOPE  C212 2512   5.483   7.681   6.008 -0.6742 -0.2634  0.4367
   20DOPE  H12R 2513   5.453   7.588   6.060  0.2281 -0.0818  1.3135
   20DOPE  H12S 2514   5.463   7.661   5.900  0.2758 -0.2089  0.2378
   20DOPE  C213 2515   5.405   7.804   6.062 -0.2823 -0.7111 -0.6428
   20DOPE  H13R 2516   5.443   7.893   6.007 -0.5150  2.3713  3.6813
   20DOPE  H13S 2517   5.438   7.822   6.166 -0.2135 -1.4717 -0.5306
   20DOPE  C214 2518   5.254   7.803   6.040 -0.1857 -0.5154  0.4925
   20DOPE  H14R 2519   5.203   7.877   6.105  0.3993 -0.2880  0.6969
   20DOPE  H14S 2520   5.215   7.702   6.066 -0.7642 -0.3143  0.4180
   20DOPE  C215 2521   5.213   7.824   5.889 -0.3660  0.2305 -0.4441
   20DOPE  H15R 2522   5.290   7.772   5.828  0.8605  0.9687  0.4466
   20DOPE  H15S 2523   5.212   7.930   5.855 -0.5760 -0.1214 -1.5977
   20DOPE  C216 2524   5.078   7.761   5.873 -0.0453 -0.2293  0.4066
   20DOPE  H16R 2525   5.010   7.814   5.943  1.9168  1.4836  1.1539
   20DOPE  H16S 2526   5.062   7.656   5.904  0.5720 -1.6494 -3.5817
   20DOPE  C217 2527   5.020   7.779   5.737 -0.5187  0.2660  0.4334
   20DOPE  H17R 2528   5.054   7.697   5.669  0.3435 -0.9264  2.2168
   20DOPE  H17S 2529   5.054   7.877   5.697 -1.1620  0.0485 -0.6838
   20DOPE  C218 2530   4.875   7.783   5.745 -0.4387 -0.1247 -1.1075
   20DOPE  H18R 2531   4.830   7.802   5.646 -0.0467  1.3027 -1.0280
   20DOPE  H18S 2532   4.841   7.861   5.818  0.9219 -1.3385  0.9290
   20DOPE  H18T 2533   4.834   7.689   5.788 -1.4287  0.5235 -0.5903
   20DOPE   C33 2534   5.268   7.401   6.257 -0.7446  0.5513  0.7203
   20DOPE   H3X 2535   5.259   7.512   6.253 -0.2571  0.5946  0.8222
   20DOPE   H3Y 2536   5.167   7.357   6.267 -0.4690  0.0617  1.3791
   20DOPE   C34 2537   5.319   7.357   6.117 -0.4648  0.9539  0.2292
   20DOPE   H4X 2538   5.419   7.394   6.087 -0.2001 -1.0271 -1.5929
   20DOPE   H4Y 2539   5.327   7.247   6.106 -3.1159  0.7973 -0.9909
   20DOPE   C35 2540   5.216   7.392   6.007 -0.2250  0.0778  0.2366
   20DOPE   H5X 2541   5.203   7.502   5.998 -0.8504 -0.0599 -0.6288
   20DOPE   H5Y 2542   5.115   7.353   6.032 -1.2784  0.6890 -2.6746
   20DOPE   C36 2543   5.248   7.344   5.862  0.1253  0.1115 -0.7353
   20DOPE   H6X 2544   5.284   7.239   5.869  1.8402  0.6886 -0.3049
   20DOPE   H6Y 2545   5.330   7.410   5.824  2.6146 -2.0227  0.6273
   20DOPE   C37 2546   5.128   7.344   5.765  0.6936 -0.0539 -0.5840
   20DOPE   H7X 2547   5.057   7.270   5.807  0.5840  0.7045  0.6097
   20DOPE   H7Y 2548   5.090   7.448   5.778 -0.8244 -0.6021 -0.4615
   20DOPE   C38 2549   5.164   7.319   5.621  0.0802  0.1142 -0.2136
   20DOPE   H8X 2550   5.255   7.377   5.595 -0.2315  0.0560 -1.5036
   20DOPE   H8Y 2551   5.079   7.346   5.555  1.0000 -1.9596 -2.3967
   20DOPE   C39 2552   5.186   7.172   5.601  0.2300 -0.3745 -0.1042
   20DOPE   H9X 2553   5.293   7.147   5.608  1.0633  2.0618 -2.3601
   20DOPE  C310 2554   5.097   7.073   5.559  0.2795 -0.1914  0.0475
   20DOPE  H10X 2555   5.142   6.976   5.531  2.8799  0.4855  1.5660
   20DOPE  C311 2556   4.956   7.092   5.524 -0.0744  0.3587  0.2284
   20DOPE  H11X 2557   4.886   7.058   5.604 -0.6910 -2.0278 -1.2287
   20DOPE  H11Y 2558   4.941   7.202   5.520  1.3934  0.5469 -1.3155
   20DOPE  C312 2559   4.908   7.033   5.388 -0.2419  0.2576 -0.2582
   20DOPE  H12X 2560   4.946   6.931   5.366 -1.9499 -0.0847 -1.9218
   20DOPE  H12Y 2561   4.940   7.092   5.300  0.8896 -1.8197 -1.3077
   20DOPE  C313 2562   4.753   7.020   5.403  0.0465  0.2972  0.4290
   20DOPE  H13X 2563   4.728   6.976   5.502 -0.3436  2.3133  1.2628
   20DOPE  H13Y 2564   4.703   7.118   5.399  1.2752  0.9321  0.0817
   20DOPE  C314 2565   4.680   6.949   5.287 -0.4979  0.1133  0.4065
   20DOPE  H14X 2566   4.709   6.845   5.261 -1.6308 -0.1927  0.2855
   20DOPE  H14Y 2567   4.695   7.007   5.194 -1.1919  0.3809  0.4552
   20DOPE  C315 2568   4.524   6.951   5.307 -0.1869 -0.1017  0.7230
   20DOPE  H15X 2569   4.487   6.885   5.225  1.1903 -0.6418  0.5134
   20DOPE  H15Y 2570   4.480   7.052   5.290  0.2668 -0.1123 -0.6058
   20DOPE  C316 2571   4.482   6.908   5.449  0.0928 -0.3471  0.3546
   20DOPE  H16X 2572   4.508   6.981   5.528 -1.5522 -0.2523  0.8595
   20DOPE  H16Y 2573   4.544   6.820   5.477 -2.5961 -2.0419  1.4620
   20DOPE  C317 2574   4.332   6.873   5.474 -0.7182  0.1143  0.0531
   20DOPE  H17X 2575   4.332   6.829   5.576 -0.4010  0.3417  0.1524
   20DOPE  H17Y 2576   4.264   6.961   5.466  1.4302  1.7806 -0.6522
   20DOPE  C318 2577   4.265   6.767   5.382  0.1218 -0.2702  0.0391
   20DOPE  H18X 2578   4.278   6.803   5.278 -0.9082  0.5616  0.1780
   20DOPE  H18Y 2579   4.301   6.663   5.395  0.3831  0.0252  1.9985
   20DOPE  H18Z 2580   4.155   6.765   5.397  0.1439 -0.3662  0.1931
   21DOPE     N 2581   2.892   6.163   7.343 -0.1417  0.3274 -0.0836
   21DOPE   HN1 2582   2.915   6.208   7.434 -0.7065 -2.3495  1.4633
   21DOPE   HN2 2583   2.789   6.165   7.330 -0.3711 -3.3127  0.2184
   21DOPE   HN3 2584   2.914   6.062   7.347 -2.5479 -0.2504 -0.1856
   21DOPE   C12 2585   2.970   6.232   7.234  0.2450 -0.3855  0.9222
   21DOPE  H12A 2586   3.049   6.302   7.269  0.0453 -0.6385  1.9266
   21DOPE  H12B 2587   2.904   6.305   7.182  2.3403  0.0314 -1.3372
   21DOPE   C11 2588   3.035   6.118   7.145 -0.4823  0.0786  0.1437
   21DOPE  H11A 2589   3.085   6.042   7.209 -1.4437  0.5647  1.5022
   21DOPE  H11B 2590   3.116   6.168   7.088  0.1991 -0.2811  0.7672
   21DOPE     P 2591   2.843   5.950   7.076 -0.6137  0.2705 -0.1135
   21DOPE   O13 2592   2.814   5.946   7.224 -0.0998 -0.4856  0.2376
   21DOPE   O14 2593   2.879   5.819   7.012  0.1565 -0.0904 -0.1187
   21DOPE   O11 2594   2.713   5.997   7.005 -0.4291  0.1208 -0.1435
   21DOPE   O12 2595   2.950   6.052   7.053  0.6383 -0.0612  0.1261
   21DOPE    C1 2596   2.701   6.129   6.947 -0.2092 -0.5997  0.2015
   21DOPE    HA 2597   2.797   6.161   6.901  0.1922  1.0073  2.0082
   21DOPE    HB 2598   2.686   6.209   7.023  2.6155  1.4081 -1.1722
   21DOPE    C2 2599   2.568   6.131   6.858 -0.2076  0.5650  0.4068
   21DOPE    HS 2600   2.488   6.107   6.932  2.0402 -3.2816  1.9051
   21DOPE   O21 2601   2.574   6.032   6.753  0.5131  0.0312  0.0056
   21DOPE   C21 2602   2.471   5.953   6.744 -0.4887 -1.5959 -0.0544
   21DOPE   O22 2603   2.362   5.969   6.797  0.1687  0.2625  0.2213
   21DOPE   C22 2604   2.509   5.848   6.648 -0.2112 -0.8904 -0.3039
   21DOPE   H2R 2605   2.429   5.771   6.648 -0.9043 -0.2026 -1.3611
   21DOPE   H2S 2606   2.601   5.811   6.698 -1.8378  0.2183  3.9734
   21DOPE    C3 2607   2.540   6.269   6.790 -0.0066  0.1636 -1.0390
   21DOPE    HX 2608   2.550   6.349   6.866 -0.7657  0.2907 -1.0662
   21DOPE    HY 2609   2.433   6.270   6.759 -0.9987 -0.1240  2.0585
   21DOPE   O31 2610   2.630   6.296   6.682  0.5509  0.3878 -0.0548
   21DOPE   C31 2611   2.571   6.295   6.557 -0.1647 -0.3242  0.1804
   21DOPE   O32 2612   2.453   6.291   6.536 -0.4681 -0.2309  0.5258
   21DOPE   C32 2613   2.682   6.287   6.444  0.7603 -0.2499  0.1203
   21DOPE   H2X 2614   2.779   6.285   6.498  1.8162 -1.2587 -1.7304
   21DOPE   H2Y 2615   2.676   6.188   6.394  0.5964 -0.5839  0.7803
   21DOPE   C23 2616   2.534   5.888   6.499  0.1107  0.7605  0.0191
   21DOPE   H3R 2617   2.558   5.793   6.447 -1.9923  0.1982  0.0192
   21DOPE   H3S 2618   2.620   5.958   6.489 -0.4319  1.1962 -2.3756
   21DOPE   C24 2619   2.412   5.958   6.431 -0.4284  0.1166  0.1080
   21DOPE   H4R 2620   2.405   6.055   6.484 -0.4590 -0.2298  0.7534
   21DOPE   H4S 2621   2.321   5.898   6.453  0.9279 -2.1537 -0.0845
   21DOPE   C25 2622   2.435   5.980   6.274  0.3617 -0.0184 -0.9256
   21DOPE   H5R 2623   2.454   5.881   6.227  1.6432 -1.4271  2.2963
   21DOPE   H5S 2624   2.521   6.050   6.274  1.5558 -1.2830 -3.8760
   21DOPE   C26 2625   2.320   6.056   6.199 -0.1707  0.1349  0.1100
   21DOPE   H6R 2626   2.302   6.155   6.247 -3.5141 -0.8629  1.1827
   21DOPE   H6S 2627   2.227   5.996   6.209  0.2752 -0.6615 -0.4265
   21DOPE   C27 2628   2.361   6.076   6.048  0.3238 -1.1922 -0.3120
   21DOPE   H7R 2629   2.267   6.076   5.988 -0.3995 -1.4559  0.8029
   21DOPE   H7S 2630   2.425   5.990   6.018 -0.2452 -0.9027 -2.5414
   21DOPE   C28 2631   2.444   6.201   6.026  0.9036 -0.2813 -0.2063
   21DOPE   H8R 2632   2.505   6.196   5.933 -0.5616 -0.4173 -1.2000
   21DOPE   H8S 2633   2.516   6.213   6.109  1.1784  1.7906 -0.6884
   21DOPE   C29 2634   2.347   6.319   6.005 -0.4525 -0.3030 -0.8093
   21DOPE   H9R 2635   2.336   6.377   6.098  0.3487  0.8961 -1.4360
   21DOPE  C210 2636   2.310   6.373   5.892  0.1871 -0.4289  0.1012
   21DOPE  H10R 2637   2.243   6.460   5.898  0.2488 -0.3642 -0.1763
   21DOPE  C211 2638   2.335   6.322   5.751 -0.4107  0.1597 -0.3650
   21DOPE  H11R 2639   2.291   6.220   5.741 -0.6017  0.0595  1.3128
   21DOPE  H11S 2640   2.443   6.305   5.733 -0.1089  0.4718  1.0735
   21DOPE  C212 2641   2.270   6.415   5.645  1.0356  0.5744  0.5352
   21DOPE  H12R 2642   2.318   6.516   5.645  2.6346 -0.1508  0.7462
   21DOPE  H12S 2643   2.160   6.426   5.653  1.0753  3.3805 -1.2787
   21DOPE  C213 2644   2.279   6.352   5.502  0.3367 -0.5845  0.7323
   21DOPE  H13R 2645   2.218   6.259   5.498 -0.6122  0.0507 -1.6708
   21DOPE  H13S 2646   2.385   6.325   5.484  0.2363  0.4037 -1.6596
   21DOPE  C214 2647   2.241   6.461   5.406 -0.0618 -0.2739  0.1790
   21DOPE  H14R 2648   2.306   6.551   5.407 -1.0136  0.5098 -2.1157
   21DOPE  H14S 2649   2.140   6.496   5.437  0.8797  1.7618  1.1300
   21DOPE  C215 2650   2.233   6.410   5.260  0.3510 -0.5434  0.3455
   21DOPE  H15R 2651   2.144   6.345   5.249  0.4325 -0.5724 -0.1936
   21DOPE  H15S 2652   2.325   6.352   5.241 -0.2254 -1.9746  1.7078
   21DOPE  C216 2653   2.213   6.527   5.161 -0.7638 -0.1846  0.1673
   21DOPE  H16R 2654   2.295   6.602   5.164  1.2546 -1.9056 -4.1264
   21DOPE  H16S 2655   2.122   6.572   5.207 -0.6982 -0.4763  0.5954
   21DOPE  C217 2656   2.185   6.496   5.010  0.0985 -0.0461  0.3327
   21DOPE  H17R 2657   2.132   6.582   4.963 -0.5612 -1.0472 -0.8114
   21DOPE  H17S 2658   2.111   6.414   4.999 -0.9053  1.0744 -1.8903
   21DOPE  C218 2659   2.316   6.471   4.930 -0.2696  0.2458 -0.3383
   21DOPE  H18R 2660   2.393   6.410   4.982  1.8178  0.4362 -2.9992
   21DOPE  H18S 2661   2.369   6.566   4.909  1.7456 -0.2148  2.1979
   21DOPE  H18T 2662   2.298   6.415   4.836 -0.8529 -1.7127  0.8742
   21DOPE   C33 2663   2.672   6.389   6.328 -0.4086 -0.3013  0.1618
   21DOPE   H3X 2664   2.657   6.491   6.371  0.6816  0.9002 -2.1520
   21DOPE   H3Y 2665   2.581   6.370   6.268  0.2665  0.8296 -1.2711
   21DOPE   C34 2666   2.788   6.388   6.232 -0.5593  0.4585  0.4985
   21DOPE   H4X 2667   2.874   6.422   6.294 -0.9772 -1.3062  2.1822
   21DOPE   H4Y 2668   2.807   6.282   6.205 -1.9079  0.2059  0.4722
   21DOPE   C35 2669   2.765   6.468   6.101  0.2859  0.3198  0.6120
   21DOPE   H5X 2670   2.758   6.575   6.128 -2.0724 -0.2164  2.4134
   21DOPE   H5Y 2671   2.676   6.442   6.039 -0.7325 -0.3809  2.3094
   21DOPE   C36 2672   2.883   6.448   6.004 -0.1592 -0.3460  0.1861
   21DOPE   H6X 2673   2.870   6.358   5.941 -2.4228  1.0403 -1.5026
   21DOPE   H6Y 2674   2.981   6.449   6.055  0.3517  2.4235 -0.6611
   21DOPE   C37 2675   2.874   6.561   5.896 -0.0946  0.0053 -1.0905
   21DOPE   H7X 2676   2.867   6.667   5.929 -0.2222  0.3685 -2.2386
   21DOPE   H7Y 2677   2.962   6.542   5.832  1.6291  1.6729  0.6659
   21DOPE   C38 2678   2.745   6.565   5.815 -0.1263  0.4449 -0.1975
   21DOPE   H8X 2679   2.766   6.646   5.742 -2.5745  1.2964 -0.0746
   21DOPE   H8Y 2680   2.661   6.598   5.881 -0.0025  2.6373 -1.0573
   21DOPE   C39 2681   2.696   6.442   5.747  0.5043  1.1794 -0.8879
   21DOPE   H9X 2682   2.664   6.375   5.828  3.5073  0.9622  0.2347
   21DOPE  C310 2683   2.700   6.398   5.622  0.6664 -0.0980  0.3110
   21DOPE  H10X 2684   2.656   6.301   5.592 -0.9854  0.9383 -0.7954
   21DOPE  C311 2685   2.749   6.473   5.497  0.3554 -0.4396 -0.1677
   21DOPE  H11X 2686   2.820   6.555   5.523  0.2335 -0.3728 -0.0451
   21DOPE  H11Y 2687   2.813   6.397   5.447  0.7590 -1.8386  2.2916
   21DOPE  C312 2688   2.639   6.537   5.415  0.3286  0.0147 -0.7921
   21DOPE  H12X 2689   2.594   6.611   5.486  0.6137  0.1323 -0.7345
   21DOPE  H12Y 2690   2.558   6.469   5.382 -0.8970  1.3939 -0.7754
   21DOPE  C313 2691   2.698   6.592   5.289  0.4134  0.3036  0.5019
   21DOPE  H13X 2692   2.789   6.653   5.302 -1.2566  2.7879  1.2815
   21DOPE  H13Y 2693   2.725   6.509   5.220  1.1481  1.2256 -0.3428
   21DOPE  C314 2694   2.587   6.677   5.223  0.0003 -0.2445  0.1230
   21DOPE  H14X 2695   2.568   6.759   5.296  1.8777  0.1538  0.1963
   21DOPE  H14Y 2696   2.496   6.615   5.209  0.0824 -0.1751 -0.7952
   21DOPE  C315 2697   2.631   6.735   5.084 -0.3857  0.4443 -1.1999
   21DOPE  H15X 2698   2.644   6.659   5.004  0.9250 -0.0881 -0.5195
   21DOPE  H15Y 2699   2.728   6.786   5.099 -1.1879  2.1126 -1.4402
   21DOPE  C316 2700   2.529   6.843   5.041  0.2192  0.2355  0.0950
   21DOPE  H16X 2701   2.522   6.921   5.119 -1.5436  0.5124 -0.2991
   21DOPE  H16Y 2702   2.440   6.777   5.037  0.0420  0.1982  2.9977
   21DOPE  C317 2703   2.541   6.911   4.901 -0.1624 -0.2581  0.1199
   21DOPE  H17X 2704   2.455   6.981   4.885  0.8908  0.7506 -1.3988
   21DOPE  H17Y 2705   2.630   6.977   4.909 -1.1977  1.0166  2.1679
   21DOPE  C318 2706   2.561   6.815   4.781  0.6540  0.0035 -0.3873
   21DOPE  H18X 2707   2.565   6.857   4.678 -1.8397 -2.6792 -1.7292
   21DOPE  H18Y 2708   2.658   6.761   4.780  0.0617 -1.1371 -1.9706
   21DOPE  H18Z 2709   2.478   6.742   4.778  1.0379 -0.5172  1.1092
   22DOPE     N 2710   7.303   5.028   7.396 -0.3908  0.6210  0.4312
   22DOPE   HN1 2711   7.299   4.976   7.486 -0.1854 -1.5223 -0.7410
   22DOPE   HN2 2712   7.226   5.099   7.392  0.8195  1.9818  0.4330
   22DOPE   HN3 2713   7.288   4.963   7.317 -0.5917  2.1432 -0.8432
   22DOPE   C12 2714   7.431   5.099   7.386  0.1023  0.0862 -0.4313
   22DOPE  H12A 2715   7.511   5.026   7.365 -0.5577 -0.6883 -0.2888
   22DOPE  H12B 2716   7.447   5.147   7.485  0.3726  0.5623 -0.6959
   22DOPE   C11 2717   7.415   5.208   7.277 -0.5276 -0.2249 -0.1242
   22DOPE  H11A 2718   7.508   5.267   7.261 -1.0740  0.0148 -2.9075
   22DOPE  H11B 2719   7.346   5.283   7.320 -1.5867  0.7099 -3.1930
   22DOPE     P 2720   7.311   5.231   7.031  0.1702  0.6775 -0.5630
   22DOPE   O13 2721   7.174   5.273   7.060 -0.1672 -0.4852  0.0319
   22DOPE   O14 2722   7.343   5.152   6.910 -0.3436  0.2820 -0.8483
   22DOPE   O11 2723   7.399   5.364   7.022 -0.0206 -0.5835  0.0485
   22DOPE   O12 2724   7.360   5.157   7.157  0.1476 -0.0441  0.1452
   22DOPE    C1 2725   7.522   5.379   6.943 -0.2019  0.5643  0.0362
   22DOPE    HA 2726   7.587   5.289   6.941 -0.5552  0.2877  0.7923
   22DOPE    HB 2727   7.590   5.456   6.986  1.4409 -0.2986 -0.8920
   22DOPE    C2 2728   7.496   5.422   6.792 -1.0668  0.4046  0.9056
   22DOPE    HS 2729   7.410   5.491   6.799 -1.5575 -0.0505 -0.3273
   22DOPE   O21 2730   7.471   5.302   6.712  0.3101  0.6585  0.4116
   22DOPE   C21 2731   7.405   5.310   6.603  0.1257 -0.6883  0.3178
   22DOPE   O22 2732   7.349   5.407   6.556 -1.2345 -0.4186 -0.0418
   22DOPE   C22 2733   7.425   5.174   6.522  0.4461  0.5911  0.3674
   22DOPE   H2R 2734   7.328   5.140   6.480  0.1482  1.0210  0.6965
   22DOPE   H2S 2735   7.461   5.095   6.591  1.3791  0.8455  0.1901
   22DOPE    C3 2736   7.620   5.494   6.734 -0.0610 -0.4205 -0.1270
   22DOPE    HX 2737   7.708   5.431   6.760 -0.1938 -0.2130  0.8660
   22DOPE    HY 2738   7.625   5.587   6.795 -2.1661 -0.8601  0.7921
   22DOPE   O31 2739   7.630   5.510   6.589  0.0655 -0.4341  0.2793
   22DOPE   C31 2740   7.558   5.616   6.540 -0.4410  0.3037  0.1788
   22DOPE   O32 2741   7.508   5.698   6.615 -0.2775  0.1779  0.1678
   22DOPE   C32 2742   7.563   5.622   6.388 -0.1300 -0.0834 -0.1347
   22DOPE   H2X 2743   7.464   5.578   6.360 -0.2666 -0.2295  0.5667
   22DOPE   H2Y 2744   7.563   5.730   6.362 -1.6462 -0.2319 -0.8795
   22DOPE   C23 2745   7.529   5.190   6.409  0.3294 -0.5856 -0.4704
   22DOPE   H3R 2746   7.622   5.227   6.456  0.4188 -0.8260 -0.4548
   22DOPE   H3S 2747   7.502   5.267   6.335  0.8669  0.7729  0.7032
   22DOPE   C24 2748   7.577   5.049   6.362  0.1932 -0.5395  0.2967
   22DOPE   H4R 2749   7.486   5.003   6.317  1.3188 -2.7359  0.1491
   22DOPE   H4S 2750   7.615   4.986   6.445  0.4689 -1.2185 -0.3333
   22DOPE   C25 2751   7.689   5.066   6.252 -0.0707  0.2836  0.0722
   22DOPE   H5R 2752   7.738   4.966   6.245  1.2909  0.9542 -0.1114
   22DOPE   H5S 2753   7.766   5.141   6.278 -0.3348  0.2115  1.1318
   22DOPE   C26 2754   7.624   5.099   6.114 -0.0314  0.4110  0.1939
   22DOPE   H6R 2755   7.594   5.206   6.107  0.9489  0.6282 -1.2787
   22DOPE   H6S 2756   7.535   5.036   6.095  0.1089  0.4065 -0.4877
   22DOPE   C27 2757   7.715   5.075   5.990 -0.2281 -0.0123 -0.6632
   22DOPE   H7R 2758   7.757   4.973   6.003  1.3409  0.7498  0.6098
   22DOPE   H7S 2759   7.798   5.149   5.993 -0.3235  0.1686 -1.8711
   22DOPE   C28 2760   7.646   5.073   5.858 -0.4177  0.2599  0.4662
   22DOPE   H8R 2761   7.596   5.172   5.849  0.5970  0.8595  1.1349
   22DOPE   H8S 2762   7.562   5.001   5.865 -0.1409 -0.2067 -0.7752
   22DOPE   C29 2763   7.747   5.054   5.747  1.0507  0.5090 -0.3743
   22DOPE   H9R 2764   7.837   5.116   5.756  0.4112  1.4524 -0.2699
   22DOPE  C210 2765   7.736   4.960   5.656 -0.0789  0.0109 -0.2488
   22DOPE  H10R 2766   7.821   4.946   5.588  0.7081 -2.7135  1.1268
   22DOPE  C211 2767   7.633   4.853   5.633  0.0680 -0.0508  0.0974
   22DOPE  H11R 2768   7.592   4.859   5.530 -0.8556 -0.2409  0.4377
   22DOPE  H11S 2769   7.547   4.870   5.702 -0.4631  1.1035 -0.8161
   22DOPE  C212 2770   7.672   4.714   5.667 -0.9123 -0.2067  0.3020
   22DOPE  H12R 2771   7.729   4.665   5.585 -0.5893 -0.3474  0.6055
   22DOPE  H12S 2772   7.580   4.654   5.680 -2.0883  1.4549 -0.0427
   22DOPE  C213 2773   7.761   4.689   5.797  0.2527 -0.2905 -0.2884
   22DOPE  H13R 2774   7.852   4.752   5.788 -0.5515  0.6637 -2.3838
   22DOPE  H13S 2775   7.793   4.583   5.792 -0.3691 -0.5170  0.4606
   22DOPE  C214 2776   7.676   4.705   5.927  0.2933 -0.2094  0.6107
   22DOPE  H14R 2777   7.590   4.635   5.926 -0.0797  0.1228 -2.8165
   22DOPE  H14S 2778   7.639   4.810   5.931  0.2622  0.2709 -4.8502
   22DOPE  C215 2779   7.763   4.680   6.050 -0.2625 -0.0839 -0.3931
   22DOPE  H15R 2780   7.837   4.762   6.066 -0.9982 -0.0062  3.5569
   22DOPE  H15S 2781   7.822   4.590   6.023  1.7549  0.9533  0.3508
   22DOPE  C216 2782   7.674   4.661   6.173  0.3116 -1.3187 -0.0018
   22DOPE  H16R 2783   7.616   4.567   6.161  0.3110 -1.0620 -2.7082
   22DOPE  H16S 2784   7.602   4.744   6.186  0.4879 -1.0705 -0.5352
   22DOPE  C217 2785   7.764   4.673   6.299  0.0688  0.3143  0.8504
   22DOPE  H17R 2786   7.837   4.756   6.288  0.2097  0.1410  0.4480
   22DOPE  H17S 2787   7.814   4.574   6.301  0.4632  0.4643 -0.6894
   22DOPE  C218 2788   7.694   4.690   6.434 -0.3265  0.1463 -0.1435
   22DOPE  H18R 2789   7.752   4.645   6.518  0.8675  1.1286 -0.4171
   22DOPE  H18S 2790   7.593   4.644   6.448 -0.3999  0.8092  1.8262
   22DOPE  H18T 2791   7.673   4.793   6.470  1.6198  1.0510 -1.4151
   22DOPE   C33 2792   7.682   5.557   6.310 -0.3684 -0.1565 -0.3618
   22DOPE   H3X 2793   7.693   5.449   6.330  2.3299  0.0930 -0.0994
   22DOPE   H3Y 2794   7.769   5.605   6.360 -1.2674 -0.4895  1.6498
   22DOPE   C34 2795   7.670   5.577   6.158 -0.2197  0.5610  0.2367
   22DOPE   H4X 2796   7.577   5.524   6.128 -1.1770  3.0318 -1.5304
   22DOPE   H4Y 2797   7.648   5.683   6.133  1.7788  1.1635  0.8407
   22DOPE   C35 2798   7.797   5.522   6.089 -0.0474 -0.1061  0.0287
   22DOPE   H5X 2799   7.795   5.411   6.086 -1.4476 -0.1490  1.2873
   22DOPE   H5Y 2800   7.892   5.552   6.138 -1.7649 -0.1199  3.6567
   22DOPE   C36 2801   7.794   5.578   5.946  0.4252  0.3233  0.0159
   22DOPE   H6X 2802   7.885   5.544   5.891  1.4380  2.1367  0.5006
   22DOPE   H6Y 2803   7.792   5.688   5.936 -0.8959  0.2602 -0.5708
   22DOPE   C37 2804   7.666   5.526   5.869 -0.5100 -0.0145 -0.4325
   22DOPE   H7X 2805   7.654   5.420   5.901 -2.5818 -0.7147 -3.1398
   22DOPE   H7Y 2806   7.578   5.587   5.899  0.0647  1.0723 -0.9030
   22DOPE   C38 2807   7.691   5.539   5.716 -0.4654 -0.5547 -0.1880
   22DOPE   H8X 2808   7.600   5.496   5.671 -1.9963  0.5357  1.7230
   22DOPE   H8Y 2809   7.777   5.479   5.680  0.1363  0.5367 -0.6413
   22DOPE   C39 2810   7.701   5.681   5.664  0.2849 -0.2608 -0.3668
   22DOPE   H9X 2811   7.752   5.761   5.719  1.1446  1.2226 -3.1597
   22DOPE  C310 2812   7.665   5.719   5.539  0.0429  0.2127  0.2297
   22DOPE  H10X 2813   7.685   5.826   5.523  1.4370 -0.0499  0.0187
   22DOPE  C311 2814   7.627   5.636   5.416 -0.5273 -0.1331 -0.2552
   22DOPE  H11X 2815   7.594   5.532   5.438 -1.4185  0.3678  0.9051
   22DOPE  H11Y 2816   7.543   5.687   5.363  1.7456  2.5204 -1.5408
   22DOPE  C312 2817   7.738   5.640   5.305 -0.4286  0.6752 -0.1385
   22DOPE  H12X 2818   7.820   5.571   5.334 -0.4385  0.4192 -0.7114
   22DOPE  H12Y 2819   7.774   5.743   5.284 -0.2636  0.4810 -0.8210
   22DOPE  C313 2820   7.673   5.586   5.176  0.2598 -0.0568  0.0789
   22DOPE  H13X 2821   7.636   5.481   5.180 -0.4062  0.1378 -0.6602
   22DOPE  H13Y 2822   7.586   5.647   5.144  1.1716  1.0806 -0.3101
   22DOPE  C314 2823   7.761   5.597   5.054 -0.3458 -0.0234 -0.0036
   22DOPE  H14X 2824   7.716   5.559   4.960 -1.0478 -2.4442  1.2243
   22DOPE  H14Y 2825   7.841   5.522   5.073  0.4390  0.4016 -1.4477
   22DOPE  C315 2826   7.837   5.729   5.014 -0.2700 -0.0775 -0.5942
   22DOPE  H15X 2827   7.880   5.773   5.107 -0.0453 -2.7147  0.6534
   22DOPE  H15Y 2828   7.763   5.803   4.978 -1.8670 -1.4777 -0.3162
   22DOPE  C316 2829   7.943   5.702   4.906  0.3730  0.3814  0.4710
   22DOPE  H16X 2830   7.887   5.686   4.811 -2.2113 -1.1477  2.1226
   22DOPE  H16Y 2831   8.000   5.610   4.931  2.1692  0.5804 -2.3869
   22DOPE  C317 2832   8.042   5.815   4.887  0.2460 -0.0932 -0.0965
   22DOPE  H17X 2833   7.974   5.903   4.885  0.6723  0.2416  0.0852
   22DOPE  H17Y 2834   8.103   5.820   4.979  2.2214  0.2224 -1.3491
   22DOPE  C318 2835   8.128   5.826   4.762 -0.7896  0.0790 -0.1627
   22DOPE  H18X 2836   8.081   5.880   4.677 -1.6825 -0.5207 -0.0563
   22DOPE  H18Y 2837   8.216   5.881   4.803  2.0813 -4.5915  0.5840
   22DOPE  H18Z 2838   8.171   5.731   4.726  0.1212  0.1635  0.6487
   23DOPE     N 2839   4.258   7.537   6.702 -0.3479 -0.3096 -0.3848
   23DOPE   HN1 2840   4.241   7.515   6.602 -2.0669  0.5733 -0.3283
   23DOPE   HN2 2841   4.176   7.588   6.740 -0.4448 -1.7517  1.5518
   23DOPE   HN3 2842   4.343   7.597   6.703  0.3717 -1.2860  1.2050
   23DOPE   C12 2843   4.252   7.405   6.773 -0.6737  0.2415  0.1906
   23DOPE  H12A 2844   4.289   7.418   6.876  0.8305  1.3409 -0.4610
   23DOPE  H12B 2845   4.302   7.323   6.717  0.4933  0.9811  0.1325
   23DOPE   C11 2846   4.104   7.364   6.764  0.3271  0.3730 -0.4483
   23DOPE  H11A 2847   4.111   7.282   6.839 -0.0845  1.1230  0.4417
   23DOPE  H11B 2848   4.081   7.329   6.661  0.0583  0.9941 -0.6029
   23DOPE     P 2849   3.874   7.424   6.862  0.6875  0.0134  0.3076
   23DOPE   O13 2850   3.792   7.546   6.884  0.1379  0.2225 -0.0214
   23DOPE   O14 2851   3.885   7.334   6.978 -0.0600 -0.1736  0.2702
   23DOPE   O11 2852   3.810   7.337   6.750  0.8841 -0.0651 -0.0809
   23DOPE   O12 2853   4.017   7.465   6.804  0.4048  0.0093  0.2558
   23DOPE    C1 2854   3.737   7.392   6.641  0.1262  0.2785  0.6205
   23DOPE    HA 2855   3.673   7.478   6.670 -0.4338 -0.1525  0.6858
   23DOPE    HB 2856   3.664   7.312   6.617  0.0232  0.0256  1.7019
   23DOPE    C2 2857   3.829   7.430   6.517  1.1151  0.1865 -0.6902
   23DOPE    HS 2858   3.757   7.427   6.433  0.6233  1.7656 -0.3717
   23DOPE   O21 2859   3.923   7.323   6.491  0.7049  0.2993 -0.5857
   23DOPE   C21 2860   3.882   7.226   6.408  0.0529 -0.2162  0.5753
   23DOPE   O22 2861   3.775   7.224   6.346 -0.0838  0.5483 -0.7689
   23DOPE   C22 2862   3.999   7.123   6.382  0.4136  0.1827  0.3749
   23DOPE   H2R 2863   4.011   7.053   6.468 -0.9083 -1.5643 -0.8037
   23DOPE   H2S 2864   4.091   7.185   6.386 -1.6114  3.5036 -0.7082
   23DOPE    C3 2865   3.893   7.573   6.524  0.0328 -0.2601 -0.3566
   23DOPE    HX 2866   3.969   7.565   6.604  1.3155 -0.1376 -1.5315
   23DOPE    HY 2867   3.823   7.653   6.558 -0.7982 -0.3892 -1.7017
   23DOPE   O31 2868   3.949   7.612   6.389 -0.5753  0.3617 -0.2194
   23DOPE   C31 2869   4.073   7.566   6.366  0.0400  0.8969 -0.4084
   23DOPE   O32 2870   4.148   7.510   6.447 -0.0007 -0.1345 -0.3066
   23DOPE   C32 2871   4.112   7.587   6.221  0.3603 -0.0807 -0.1859
   23DOPE   H2X 2872   4.078   7.496   6.168 -0.2563  1.3724 -2.4417
   23DOPE   H2Y 2873   4.058   7.674   6.177  0.2736  0.0614  0.1971
   23DOPE   C23 2874   4.008   7.059   6.243  0.4285  0.1142 -0.0666
   23DOPE   H3R 2875   3.903   7.041   6.211  0.8091 -0.9041 -0.8018
   23DOPE   H3S 2876   4.039   6.953   6.257  0.2766  0.1462  0.5454
   23DOPE   C24 2877   4.109   7.118   6.144  0.0086  0.7624 -0.1474
   23DOPE   H4R 2878   4.211   7.113   6.187  0.5771  2.3371 -1.2029
   23DOPE   H4S 2879   4.071   7.221   6.130  0.8656  1.2871  1.1468
   23DOPE   C25 2880   4.118   7.033   6.009  0.4457 -0.1291  0.3485
   23DOPE   H5R 2881   4.018   7.039   5.963  0.9347  1.4326 -0.5518
   23DOPE   H5S 2882   4.143   6.925   6.023  0.2083 -0.3175 -0.6278
   23DOPE   C26 2883   4.213   7.095   5.908  0.0403  0.6835  0.1513
   23DOPE   H6R 2884   4.318   7.085   5.942 -0.1801  0.0299  0.6732
   23DOPE   H6S 2885   4.185   7.202   5.896  0.8880  0.9051  0.0902
   23DOPE   C27 2886   4.210   7.022   5.770 -0.0531 -0.2119  0.3495
   23DOPE   H7R 2887   4.242   6.917   5.782  1.1685  0.1882  0.8000
   23DOPE   H7S 2888   4.299   7.061   5.714  0.0937 -0.8667  0.1164
   23DOPE   C28 2889   4.085   7.038   5.689 -0.2753 -0.2387 -0.3869
   23DOPE   H8R 2890   4.000   7.021   5.758  0.2956  0.4052  0.4963
   23DOPE   H8S 2891   4.083   6.960   5.609 -1.5670 -0.7121  0.0728
   23DOPE   C29 2892   4.081   7.177   5.634  0.7271  0.1916 -0.2495
   23DOPE   H9R 2893   4.175   7.209   5.586 -0.7669  0.0250 -3.5749
   23DOPE  C210 2894   3.976   7.257   5.613 -0.0466 -0.4414  0.6418
   23DOPE  H10R 2895   3.996   7.355   5.567  0.7904 -0.1954  1.4881
   23DOPE  C211 2896   3.833   7.225   5.629 -0.5306  0.6023  0.1999
   23DOPE  H11R 2897   3.823   7.120   5.664  2.0229  0.0792 -0.4899
   23DOPE  H11S 2898   3.767   7.247   5.543  0.5185  3.1153 -0.0631
   23DOPE  C212 2899   3.777   7.306   5.758  0.3980  0.2431  0.5006
   23DOPE  H12R 2900   3.673   7.267   5.751  0.5709 -0.4611  1.5487
   23DOPE  H12S 2901   3.795   7.414   5.740  0.6619 -0.0378 -1.0485
   23DOPE  C213 2902   3.843   7.263   5.890 -0.6466 -0.0050 -0.4588
   23DOPE  H13R 2903   3.952   7.280   5.880 -0.9283  1.4394 -1.3927
   23DOPE  H13S 2904   3.817   7.155   5.887 -1.4353 -0.0096  2.8492
   23DOPE  C214 2905   3.779   7.326   6.014 -0.5151  0.2184 -0.0871
   23DOPE  H14R 2906   3.800   7.257   6.099 -3.1856 -1.2056 -0.4747
   23DOPE  H14S 2907   3.673   7.297   5.998 -1.0856  0.9536  2.0358
   23DOPE  C215 2908   3.788   7.477   6.019  0.0524 -0.1788  0.7696
   23DOPE  H15R 2909   3.729   7.513   5.932  3.6439 -1.2248 -2.3748
   23DOPE  H15S 2910   3.893   7.508   6.001 -0.2921  0.5756 -0.0286
   23DOPE  C216 2911   3.741   7.529   6.151  0.3844 -0.5721  0.7078
   23DOPE  H16R 2912   3.809   7.526   6.239 -2.3323  1.6731  3.1119
   23DOPE  H16S 2913   3.648   7.478   6.184  0.4989 -1.3992 -0.1972
   23DOPE  C217 2914   3.701   7.674   6.139  0.2190 -0.8114  0.5712
   23DOPE  H17R 2915   3.609   7.681   6.077 -0.1972 -0.5985  1.1993
   23DOPE  H17S 2916   3.780   7.738   6.094 -1.0231  0.6322  0.3280
   23DOPE  C218 2917   3.670   7.730   6.277  0.8339 -0.6822 -0.0194
   23DOPE  H18R 2918   3.662   7.839   6.261  0.4538 -0.7932 -0.6039
   23DOPE  H18S 2919   3.731   7.696   6.363  2.1814 -1.8952 -1.3783
   23DOPE  H18T 2920   3.566   7.695   6.294  0.0620  0.9782 -1.0602
   23DOPE   C33 2921   4.262   7.585   6.199 -0.0267  0.1440 -0.1187
   23DOPE   H3X 2922   4.301   7.485   6.227 -0.9256  0.0485  0.8800
   23DOPE   H3Y 2923   4.308   7.651   6.277  0.7788 -0.1121 -0.3706
   23DOPE   C34 2924   4.317   7.625   6.056 -0.2190 -0.2817 -0.3017
   23DOPE   H4X 2925   4.251   7.710   6.026 -1.7279 -1.0646  0.6578
   23DOPE   H4Y 2926   4.424   7.649   6.071  0.6091  0.1655 -5.3847
   23DOPE   C35 2927   4.280   7.523   5.948 -0.0744 -0.0065  0.1857
   23DOPE   H5X 2928   4.171   7.504   5.935  0.1611 -2.2672  1.1392
   23DOPE   H5Y 2929   4.320   7.423   5.974 -2.3581 -1.6911 -2.1847
   23DOPE   C36 2930   4.326   7.569   5.800  0.0227 -0.0125 -0.3290
   23DOPE   H6X 2931   4.432   7.600   5.802  0.1663 -0.4898  2.4429
   23DOPE   H6Y 2932   4.259   7.654   5.775  0.8238  1.9338  3.4958
   23DOPE   C37 2933   4.285   7.460   5.703  0.0123  0.3470  0.8479
   23DOPE   H7X 2934   4.323   7.365   5.746  1.9991 -0.1389 -1.7917
   23DOPE   H7Y 2935   4.175   7.452   5.693  0.1930 -0.7445 -0.5408
   23DOPE   C38 2936   4.347   7.492   5.561  0.3855  0.0994  0.5888
   23DOPE   H8X 2937   4.458   7.489   5.561  0.4365  0.3693 -1.8098
   23DOPE   H8Y 2938   4.322   7.600   5.558  1.1867  0.3654  2.2575
   23DOPE   C39 2939   4.296   7.409   5.445  0.1899 -0.2201 -0.4215
   23DOPE   H9X 2940   4.328   7.304   5.448  2.5480  0.4589  0.5446
   23DOPE  C310 2941   4.211   7.447   5.349 -1.2434 -0.5405  0.1944
   23DOPE  H10X 2942   4.193   7.397   5.252  0.4698  1.4548 -1.2488
   23DOPE  C311 2943   4.151   7.586   5.338 -0.1514  0.5649 -0.2084
   23DOPE  H11X 2944   4.043   7.571   5.358  0.2262 -0.1545  1.3930
   23DOPE  H11Y 2945   4.187   7.661   5.412 -1.3658  0.6798  0.2940
   23DOPE  C312 2946   4.174   7.645   5.194 -0.3982 -0.1386  0.1100
   23DOPE  H12X 2947   4.144   7.752   5.203  0.2871 -0.0377  1.4146
   23DOPE  H12Y 2948   4.113   7.591   5.119 -0.0932  0.2203 -0.4100
   23DOPE  C313 2949   4.316   7.630   5.138 -1.2712  0.3380 -0.4029
   23DOPE  H13X 2950   4.399   7.647   5.209 -0.0876  1.3467 -1.9611
   23DOPE  H13Y 2951   4.330   7.525   5.103 -0.4319  0.2773  0.0894
   23DOPE  C314 2952   4.338   7.713   5.012 -0.8715  0.3695 -0.4999
   23DOPE  H14X 2953   4.257   7.703   4.936 -0.3372  0.4871 -1.0954
   23DOPE  H14Y 2954   4.437   7.680   4.973  0.7185  0.3142  3.1927
   23DOPE  C315 2955   4.364   7.858   5.050 -0.0870 -0.1296  0.3645
   23DOPE  H15X 2956   4.438   7.859   5.134  0.8876 -0.7498 -0.4617
   23DOPE  H15Y 2957   4.271   7.904   5.088  0.6544  0.2998  1.7557
   23DOPE  C316 2958   4.416   7.929   4.920 -0.1694 -0.2755  0.2040
   23DOPE  H16X 2959   4.351   7.906   4.833 -0.1820 -0.0440  0.1523
   23DOPE  H16Y 2960   4.514   7.889   4.888 -0.5204 -0.3199 -0.8477
   23DOPE  C317 2961   4.437   8.079   4.936 -0.0107  0.3139 -0.5146
   23DOPE  H17X 2962   4.339   8.119   4.969 -1.2378 -3.0965  0.3946
   23DOPE  H17Y 2963   4.504   8.087   5.024 -0.8667  1.1841  0.0796
   23DOPE  C318 2964   4.493   8.159   4.821  0.5091  0.1481 -0.1356
   23DOPE  H18X 2965   4.590   8.110   4.800 -1.2223 -4.6905  1.7127
   23DOPE  H18Y 2966   4.414   8.161   4.742 -0.4628 -0.3262  0.7920
   23DOPE  H18Z 2967   4.501   8.265   4.852  3.2578 -0.1807  0.4939
   24DOPE     N 2968   5.254   6.192   6.606  0.1338  0.4337  0.3239
   24DOPE   HN1 2969   5.244   6.220   6.706 -1.0185 -0.2872  0.4304
   24DOPE   HN2 2970   5.157   6.171   6.573  1.1563 -0.4590 -2.3541
   24DOPE   HN3 2971   5.304   6.101   6.601 -1.4461 -0.5865  1.7905
   24DOPE   C12 2972   5.310   6.307   6.525 -0.0913  0.0992  0.1862
   24DOPE  H12A 2973   5.276   6.402   6.573  1.8198  1.8210 -1.6807
   24DOPE  H12B 2974   5.273   6.296   6.421 -2.1136 -0.7234  0.9392
   24DOPE   C11 2975   5.465   6.308   6.528 -0.4664  0.3650 -0.8429
   24DOPE  H11A 2976   5.492   6.400   6.473  0.4854  1.5634  1.5040
   24DOPE  H11B 2977   5.501   6.214   6.480 -0.2576 -0.2030  0.3703
   24DOPE     P 2978   5.513   6.439   6.753  0.0355  0.9728  0.0953
   24DOPE   O13 2979   5.506   6.394   6.893 -0.1363 -0.2904 -0.6316
   24DOPE   O14 2980   5.424   6.546   6.716  0.3048  0.0374 -0.8244
   24DOPE   O11 2981   5.657   6.487   6.714 -0.1742 -0.0753  0.0729
   24DOPE   O12 2982   5.514   6.311   6.662  0.6294  0.4026  0.2105
   24DOPE    C1 2983   5.716   6.613   6.740 -0.2618 -0.6640  0.1111
   24DOPE    HA 2984   5.794   6.601   6.818 -0.4042  1.8037  0.7046
   24DOPE    HB 2985   5.645   6.687   6.783 -0.1521 -0.0906 -0.6845
   24DOPE    C2 2986   5.773   6.672   6.613  0.4652  0.2455  0.0757
   24DOPE    HS 2987   5.685   6.686   6.546 -1.4895  0.1869  2.4643
   24DOPE   O21 2988   5.871   6.586   6.556 -0.6222  0.3684  0.1025
   24DOPE   C21 2989   5.868   6.574   6.428  0.3698  0.3150 -0.7583
   24DOPE   O22 2990   5.786   6.630   6.356  0.0896 -0.8069 -0.0327
   24DOPE   C22 2991   5.965   6.474   6.381 -0.4725  0.1559 -0.1420
   24DOPE   H2R 2992   5.968   6.384   6.446 -1.5317  1.0659  1.2624
   24DOPE   H2S 2993   6.068   6.516   6.387 -0.9084  1.4083 -0.9256
   24DOPE    C3 2994   5.829   6.821   6.629  0.2268 -0.5430  0.0341
   24DOPE    HX 2995   5.917   6.810   6.696 -0.8719 -1.0108  1.4619
   24DOPE    HY 2996   5.754   6.887   6.678  0.4058  0.4262 -0.9753
   24DOPE   O31 2997   5.866   6.890   6.504 -0.5856  0.0183 -0.8660
   24DOPE   C31 2998   5.767   6.932   6.430  0.7033  0.2712 -0.0283
   24DOPE   O32 2999   5.647   6.916   6.464 -0.3730 -0.2171 -0.1004
   24DOPE   C32 3000   5.818   7.015   6.310  0.0497 -0.2434 -0.6998
   24DOPE   H2X 3001   5.877   7.102   6.347 -1.4533  0.0211  1.2277
   24DOPE   H2Y 3002   5.884   6.944   6.256 -0.3490  0.5210 -2.2508
   24DOPE   C23 3003   5.934   6.424   6.238 -0.8650  0.5768 -0.4045
   24DOPE   H3R 3004   5.927   6.511   6.168 -2.1720  1.0453  0.2757
   24DOPE   H3S 3005   5.830   6.386   6.245 -1.4597  1.9682 -1.2416
   24DOPE   C24 3006   6.033   6.312   6.206  0.3710  0.1726 -0.2982
   24DOPE   H4R 3007   6.054   6.249   6.295  0.8224 -0.1857 -0.6514
   24DOPE   H4S 3008   6.127   6.368   6.182 -0.5984  0.9247 -2.7208
   24DOPE   C25 3009   5.983   6.223   6.089  1.0115  0.1061 -0.6909
   24DOPE   H5R 3010   5.939   6.279   6.004  1.4940  2.4827  0.5376
   24DOPE   H5S 3011   5.892   6.174   6.129  1.8880 -0.5874  0.5327
   24DOPE   C26 3012   6.083   6.118   6.045 -0.3793  0.0034  0.0401
   24DOPE   H6R 3013   6.179   6.166   6.017 -0.9284  0.5055 -1.0665
   24DOPE   H6S 3014   6.050   6.067   5.952  1.0364  0.5147 -0.7663
   24DOPE   C27 3015   6.113   6.003   6.145 -0.2196  0.6085 -0.7246
   24DOPE   H7R 3016   6.015   5.989   6.194  0.0883 -0.8068 -0.4644
   24DOPE   H7S 3017   6.175   6.031   6.233 -1.3617  0.0860  0.2721
   24DOPE   C28 3018   6.180   5.875   6.085  0.0837  0.3278 -0.0499
   24DOPE   H8R 3019   6.125   5.844   5.994 -0.4201  0.6586  0.1390
   24DOPE   H8S 3020   6.176   5.801   6.168  1.0812 -0.4645 -0.6883
   24DOPE   C29 3021   6.331   5.895   6.067 -0.2327  0.4403  0.5083
   24DOPE   H9R 3022   6.392   5.902   6.159  0.7179  1.4290 -0.1769
   24DOPE  C210 3023   6.406   5.873   5.955  0.2823  0.1482 -0.2400
   24DOPE  H10R 3024   6.511   5.905   5.956  0.1237  0.7509 -1.3606
   24DOPE  C211 3025   6.356   5.826   5.824 -0.0166  0.0814  0.0228
   24DOPE  H11R 3026   6.431   5.853   5.747  0.3822 -1.5588 -0.2108
   24DOPE  H11S 3027   6.263   5.882   5.799 -0.6268 -0.6640  0.5597
   24DOPE  C212 3028   6.317   5.680   5.808  0.3644 -0.0894  0.4943
   24DOPE  H12R 3029   6.261   5.638   5.894 -1.0808  0.3823 -0.1772
   24DOPE  H12S 3030   6.417   5.633   5.805  1.6006  2.4119 -1.2002
   24DOPE  C213 3031   6.245   5.662   5.674  0.0909  0.3725  0.6057
   24DOPE  H13R 3032   6.315   5.697   5.595 -1.3182  1.6942 -0.1215
   24DOPE  H13S 3033   6.148   5.716   5.674  0.7376  1.5804  1.2947
   24DOPE  C214 3034   6.206   5.510   5.652 -0.7736  0.0840  0.3629
   24DOPE  H14R 3035   6.125   5.485   5.579 -0.3817 -3.0024  0.8553
   24DOPE  H14S 3036   6.183   5.477   5.756  0.1831 -0.4006  0.4313
   24DOPE  C215 3037   6.330   5.428   5.600  0.4094  0.7131 -0.3237
   24DOPE  H15R 3038   6.324   5.325   5.641  1.9120  0.3086 -1.0625
   24DOPE  H15S 3039   6.428   5.468   5.635  1.5432 -3.8236  2.5269
   24DOPE  C216 3040   6.330   5.404   5.453  0.6120 -0.3734 -0.4168
   24DOPE  H16R 3041   6.323   5.507   5.414  2.4722  0.2140  0.6271
   24DOPE  H16S 3042   6.240   5.351   5.415 -1.5115  1.7745  1.3627
   24DOPE  C217 3043   6.465   5.342   5.415  0.9002  0.4949  0.5513
   24DOPE  H17R 3044   6.483   5.267   5.495  1.1008  1.9119  1.8669
   24DOPE  H17S 3045   6.550   5.414   5.411 -0.7716  2.5886 -3.9400
   24DOPE  C218 3046   6.460   5.287   5.266 -0.1451 -0.2610 -0.4085
   24DOPE  H18R 3047   6.564   5.270   5.232 -0.4225 -1.6862 -0.6119
   24DOPE  H18S 3048   6.405   5.361   5.204 -2.1876  1.0670  2.7381
   24DOPE  H18T 3049   6.402   5.193   5.261 -0.2186 -0.2662  0.3415
   24DOPE   C33 3050   5.706   7.059   6.218 -0.0157  0.3152 -0.4386
   24DOPE   H3X 3051   5.638   7.132   6.266 -0.1411 -2.3059  4.0354
   24DOPE   H3Y 3052   5.651   6.966   6.192 -0.2419 -0.5808  2.7891
   24DOPE   C34 3053   5.753   7.110   6.081  0.3608 -0.9680  0.0132
   24DOPE   H4X 3054   5.827   7.191   6.102 -1.9773  0.9105  1.5597
   24DOPE   H4Y 3055   5.801   7.021   6.034 -0.5604 -1.9848  0.9474
   24DOPE   C35 3056   5.640   7.162   5.986  0.6526  0.1028 -0.1860
   24DOPE   H5X 3057   5.600   7.261   6.016 -1.6031 -0.3327 -1.5196
   24DOPE   H5Y 3058   5.555   7.090   5.990  1.0400 -0.3250  1.8263
   24DOPE   C36 3059   5.686   7.166   5.835 -0.4690  0.0634 -0.2904
   24DOPE   H6X 3060   5.712   7.065   5.798  1.9575  0.3797  0.3465
   24DOPE   H6Y 3061   5.771   7.238   5.840  0.0718 -0.4520 -1.6061
   24DOPE   C37 3062   5.584   7.229   5.739 -0.2259 -0.5670  0.4252
   24DOPE   H7X 3063   5.488   7.179   5.765 -2.2625  1.4259 -2.5401
   24DOPE   H7Y 3064   5.575   7.337   5.760 -2.2604 -1.0053  2.1828
   24DOPE   C38 3065   5.615   7.205   5.582 -0.5381 -0.4115 -0.2194
   24DOPE   H8X 3066   5.619   7.094   5.574  1.1804 -0.4656  0.8785
   24DOPE   H8Y 3067   5.720   7.233   5.556 -0.3879  1.6789  2.2976
   24DOPE   C39 3068   5.520   7.264   5.487  0.9315  1.1837  0.3461
   24DOPE   H9X 3069   5.480   7.364   5.508  0.2470  1.4036 -1.6989
   24DOPE  C310 3070   5.481   7.199   5.372 -0.3018 -0.1380 -0.6985
   24DOPE  H10X 3071   5.420   7.243   5.292 -0.6074  0.5225 -0.1140
   24DOPE  C311 3072   5.518   7.053   5.345 -0.3196 -0.2883 -0.1075
   24DOPE  H11X 3073   5.513   6.987   5.435  1.2980  0.5347  0.6215
   24DOPE  H11Y 3074   5.437   7.017   5.278 -2.0801 -0.1135  1.8007
   24DOPE  C312 3075   5.653   7.025   5.276 -0.8206  0.0003 -0.1180
   24DOPE  H12X 3076   5.739   7.042   5.343 -1.1212 -1.5205  0.6931
   24DOPE  H12Y 3077   5.668   7.072   5.176  1.3557 -2.4860 -1.0630
   24DOPE  C313 3078   5.662   6.875   5.241 -0.4085  0.0667 -0.4982
   24DOPE  H13X 3079   5.645   6.820   5.336 -0.1210 -0.4979 -0.7727
   24DOPE  H13Y 3080   5.583   6.853   5.166  0.1609 -0.9266 -0.8177
   24DOPE  C314 3081   5.798   6.837   5.180 -0.1616 -0.3126  0.1740
   24DOPE  H14X 3082   5.881   6.867   5.246  2.4004  1.2679 -3.4503
   24DOPE  H14Y 3083   5.807   6.900   5.089  0.9088 -2.2417 -1.1224
   24DOPE  C315 3084   5.806   6.690   5.143 -0.0778 -0.1652  0.1565
   24DOPE  H15X 3085   5.748   6.660   5.053  0.7926  2.0459 -1.2094
   24DOPE  H15Y 3086   5.743   6.638   5.219  1.1965 -2.2125 -0.1065
   24DOPE  C316 3087   5.942   6.622   5.134  0.3116 -0.5927  0.0282
   24DOPE  H16X 3088   5.988   6.632   5.235 -2.1444 -0.9212  1.2710
   24DOPE  H16Y 3089   6.007   6.668   5.057  0.4890 -1.1416 -0.1539
   24DOPE  C317 3090   5.924   6.476   5.101  0.1867 -0.2592  0.3353
   24DOPE  H17X 3091   5.854   6.430   5.173 -1.4023  0.4375 -0.7175
   24DOPE  H17Y 3092   5.872   6.470   5.003  1.4351  0.5728 -0.4123
   24DOPE  C318 3093   6.041   6.387   5.108 -0.8322  0.2575  0.7852
   24DOPE  H18X 3094   6.010   6.282   5.088 -3.4491  0.8282  1.4712
   24DOPE  H18Y 3095   6.118   6.415   5.034 -0.0463 -1.7955  0.7604
   24DOPE  H18Z 3096   6.086   6.398   5.209  3.1279  0.7435 -0.8414
   25DOPE     N 3097   7.137   5.542   7.044  0.1350  0.1805  1.0618
   25DOPE   HN1 3098   7.127   5.443   7.071  1.6228 -0.1811  0.4124
   25DOPE   HN2 3099   7.054   5.604   7.056  0.5902  1.1595 -0.5045
   25DOPE   HN3 3100   7.146   5.553   6.940 -2.8250 -0.0542  0.7093
   25DOPE   C12 3101   7.256   5.622   7.094  0.1974 -0.1372  0.1601
   25DOPE  H12A 3102   7.351   5.582   7.052  1.0721  1.0815  0.9208
   25DOPE  H12B 3103   7.259   5.600   7.203 -4.6345 -0.5168  0.4382
   25DOPE   C11 3104   7.237   5.776   7.077  0.5801 -0.2025 -0.2236
   25DOPE  H11A 3105   7.274   5.819   6.982 -0.5298 -0.8328 -0.9629
   25DOPE  H11B 3106   7.294   5.824   7.160  1.2857 -0.4460 -0.5684
   25DOPE     P 3107   7.057   5.962   7.059 -0.2161  0.2277 -0.0042
   25DOPE   O13 3108   7.181   6.045   7.062 -0.3326  0.5392 -0.8670
   25DOPE   O14 3109   6.938   5.998   7.140  0.2159  0.4352  0.3603
   25DOPE   O11 3110   7.011   5.951   6.907  0.1303  0.6826 -0.2740
   25DOPE   O12 3111   7.100   5.816   7.091  0.2781  0.0026  0.2482
   25DOPE    C1 3112   6.973   6.072   6.846  0.5851  0.2333  0.2042
   25DOPE    HA 3113   7.047   6.154   6.862  1.2010  0.9001 -4.5580
   25DOPE    HB 3114   6.878   6.123   6.874  1.1162  1.5329 -0.2636
   25DOPE    C2 3115   6.978   6.059   6.691 -0.3948 -0.2606  0.0516
   25DOPE    HS 3116   6.918   5.967   6.673  0.8222 -0.7575 -1.6846
   25DOPE   O21 3117   7.114   6.033   6.657  0.5456  0.5554  0.5821
   25DOPE   C21 3118   7.130   5.943   6.559  0.2201 -0.4996 -0.6876
   25DOPE   O22 3119   7.039   5.875   6.511 -0.2912  0.2399 -0.1635
   25DOPE   C22 3120   7.274   5.948   6.511  0.4541  0.6753 -0.2410
   25DOPE   H2R 3121   7.346   5.924   6.593 -0.5938 -0.2112  0.4432
   25DOPE   H2S 3122   7.292   6.047   6.463  0.3196  1.1979  0.7543
   25DOPE    C3 3123   6.934   6.189   6.618  0.3143 -0.4279  0.4284
   25DOPE    HX 3124   6.995   6.276   6.650  0.9122 -0.1554 -1.3641
   25DOPE    HY 3125   6.827   6.207   6.642  0.4654 -0.5448  1.2021
   25DOPE   O31 3126   6.958   6.175   6.475 -0.3177  0.0588  0.1633
   25DOPE   C31 3127   6.857   6.194   6.392  0.9442  0.2421 -0.7877
   25DOPE   O32 3128   6.741   6.229   6.421 -0.1340 -0.2087 -0.1671
   25DOPE   C32 3129   6.902   6.156   6.255  0.0217  0.1109  0.2192
   25DOPE   H2X 3130   6.901   6.045   6.257 -2.0416  0.0883  2.6163
   25DOPE   H2Y 3131   6.825   6.188   6.182 -0.4772 -1.4586  0.0181
   25DOPE   C23 3132   7.288   5.867   6.380  0.3011 -0.0902 -0.3786
   25DOPE   H3R 3133   7.252   5.763   6.397  1.0037 -0.2223  0.3823
   25DOPE   H3S 3134   7.397   5.857   6.359  0.2756  0.2204 -0.6562
   25DOPE   C24 3135   7.238   5.930   6.251  0.6016 -0.4217  0.0515
   25DOPE   H4R 3136   7.276   6.035   6.247  0.7634 -0.4889 -0.1698
   25DOPE   H4S 3137   7.127   5.934   6.241  0.2755 -2.9240  1.6694
   25DOPE   C25 3138   7.285   5.848   6.123 -0.8238  0.1097  0.2274
   25DOPE   H5R 3139   7.208   5.768   6.113 -0.8724  0.1617  0.1760
   25DOPE   H5S 3140   7.379   5.800   6.155  0.5489  3.2418  1.2668
   25DOPE   C26 3141   7.303   5.948   6.011 -0.2512 -0.5600  0.8624
   25DOPE   H6R 3142   7.387   6.019   6.025  0.0234 -0.1263 -2.3497
   25DOPE   H6S 3143   7.210   6.008   6.004 -0.2766 -0.6722  0.2248
   25DOPE   C27 3144   7.326   5.887   5.865  0.0341  0.1237 -0.5181
   25DOPE   H7R 3145   7.423   5.833   5.866 -0.7625 -1.3946  1.0069
   25DOPE   H7S 3146   7.334   5.974   5.798 -0.3933  1.4786  1.1187
   25DOPE   C28 3147   7.219   5.786   5.823  1.2850 -0.7718  0.0201
   25DOPE   H8R 3148   7.123   5.840   5.822  1.9741  0.5279  0.8159
   25DOPE   H8S 3149   7.213   5.703   5.897 -1.1270  1.1233  2.1438
   25DOPE   C29 3150   7.269   5.733   5.694  0.4165  0.2156 -0.4322
   25DOPE   H9R 3151   7.355   5.665   5.704 -1.2191 -1.9614 -0.4097
   25DOPE  C210 3152   7.204   5.755   5.581 -0.6201 -0.7389 -0.5461
   25DOPE  H10R 3153   7.255   5.711   5.494 -0.0531 -0.7847 -0.1977
   25DOPE  C211 3154   7.094   5.851   5.541 -0.2884 -0.7853 -0.2725
   25DOPE  H11R 3155   7.056   5.910   5.627 -1.0183 -0.3175 -0.9055
   25DOPE  H11S 3156   7.006   5.789   5.512  0.0846 -0.9365 -1.1291
   25DOPE  C212 3157   7.136   5.947   5.424 -0.4773 -0.2540 -0.3216
   25DOPE  H12R 3158   7.227   5.998   5.463 -0.6757 -0.6523  0.6789
   25DOPE  H12S 3159   7.069   6.034   5.408  1.1877  1.2390  0.5683
   25DOPE  C213 3160   7.171   5.885   5.287 -0.1441  0.7606 -0.0604
   25DOPE  H13R 3161   7.073   5.847   5.251  0.4576 -1.8577  0.7887
   25DOPE  H13S 3162   7.252   5.810   5.305 -1.6070 -1.2180 -1.2770
   25DOPE  C214 3163   7.212   5.993   5.191 -0.4027 -0.2984  0.3899
   25DOPE  H14R 3164   7.298   6.049   5.234 -0.4505 -0.6615  0.9546
   25DOPE  H14S 3165   7.120   6.055   5.180 -1.1798 -1.4059  0.4660
   25DOPE  C215 3166   7.275   5.936   5.058  0.1417  0.5107 -0.3604
   25DOPE  H15R 3167   7.197   5.896   4.990 -2.6925  2.0641  1.7352
   25DOPE  H15S 3168   7.338   5.852   5.095  0.6257  0.7073 -0.7277
   25DOPE  C216 3169   7.363   6.051   4.995 -0.3598  0.1949  0.3170
   25DOPE  H16R 3170   7.413   6.116   5.069  0.7617 -1.2178  0.8600
   25DOPE  H16S 3171   7.288   6.114   4.943 -0.5942 -1.2552 -1.1930
   25DOPE  C217 3172   7.452   6.000   4.882 -0.5819 -0.0196 -0.1169
   25DOPE  H17R 3173   7.521   5.924   4.924  1.4307  2.8164  2.1280
   25DOPE  H17S 3174   7.532   6.073   4.857  1.4228 -2.0624 -0.0074
   25DOPE  C218 3175   7.391   5.951   4.753  0.5481  0.5137  0.4019
   25DOPE  H18R 3176   7.312   5.874   4.770 -1.0670  1.6976 -1.3262
   25DOPE  H18S 3177   7.469   5.909   4.685  1.5903  0.9551  1.2984
   25DOPE  H18T 3178   7.333   6.036   4.711 -0.6093  0.4846  1.8460
   25DOPE   C33 3179   7.042   6.207   6.220  0.3675  0.4326  0.0666
   25DOPE   H3X 3180   7.072   6.149   6.130  3.2083  0.3846  0.9491
   25DOPE   H3Y 3181   7.115   6.182   6.300  0.8354 -2.4014 -1.1136
   25DOPE   C34 3182   7.038   6.363   6.185  0.2620  0.8404  0.5256
   25DOPE   H4X 3183   6.953   6.376   6.115  0.0036 -0.6935  0.5184
   25DOPE   H4Y 3184   7.021   6.433   6.269  0.8075  0.0629  1.3082
   25DOPE   C35 3185   7.162   6.405   6.113  0.3380 -0.3518  0.1182
   25DOPE   H5X 3186   7.173   6.336   6.027  0.5591  0.5457 -0.5990
   25DOPE   H5Y 3187   7.259   6.386   6.164  1.2488  0.8089 -1.0882
   25DOPE   C36 3188   7.159   6.556   6.072 -0.1997  0.0130  0.4634
   25DOPE   H6X 3189   7.052   6.583   6.075 -0.0561  0.8868 -1.0740
   25DOPE   H6Y 3190   7.165   6.563   5.961 -0.7340  2.1960  0.5252
   25DOPE   C37 3191   7.256   6.645   6.140 -0.1411  0.1669  0.1815
   25DOPE   H7X 3192   7.261   6.617   6.247  1.2073 -1.3198 -0.2251
   25DOPE   H7Y 3193   7.357   6.633   6.095  0.6190  1.9901  1.2863
   25DOPE   C38 3194   7.210   6.792   6.134 -0.6487 -0.1465 -0.0671
   25DOPE   H8X 3195   7.107   6.792   6.176  0.1748  0.7488  2.1024
   25DOPE   H8Y 3196   7.202   6.815   6.025 -2.0584 -1.3665 -0.2649
   25DOPE   C39 3197   7.291   6.890   6.222  0.3031  0.0511 -0.6884
   25DOPE   H9X 3198   7.252   6.910   6.322 -0.4824 -3.2417 -0.2083
   25DOPE  C310 3199   7.384   6.971   6.167  0.1872 -0.2184 -0.2619
   25DOPE  H10X 3200   7.439   7.044   6.229  1.1246 -1.1127 -0.0132
   25DOPE  C311 3201   7.443   6.951   6.028 -0.5541 -0.7822  0.1232
   25DOPE  H11X 3202   7.508   6.861   6.028  0.0078 -0.3778 -0.1864
   25DOPE  H11Y 3203   7.354   6.930   5.964 -0.7535 -3.1691  1.0455
   25DOPE  C312 3204   7.531   7.070   5.978  0.1563 -0.1280  0.3379
   25DOPE  H12X 3205   7.627   7.071   6.035  0.7742  0.5450 -0.6813
   25DOPE  H12Y 3206   7.477   7.163   6.002 -0.6044 -0.4552 -0.0869
   25DOPE  C313 3207   7.573   7.050   5.831  0.8289 -0.4828  0.0967
   25DOPE  H13X 3208   7.615   6.947   5.827  0.5137 -0.5717 -1.2815
   25DOPE  H13Y 3209   7.484   7.043   5.766  0.4237 -1.6160  0.7306
   25DOPE  C314 3210   7.673   7.155   5.774 -0.1931  0.2645  0.6049
   25DOPE  H14X 3211   7.646   7.258   5.808 -1.4592 -0.3418  1.4977
   25DOPE  H14Y 3212   7.666   7.152   5.664  1.6591 -0.3883  0.4822
   25DOPE  C315 3213   7.822   7.127   5.818  0.4897 -0.2031  0.3350
   25DOPE  H15X 3214   7.842   7.018   5.818  3.4400  0.2344  1.2746
   25DOPE  H15Y 3215   7.852   7.172   5.915 -1.2059  0.1497  0.7255
   25DOPE  C316 3216   7.926   7.178   5.714 -0.5115  0.2542 -0.0377
   25DOPE  H16X 3217   8.013   7.202   5.779 -1.0208 -0.4705  0.9459
   25DOPE  H16Y 3218   7.884   7.262   5.655 -0.0180 -0.5214 -1.5271
   25DOPE  C317 3219   7.989   7.064   5.623 -0.4143 -0.4801 -0.1663
   25DOPE  H17X 3220   8.069   7.116   5.565 -1.6208 -0.2353 -1.6709
   25DOPE  H17Y 3221   8.037   6.994   5.695 -0.8084 -0.4436  0.1325
   25DOPE  C318 3222   7.901   6.997   5.523  0.1628  0.2616 -0.5966
   25DOPE  H18X 3223   7.837   7.071   5.471 -4.3672 -1.9520  1.2898
   25DOPE  H18Y 3224   7.942   6.928   5.446 -0.1564 -1.0476  0.3821
   25DOPE  H18Z 3225   7.821   6.940   5.573 -0.9924  1.6877 -0.7534
   26DOPE     N 3226   1.058   6.535   7.134 -0.0033  0.4243 -0.2547
   26DOPE   HN1 3227   1.114   6.615   7.099 -4.9478  4.0880 -0.8617
   26DOPE   HN2 3228   1.070   6.520   7.236  1.1520  2.0288 -0.1221
   26DOPE   HN3 3229   1.077   6.439   7.097 -1.3034 -0.0144  0.1781
   26DOPE   C12 3230   0.917   6.570   7.109  0.8232  0.1837  0.8372
   26DOPE  H12A 3231   0.887   6.648   7.183 -2.4967  1.7695 -1.9184
   26DOPE  H12B 3232   0.854   6.479   7.116  1.9568 -0.8968 -1.7381
   26DOPE   C11 3233   0.900   6.618   6.965  0.4349  0.3632  0.3033
   26DOPE  H11A 3234   0.791   6.612   6.944  0.4381  1.4518 -0.0883
   26DOPE  H11B 3235   0.942   6.540   6.898  0.2982  1.5105 -1.1622
   26DOPE     P 3236   1.092   6.799   6.916 -0.8009  0.2889  0.4909
   26DOPE   O13 3237   1.186   6.710   6.983 -0.1447 -0.0566 -0.3854
   26DOPE   O14 3238   1.102   6.945   6.942  0.2437  0.4885  0.3779
   26DOPE   O11 3239   1.119   6.780   6.763 -0.8327  0.1459  0.3513
   26DOPE   O12 3240   0.941   6.751   6.946 -0.0181 -0.0549  0.1385
   26DOPE    C1 3241   1.010   6.745   6.672  0.1471 -0.0928  0.1075
   26DOPE    HA 3242   0.935   6.827   6.676 -0.8816 -0.9748 -0.2611
   26DOPE    HB 3243   0.957   6.650   6.696  3.1716 -1.5810  1.4227
   26DOPE    C2 3244   1.056   6.732   6.522 -0.3592  0.7044  0.4600
   26DOPE    HS 3245   0.966   6.731   6.457  1.0804 -0.2325 -1.6396
   26DOPE   O21 3246   1.135   6.612   6.499  0.0614  0.2175 -0.4167
   26DOPE   C21 3247   1.059   6.503   6.498 -1.6150  0.7444 -0.2652
   26DOPE   O22 3248   0.939   6.494   6.507  0.7605 -0.6140  0.2884
   26DOPE   C22 3249   1.154   6.373   6.498  0.1844  0.2969 -0.0838
   26DOPE   H2R 3250   1.119   6.301   6.575  0.6740  0.0206 -0.1199
   26DOPE   H2S 3251   1.254   6.409   6.530  0.0669 -1.8294  3.2347
   26DOPE    C3 3252   1.132   6.861   6.492 -0.7225 -0.8424  0.5763
   26DOPE    HX 3253   1.200   6.884   6.577 -2.1450 -1.4913  1.9348
   26DOPE    HY 3254   1.066   6.950   6.496  0.7795  0.5933 -2.7023
   26DOPE   O31 3255   1.187   6.855   6.359  0.3423 -0.6898 -0.0721
   26DOPE   C31 3256   1.310   6.824   6.341  0.2671 -0.2057  1.0701
   26DOPE   O32 3257   1.397   6.816   6.424  0.0300  0.9233 -0.0579
   26DOPE   C32 3258   1.336   6.833   6.192  0.1422  0.7873  0.5912
   26DOPE   H2X 3259   1.256   6.863   6.121  1.6180 -2.6535 -2.8912
   26DOPE   H2Y 3260   1.417   6.909   6.194  0.8211  0.0737  2.5890
   26DOPE   C23 3261   1.152   6.307   6.355  0.3485  0.3880  0.1245
   26DOPE   H3R 3262   1.053   6.325   6.307  0.9483 -0.0859 -1.3579
   26DOPE   H3S 3263   1.171   6.199   6.373  0.0977  0.5195  1.2614
   26DOPE   C24 3264   1.262   6.361   6.261  0.0281  0.1083  0.3358
   26DOPE   H4R 3265   1.298   6.464   6.285 -3.6032  1.8495 -0.9177
   26DOPE   H4S 3266   1.228   6.365   6.155 -2.0059  4.2965  0.9166
   26DOPE   C25 3267   1.389   6.275   6.256 -0.3462  0.2850  0.3081
   26DOPE   H5R 3268   1.365   6.183   6.199  0.4987 -0.0797  0.5263
   26DOPE   H5S 3269   1.417   6.259   6.363 -2.1430 -1.4503  0.5809
   26DOPE   C26 3270   1.506   6.345   6.190  0.2952 -0.4400  0.1706
   26DOPE   H6R 3271   1.540   6.446   6.222  2.4211 -0.7582 -0.8936
   26DOPE   H6S 3272   1.479   6.364   6.083 -0.8784  0.8810  0.6781
   26DOPE   C27 3273   1.632   6.251   6.176  0.1174 -0.1899  0.2309
   26DOPE   H7R 3274   1.599   6.153   6.136  1.7554 -1.7024  2.3939
   26DOPE   H7S 3275   1.665   6.230   6.280  1.5246  2.3055  0.3584
   26DOPE   C28 3276   1.742   6.314   6.087  0.4548  0.0205 -0.0667
   26DOPE   H8R 3277   1.780   6.410   6.129  0.1192 -0.4530  1.3686
   26DOPE   H8S 3278   1.698   6.343   5.989  0.6986 -0.8574 -0.4395
   26DOPE   C29 3279   1.853   6.217   6.074 -0.5098 -0.3404 -0.1843
   26DOPE   H9R 3280   1.867   6.139   6.150  1.0356 -1.3276 -1.4199
   26DOPE  C210 3281   1.935   6.201   5.967  0.1738 -0.3699  0.4775
   26DOPE  H10R 3282   2.029   6.145   5.972  0.0420 -0.5582  0.9130
   26DOPE  C211 3283   1.930   6.277   5.837  0.3683  0.2082  0.3718
   26DOPE  H11R 3284   2.036   6.289   5.804  1.1054 -0.6966  2.2681
   26DOPE  H11S 3285   1.874   6.373   5.842 -1.0960 -0.6538  1.3398
   26DOPE  C212 3286   1.871   6.190   5.719  0.2926 -0.6134  0.0494
   26DOPE  H12R 3287   1.770   6.157   5.753 -0.4586  2.8884  1.6688
   26DOPE  H12S 3288   1.925   6.095   5.700  1.0945 -0.1258 -0.1250
   26DOPE  C213 3289   1.865   6.272   5.594  0.4783  0.2284 -0.0408
   26DOPE  H13R 3290   1.961   6.254   5.541  0.3642  1.0758 -0.5474
   26DOPE  H13S 3291   1.842   6.379   5.613  0.0362 -0.1438  1.6481
   26DOPE  C214 3292   1.749   6.227   5.508  0.6583 -0.4942 -0.3072
   26DOPE  H14R 3293   1.654   6.250   5.561  0.5997  0.1541 -0.6782
   26DOPE  H14S 3294   1.742   6.116   5.500 -1.6102 -0.3024 -1.8333
   26DOPE  C215 3295   1.755   6.277   5.358 -0.7609 -0.1299  0.0641
   26DOPE  H15R 3296   1.776   6.386   5.353 -0.7476 -0.1657 -0.8188
   26DOPE  H15S 3297   1.660   6.247   5.309 -0.7930  0.0697  0.0036
   26DOPE  C216 3298   1.867   6.198   5.278 -0.3846  0.0202  0.6457
   26DOPE  H16R 3299   1.835   6.092   5.266 -1.2618  0.4539 -1.0655
   26DOPE  H16S 3300   1.967   6.217   5.324  0.1012 -0.8280 -0.0463
   26DOPE  C217 3301   1.867   6.246   5.134 -0.2610  0.0088  0.0789
   26DOPE  H17R 3302   1.922   6.342   5.122  1.8431 -0.9778  1.2101
   26DOPE  H17S 3303   1.761   6.259   5.105 -0.6823 -0.9520  1.0949
   26DOPE  C218 3304   1.927   6.147   5.025  0.2001 -0.5677 -0.5013
   26DOPE  H18R 3305   1.931   6.197   4.926  0.1862 -0.4438 -0.4393
   26DOPE  H18S 3306   1.848   6.070   5.013  1.1895 -2.0116  1.5816
   26DOPE  H18T 3307   2.022   6.101   5.058  0.5946  1.8719  2.2077
   26DOPE   C33 3308   1.418   6.710   6.144 -0.0693 -0.0356 -0.2529
   26DOPE   H3X 3309   1.349   6.622   6.146  0.7644 -0.7205  2.3546
   26DOPE   H3Y 3310   1.509   6.696   6.207 -0.6349 -3.5098 -0.0233
   26DOPE   C34 3311   1.460   6.731   5.994 -0.2718  0.1555 -0.0051
   26DOPE   H4X 3312   1.369   6.734   5.930 -0.3820 -1.5405  0.0044
   26DOPE   H4Y 3313   1.515   6.827   5.997 -0.5234  0.2978  0.1695
   26DOPE   C35 3314   1.552   6.618   5.944  0.0836  0.3970 -0.4903
   26DOPE   H5X 3315   1.497   6.522   5.944  1.0247 -0.1628  0.3151
   26DOPE   H5Y 3316   1.643   6.606   6.006  0.3557 -1.4477 -1.2017
   26DOPE   C36 3317   1.587   6.641   5.793  0.0668  0.3645  0.2241
   26DOPE   H6X 3318   1.662   6.561   5.773  0.1347  0.3257  0.6188
   26DOPE   H6Y 3319   1.642   6.737   5.783 -0.4249  0.9608  2.5230
   26DOPE   C37 3320   1.466   6.622   5.699  0.2606 -0.2960  0.5225
   26DOPE   H7X 3321   1.402   6.537   5.730 -1.3680  0.4822 -0.5519
   26DOPE   H7Y 3322   1.395   6.704   5.724 -0.3758  0.0554 -2.0998
   26DOPE   C38 3323   1.486   6.612   5.547  0.0089  0.4477 -0.3592
   26DOPE   H8X 3324   1.393   6.597   5.488 -0.3882  0.4946  0.2427
   26DOPE   H8Y 3325   1.552   6.525   5.530  0.2062  0.7607 -1.2757
   26DOPE   C39 3326   1.548   6.744   5.505 -0.2361 -0.1308  0.5243
   26DOPE   H9X 3327   1.476   6.826   5.516 -0.7289 -0.8879  4.3881
   26DOPE  C310 3328   1.678   6.757   5.466 -0.5051 -0.3211 -0.3519
   26DOPE  H10X 3329   1.708   6.859   5.439  2.3942 -1.0229 -0.1616
   26DOPE  C311 3330   1.785   6.652   5.457  0.5337 -0.0364 -0.9335
   26DOPE  H11X 3331   1.857   6.673   5.538 -0.1231  0.7660 -0.5435
   26DOPE  H11Y 3332   1.739   6.552   5.471 -0.8643  0.8274  1.1621
   26DOPE  C312 3333   1.853   6.659   5.321 -0.8315  0.0353 -0.1634
   26DOPE  H12X 3334   1.929   6.578   5.312 -0.0629  0.6471  0.6787
   26DOPE  H12Y 3335   1.913   6.750   5.300 -0.5002 -0.7006 -2.8781
   26DOPE  C313 3336   1.758   6.660   5.201 -0.3327  1.0092  0.0679
   26DOPE  H13X 3337   1.717   6.558   5.188 -0.1883  1.2455 -3.0980
   26DOPE  H13Y 3338   1.676   6.735   5.213 -0.6654  0.5728  0.5657
   26DOPE  C314 3339   1.834   6.683   5.068  0.3026 -0.1201 -0.1640
   26DOPE  H14X 3340   1.929   6.626   5.062  0.7469  0.0654  3.0435
   26DOPE  H14Y 3341   1.847   6.791   5.050  1.5473 -0.4298 -1.2813
   26DOPE  C315 3342   1.743   6.640   4.953  0.7727  0.4579 -0.5243
   26DOPE  H15X 3343   1.636   6.646   4.982  1.6743  1.6721  2.9709
   26DOPE  H15Y 3344   1.758   6.532   4.930 -3.2866 -0.0726 -1.5619
   26DOPE  C316 3345   1.750   6.725   4.829  0.0524  0.1496 -0.3876
   26DOPE  H16X 3346   1.704   6.668   4.745  0.2237 -0.4584 -0.0747
   26DOPE  H16Y 3347   1.856   6.735   4.797 -0.5940 -0.8735 -3.2128
   26DOPE  C317 3348   1.692   6.866   4.839  0.8579  0.4713 -0.2947
   26DOPE  H17X 3349   1.582   6.853   4.853  0.8541  1.0490  0.2373
   26DOPE  H17Y 3350   1.742   6.912   4.927  1.7142 -1.5199  0.3302
   26DOPE  C318 3351   1.720   6.949   4.715 -0.0606 -0.5477  0.2877
   26DOPE  H18X 3352   1.689   6.889   4.626  0.2067  0.0236 -0.1968
   26DOPE  H18Y 3353   1.659   7.041   4.710  0.9849  0.3422  2.7570
   26DOPE  H18Z 3354   1.825   6.981   4.699 -1.0976  2.0863 -2.1911
   27DOPE     N 3355   5.888   7.584   7.689  0.6705 -0.4725  0.3038
   27DOPE   HN1 3356   5.909   7.686   7.688  1.0445 -0.5521 -0.6348
   27DOPE   HN2 3357   5.860   7.549   7.783 -2.3454 -1.6383 -0.9247
   27DOPE   HN3 3358   5.977   7.540   7.658  1.4543  2.0207 -1.2768
   27DOPE   C12 3359   5.779   7.579   7.583 -0.0770  0.3254  0.6590
   27DOPE  H12A 3360   5.687   7.599   7.642 -1.1949  0.6381 -1.0971
   27DOPE  H12B 3361   5.787   7.476   7.542 -0.9296  0.3677  0.3593
   27DOPE   C11 3362   5.802   7.684   7.475  0.9165 -0.0255 -0.1305
   27DOPE  H11A 3363   5.715   7.679   7.406  0.6645  0.7045  0.1271
   27DOPE  H11B 3364   5.900   7.662   7.426  0.9944  0.2475 -0.0970
   27DOPE     P 3365   5.835   7.945   7.475 -0.0751 -0.1166 -0.0585
   27DOPE   O13 3366   5.963   8.000   7.527 -0.6298  0.3960  0.0691
   27DOPE   O14 3367   5.710   8.019   7.492  0.3882 -0.6602 -0.0289
   27DOPE   O11 3368   5.858   7.909   7.320 -0.2085 -0.1276  0.4825
   27DOPE   O12 3369   5.802   7.811   7.535 -0.0114  0.4118 -0.0146
   27DOPE    C1 3370   5.755   7.931   7.230  0.7097  0.2064  0.8385
   27DOPE    HA 3371   5.731   8.040   7.233  0.6001  0.1813  0.8497
   27DOPE    HB 3372   5.660   7.886   7.265  0.0880 -0.6685 -1.7955
   27DOPE    C2 3373   5.791   7.889   7.087 -0.1412  0.6095  0.9274
   27DOPE    HS 3374   5.834   7.787   7.084 -2.7407 -0.5529 -0.6557
   27DOPE   O21 3375   5.877   7.989   7.034  0.1634 -0.0241 -0.2415
   27DOPE   C21 3376   5.988   7.948   6.971 -0.4256 -0.0688  0.6585
   27DOPE   O22 3377   6.024   7.835   6.957 -0.2173  0.3417 -0.8010
   27DOPE   C22 3378   6.070   8.067   6.916  0.2910 -0.1196  0.1008
   27DOPE   H2R 3379   6.170   8.035   6.879  0.6031  1.7900 -0.8107
   27DOPE   H2S 3380   6.092   8.144   6.993 -0.4167  1.1767 -0.9636
   27DOPE    C3 3381   5.658   7.870   7.002 -0.3880 -0.5274  0.3008
   27DOPE    HX 3382   5.613   7.971   7.011  2.3331  0.6650  2.1555
   27DOPE    HY 3383   5.588   7.793   7.042  1.0606 -2.2506 -0.3389
   27DOPE   O31 3384   5.685   7.814   6.862 -0.1204  0.0952  0.6566
   27DOPE   C31 3385   5.694   7.906   6.768  0.1608  0.8458 -0.3188
   27DOPE   O32 3386   5.674   8.024   6.779 -0.1432  0.1535 -0.0241
   27DOPE   C32 3387   5.728   7.839   6.636  0.8899  0.6191  0.3706
   27DOPE   H2X 3388   5.813   7.770   6.656 -0.3069 -0.3556  2.4419
   27DOPE   H2Y 3389   5.646   7.772   6.601  1.5485 -0.5804  1.0430
   27DOPE   C23 3390   5.991   8.136   6.804 -0.6751  0.3093 -0.7579
   27DOPE   H3R 3391   5.895   8.166   6.852 -1.8422 -0.6543 -2.4078
   27DOPE   H3S 3392   5.966   8.056   6.732 -0.3803 -1.2379  0.7848
   27DOPE   C24 3393   6.068   8.253   6.731 -0.1066 -0.1433  0.0180
   27DOPE   H4R 3394   6.168   8.214   6.701  1.1300  0.8121  2.6197
   27DOPE   H4S 3395   6.087   8.343   6.792 -0.8199  1.2896 -1.7815
   27DOPE   C25 3396   5.991   8.300   6.604  0.0154  0.4898  0.4245
   27DOPE   H5R 3397   5.974   8.409   6.602  3.0226  1.0578  0.6728
   27DOPE   H5S 3398   5.888   8.258   6.606 -0.4508  1.6112  0.1890
   27DOPE   C26 3399   6.042   8.239   6.471 -0.5779 -0.6213 -0.1976
   27DOPE   H6R 3400   5.965   8.268   6.396  0.3961  1.0314 -0.6198
   27DOPE   H6S 3401   6.055   8.129   6.482 -2.7121 -0.8843  0.1146
   27DOPE   C27 3402   6.171   8.314   6.420 -0.4887 -0.0312  0.0355
   27DOPE   H7R 3403   6.216   8.258   6.335 -1.1764 -2.2961  1.0855
   27DOPE   H7S 3404   6.243   8.325   6.504 -0.2952 -0.6675 -0.0433
   27DOPE   C28 3405   6.144   8.453   6.357 -0.0310 -0.5948  0.6854
   27DOPE   H8R 3406   6.107   8.529   6.429  0.9428  1.5320 -0.9314
   27DOPE   H8S 3407   6.064   8.450   6.281 -0.7992 -0.8094  1.4959
   27DOPE   C29 3408   6.260   8.519   6.287 -0.4513 -0.0426 -0.6173
   27DOPE   H9R 3409   6.316   8.590   6.350 -0.7462  2.1286 -2.6718
   27DOPE  C210 3410   6.306   8.494   6.162 -0.0654  0.0140  0.0104
   27DOPE  H10R 3411   6.409   8.519   6.133  0.3700  0.9026  2.1575
   27DOPE  C211 3412   6.238   8.392   6.070  0.1621 -0.3465  0.1180
   27DOPE  H11R 3413   6.132   8.363   6.088  0.1756 -1.2659 -1.1334
   27DOPE  H11S 3414   6.290   8.295   6.055 -0.0198 -0.1797 -1.7737
   27DOPE  C212 3415   6.241   8.459   5.928 -0.5785  0.5386  0.0690
   27DOPE  H12R 3416   6.343   8.501   5.915 -0.1994 -0.6924 -1.1516
   27DOPE  H12S 3417   6.161   8.536   5.931 -1.1638  0.0615 -1.8859
   27DOPE  C213 3418   6.206   8.354   5.815 -0.1906 -1.3282 -0.5418
   27DOPE  H13R 3419   6.114   8.298   5.839  0.9232 -2.4037  1.5006
   27DOPE  H13S 3420   6.290   8.281   5.825 -0.7210 -1.7937  0.7469
   27DOPE  C214 3421   6.195   8.420   5.672 -0.7525  0.0752 -0.3485
   27DOPE  H14R 3422   6.300   8.443   5.642 -0.6220 -1.9355 -1.6031
   27DOPE  H14S 3423   6.141   8.517   5.674 -0.2456  0.3837  2.5401
   27DOPE  C215 3424   6.140   8.317   5.573  0.1114 -0.6175  0.3591
   27DOPE  H15R 3425   6.037   8.281   5.591 -0.0058 -0.3555  0.2081
   27DOPE  H15S 3426   6.215   8.235   5.577 -1.9568 -2.7695 -2.2137
   27DOPE  C216 3427   6.126   8.371   5.430 -0.5701 -0.3948  0.1562
   27DOPE  H16R 3428   6.219   8.425   5.402 -1.3231  0.7957 -0.1205
   27DOPE  H16S 3429   6.044   8.444   5.417 -0.0891  0.1005 -0.0994
   27DOPE  C217 3430   6.102   8.255   5.326  0.0054 -0.2639 -0.4675
   27DOPE  H17R 3431   6.175   8.172   5.339  1.6225  1.2260  0.3730
   27DOPE  H17S 3432   6.123   8.300   5.226 -1.4298 -1.8414 -1.5442
   27DOPE  C218 3433   5.960   8.203   5.337 -0.1732  0.3838  0.3650
   27DOPE  H18R 3434   5.886   8.270   5.289 -3.0575 -2.1404  1.0023
   27DOPE  H18S 3435   5.938   8.174   5.442  3.3238  1.3653  1.5139
   27DOPE  H18T 3436   5.954   8.109   5.278  0.1926  0.5119  0.1149
   27DOPE   C33 3437   5.756   7.933   6.518  0.5453 -0.2036  0.1867
   27DOPE   H3X 3438   5.798   8.031   6.548  0.2613  0.0920 -0.3651
   27DOPE   H3Y 3439   5.655   7.959   6.478  0.6286 -0.2199 -0.0394
   27DOPE   C34 3440   5.842   7.870   6.406  0.3284 -0.3812  0.1488
   27DOPE   H4X 3441   5.945   7.873   6.446  0.4016  3.5344  0.0479
   27DOPE   H4Y 3442   5.819   7.762   6.388 -0.1088 -0.0159 -1.7212
   27DOPE   C35 3443   5.843   7.946   6.275 -0.1944  0.4631 -0.4551
   27DOPE   H5X 3444   5.879   8.048   6.301 -1.2977  0.9832 -0.9373
   27DOPE   H5Y 3445   5.739   7.957   6.238 -0.7262 -0.8645  0.5523
   27DOPE   C36 3446   5.942   7.889   6.174 -0.7529 -0.3682  0.4880
   27DOPE   H6X 3447   5.903   7.796   6.128  0.0484 -0.7378  0.5518
   27DOPE   H6Y 3448   6.043   7.865   6.214 -0.4777 -2.1577 -1.1466
   27DOPE   C37 3449   5.974   7.987   6.060  0.0522  0.0805  0.2743
   27DOPE   H7X 3450   5.887   8.053   6.043  1.6282  2.3414  0.6011
   27DOPE   H7Y 3451   6.055   8.055   6.094  0.1170  0.2347 -0.1868
   27DOPE   C38 3452   6.012   7.909   5.932  0.0153 -0.3389  0.8982
   27DOPE   H8X 3453   5.919   7.854   5.908 -0.4733  1.5573 -2.2477
   27DOPE   H8Y 3454   6.100   7.843   5.951 -0.7251 -2.1492 -1.4575
   27DOPE   C39 3455   6.050   8.001   5.812 -0.0771 -0.2684  0.9786
   27DOPE   H9X 3456   6.134   8.070   5.829 -1.1166  0.9933  1.2066
   27DOPE  C310 3457   6.007   7.991   5.681 -0.2762 -0.1882 -0.3407
   27DOPE  H10X 3458   6.065   8.044   5.603  0.7551 -0.6148  0.1137
   27DOPE  C311 3459   5.911   7.884   5.632  0.2179 -0.2243  0.0276
   27DOPE  H11X 3460   5.938   7.842   5.532  0.7513 -0.8343  0.4197
   27DOPE  H11Y 3461   5.920   7.797   5.700  0.0834  0.1535  0.5292
   27DOPE  C312 3462   5.760   7.926   5.634  0.0974  0.2537 -0.1139
   27DOPE  H12X 3463   5.742   7.993   5.547 -0.0398  0.1006 -0.2048
   27DOPE  H12Y 3464   5.727   7.977   5.727 -2.4866 -1.2363 -0.1278
   27DOPE  C313 3465   5.679   7.802   5.627 -0.2426  0.0995 -0.0688
   27DOPE  H13X 3466   5.723   7.730   5.554  0.6812  1.8971 -1.3589
   27DOPE  H13Y 3467   5.660   7.764   5.730 -0.2368 -1.0891 -0.4930
   27DOPE  C314 3468   5.533   7.832   5.577  0.4943  0.1493  0.3187
   27DOPE  H14X 3469   5.538   7.892   5.484 -0.5230 -0.8049 -0.3724
   27DOPE  H14Y 3470   5.474   7.889   5.651 -0.0031 -2.1747  1.8396
   27DOPE  C315 3471   5.453   7.706   5.550  0.1423  0.1317 -0.1830
   27DOPE  H15X 3472   5.422   7.652   5.642  1.2276 -0.6348 -0.2593
   27DOPE  H15Y 3473   5.507   7.641   5.479  1.1683  3.1631 -2.3617
   27DOPE  C316 3474   5.320   7.743   5.488 -0.7677 -0.2153 -0.2532
   27DOPE  H16X 3475   5.334   7.826   5.415  1.0016 -0.7628 -0.5772
   27DOPE  H16Y 3476   5.255   7.773   5.573 -0.1363  0.6460 -0.0614
   27DOPE  C317 3477   5.256   7.632   5.402  0.4022  0.8260 -0.2692
   27DOPE  H17X 3478   5.256   7.537   5.460 -0.9521  2.1353  2.0552
   27DOPE  H17Y 3479   5.153   7.660   5.371 -0.5776 -1.6522  0.4314
   27DOPE  C318 3480   5.327   7.595   5.266  0.2488 -0.9694 -0.5306
   27DOPE  H18X 3481   5.397   7.510   5.279 -0.5906 -1.3516  2.0953
   27DOPE  H18Y 3482   5.255   7.573   5.184 -1.3590  0.3908  0.4587
   27DOPE  H18Z 3483   5.390   7.684   5.247  2.1965 -1.6673  2.0463
   28DOPE     N 3484   7.637   7.390   6.789 -0.7361 -0.2815  0.2490
   28DOPE   HN1 3485   7.716   7.365   6.726  1.2911  1.8463  1.7759
   28DOPE   HN2 3486   7.669   7.470   6.847  2.4978  1.3319 -3.3043
   28DOPE   HN3 3487   7.616   7.304   6.844 -0.5301 -0.6394 -0.2278
   28DOPE   C12 3488   7.514   7.423   6.700 -0.7983  0.0967 -0.5056
   28DOPE  H12A 3489   7.469   7.327   6.668 -1.4281  0.1850  0.0872
   28DOPE  H12B 3490   7.547   7.471   6.605  0.3438  0.4374  0.0378
   28DOPE   C11 3491   7.418   7.521   6.772  0.2131  0.0997 -0.0356
   28DOPE  H11A 3492   7.341   7.568   6.706 -0.6396 -2.4469 -0.9881
   28DOPE  H11B 3493   7.492   7.598   6.801  0.7164  0.4155 -1.9835
   28DOPE     P 3494   7.238   7.366   6.869  0.0702 -0.1919  0.0059
   28DOPE   O13 3495   7.115   7.448   6.893  0.0725  0.0623  0.2391
   28DOPE   O14 3496   7.256   7.259   6.967  0.2313 -0.3232 -0.0984
   28DOPE   O11 3497   7.244   7.301   6.724 -0.2299  0.1681  0.3660
   28DOPE   O12 3498   7.362   7.462   6.886  0.3078  0.3365  0.0952
   28DOPE    C1 3499   7.160   7.347   6.617 -0.2894  0.3292  0.3929
   28DOPE    HA 3500   7.214   7.322   6.523 -0.5617 -0.5326  0.4486
   28DOPE    HB 3501   7.142   7.456   6.609 -0.8110  0.1685 -0.7860
   28DOPE    C2 3502   7.025   7.272   6.612 -0.1497  0.6307 -0.8727
   28DOPE    HS 3503   7.032   7.178   6.672  0.3623  1.5806  0.5942
   28DOPE   O21 3504   7.012   7.247   6.469  0.0728  0.2261 -0.8335
   28DOPE   C21 3505   6.949   7.132   6.439 -0.1302 -0.0776 -0.1494
   28DOPE   O22 3506   6.908   7.054   6.523  0.4588  0.2192 -0.2046
   28DOPE   C22 3507   6.922   7.127   6.293 -0.7125  0.4033  0.2164
   28DOPE   H2R 3508   6.984   7.052   6.239 -0.9483  2.6830 -3.5991
   28DOPE   H2S 3509   6.924   7.229   6.250 -0.6110 -0.5065 -2.1293
   28DOPE    C3 3510   6.897   7.346   6.661  0.6542  0.3105 -0.4204
   28DOPE    HX 3511   6.896   7.370   6.769 -0.3817 -0.4774 -0.2495
   28DOPE    HY 3512   6.813   7.276   6.648  0.1334 -0.4595  4.9408
   28DOPE   O31 3513   6.867   7.466   6.585 -0.1551  0.4550 -0.5248
   28DOPE   C31 3514   6.809   7.458   6.470  0.3896  0.3463  0.2941
   28DOPE   O32 3515   6.758   7.355   6.425 -0.1218 -0.0276  0.2136
   28DOPE   C32 3516   6.808   7.592   6.395  0.2547 -0.2035 -0.2943
   28DOPE   H2X 3517   6.771   7.670   6.464  1.7053 -0.2145  0.5525
   28DOPE   H2Y 3518   6.914   7.612   6.367  0.3521 -0.9909 -0.5254
   28DOPE   C23 3519   6.780   7.080   6.253 -0.3124 -0.4069 -0.3785
   28DOPE   H3R 3520   6.709   7.130   6.323  1.1003  0.3858  0.5342
   28DOPE   H3S 3521   6.777   6.973   6.284  0.4550 -0.4068 -0.2927
   28DOPE   C24 3522   6.733   7.093   6.111  0.2581 -0.9839 -0.0906
   28DOPE   H4R 3523   6.625   7.065   6.108 -0.2481  0.3055  2.8547
   28DOPE   H4S 3524   6.786   7.028   6.038 -0.8128 -0.0154 -1.8140
   28DOPE   C25 3525   6.721   7.234   6.044 -0.4736  0.3619 -0.3181
   28DOPE   H5R 3526   6.816   7.269   5.998  0.0393 -2.5108 -1.6502
   28DOPE   H5S 3527   6.696   7.303   6.128  1.0594  0.0154  0.4654
   28DOPE   C26 3528   6.623   7.233   5.931  0.5613 -0.1350 -0.9249
   28DOPE   H6R 3529   6.527   7.198   5.975  0.8743  0.5579  0.3350
   28DOPE   H6S 3530   6.647   7.152   5.858  1.2339  0.1455 -1.0185
   28DOPE   C27 3531   6.605   7.367   5.862 -0.7967  0.6020  0.0707
   28DOPE   H7R 3532   6.696   7.389   5.804 -1.4792 -0.5676 -1.5152
   28DOPE   H7S 3533   6.591   7.446   5.939  0.4614 -0.6173  1.6087
   28DOPE   C28 3534   6.491   7.371   5.758 -0.0881  0.4281 -0.3722
   28DOPE   H8R 3535   6.401   7.348   5.818  1.7229 -0.4284  2.1852
   28DOPE   H8S 3536   6.512   7.300   5.675 -0.0440  1.8229 -1.6037
   28DOPE   C29 3537   6.473   7.514   5.706 -0.6340 -0.1350 -0.1492
   28DOPE   H9R 3538   6.437   7.583   5.783 -0.9864 -1.8322  1.2811
   28DOPE  C210 3539   6.504   7.561   5.583  0.6103 -0.0165  0.0327
   28DOPE  H10R 3540   6.495   7.668   5.559  2.5675 -0.1042 -1.3657
   28DOPE  C211 3541   6.556   7.478   5.471  0.0528 -0.3470  0.6300
   28DOPE  H11R 3542   6.605   7.389   5.516 -2.4128 -1.4485  1.3136
   28DOPE  H11S 3543   6.635   7.534   5.416 -0.4187 -0.2435  0.0455
   28DOPE  C212 3544   6.453   7.443   5.363  0.3706  0.1768 -0.0070
   28DOPE  H12R 3545   6.497   7.400   5.270 -0.5061  1.1611 -0.9127
   28DOPE  H12S 3546   6.404   7.536   5.328  0.5801  0.1274 -0.4490
   28DOPE  C213 3547   6.346   7.336   5.391  0.4645  0.3568 -0.4227
   28DOPE  H13R 3548   6.277   7.379   5.467  1.2356  0.2271  0.3669
   28DOPE  H13S 3549   6.391   7.254   5.452 -0.2120 -2.7903 -3.8107
   28DOPE  C214 3550   6.275   7.285   5.267  0.0592 -0.2132 -0.0078
   28DOPE  H14R 3551   6.345   7.229   5.201 -0.3175 -0.3254 -0.3111
   28DOPE  H14S 3552   6.236   7.369   5.205  2.0423  0.5792 -0.2784
   28DOPE  C215 3553   6.170   7.180   5.309 -0.0280 -0.2334  0.3461
   28DOPE  H15R 3554   6.104   7.227   5.384  0.7926 -2.3176  2.4964
   28DOPE  H15S 3555   6.216   7.098   5.368 -1.4206 -0.6350  0.8886
   28DOPE  C216 3556   6.084   7.115   5.198  0.4417 -0.2644  0.1785
   28DOPE  H16R 3557   6.040   7.197   5.138 -0.5138 -1.6742 -1.1134
   28DOPE  H16S 3558   5.997   7.064   5.244  0.3405  0.7863  1.2056
   28DOPE  C217 3559   6.159   7.028   5.096 -0.3953  0.1630 -0.0394
   28DOPE  H17R 3560   6.247   7.088   5.064 -0.1370 -0.7504 -1.1122
   28DOPE  H17S 3561   6.106   7.008   5.001 -0.9298  0.2990  0.2255
   28DOPE  C218 3562   6.197   6.889   5.139 -0.0998 -0.2166 -0.5681
   28DOPE  H18R 3563   6.264   6.889   5.228 -0.8890  0.5529  0.0469
   28DOPE  H18S 3564   6.256   6.829   5.066  0.0025 -0.6602 -0.1254
   28DOPE  H18T 3565   6.100   6.841   5.163  0.0164 -0.9003 -1.4152
   28DOPE   C33 3566   6.716   7.601   6.268  0.5778  0.6848 -0.8398
   28DOPE   H3X 3567   6.618   7.551   6.286  0.1298  0.6985 -2.9681
   28DOPE   H3Y 3568   6.773   7.541   6.194 -1.2166 -2.2208 -0.0631
   28DOPE   C34 3569   6.697   7.746   6.221  0.2587 -0.7108  0.1076
   28DOPE   H4X 3570   6.625   7.744   6.137  1.6159 -1.3632 -1.0910
   28DOPE   H4Y 3571   6.652   7.798   6.307 -0.5742 -1.6842  0.2785
   28DOPE   C35 3572   6.819   7.820   6.165 -0.3562  0.0308 -0.2468
   28DOPE   H5X 3573   6.908   7.820   6.231  0.7582 -1.1894 -1.6692
   28DOPE   H5Y 3574   6.791   7.927   6.164 -0.4682  0.0148  0.7340
   28DOPE   C36 3575   6.857   7.776   6.025  0.1460 -0.8132 -0.4448
   28DOPE   H6X 3576   6.759   7.774   5.973 -0.1716  2.8460 -0.3014
   28DOPE   H6Y 3577   6.897   7.673   6.018 -1.0412 -1.4681  1.6877
   28DOPE   C37 3578   6.955   7.867   5.959  0.0278 -0.1224  0.5515
   28DOPE   H7X 3579   6.917   7.972   5.954  1.7747  0.6192  1.8056
   28DOPE   H7Y 3580   7.051   7.878   6.014  0.1076  0.5280  0.2978
   28DOPE   C38 3581   7.002   7.820   5.818 -0.6126 -0.0887  0.5275
   28DOPE   H8X 3582   7.041   7.716   5.816  3.7580  1.3565  0.0093
   28DOPE   H8Y 3583   7.097   7.873   5.795 -0.6282  0.3759  1.4651
   28DOPE   C39 3584   6.898   7.842   5.711 -0.5776  0.0941 -0.5257
   28DOPE   H9X 3585   6.803   7.798   5.746  0.4591 -0.7507  1.3560
   28DOPE  C310 3586   6.896   7.904   5.590 -0.9036 -0.4401 -0.2830
   28DOPE  H10X 3587   6.794   7.912   5.549 -0.7433  1.4805 -0.3674
   28DOPE  C311 3588   7.015   7.971   5.529  0.3513  0.9354 -0.6635
   28DOPE  H11X 3589   7.002   8.081   5.540 -4.6213  0.5810 -0.9955
   28DOPE  H11Y 3590   7.106   7.946   5.587  0.6744  2.4124 -0.4757
   28DOPE  C312 3591   7.035   7.930   5.381 -1.2385  0.1925  0.0978
   28DOPE  H12X 3592   6.941   7.901   5.327 -2.4418 -1.7284  2.9678
   28DOPE  H12Y 3593   7.099   7.840   5.384 -0.7850  0.3886 -2.0062
   28DOPE  C313 3594   7.101   8.043   5.290  0.3286  0.8065 -0.5850
   28DOPE  H13X 3595   7.019   8.118   5.293  0.7302  1.2465  2.4642
   28DOPE  H13Y 3596   7.195   8.079   5.337 -0.5285  0.9790  1.0686
   28DOPE  C314 3597   7.142   7.999   5.148  0.0783 -0.0077  0.0154
   28DOPE  H14X 3598   7.177   8.089   5.094  0.0674 -0.9903 -1.7075
   28DOPE  H14Y 3599   7.058   7.981   5.077  1.6929 -0.0557 -1.9747
   28DOPE  C315 3600   7.254   7.896   5.156 -0.2007 -0.3231 -0.0960
   28DOPE  H15X 3601   7.213   7.806   5.207 -1.7360 -0.9469 -2.2640
   28DOPE  H15Y 3602   7.340   7.942   5.208  0.2158 -0.6955 -0.4463
   28DOPE  C316 3603   7.333   7.872   5.017  0.4195 -0.3524 -0.2988
   28DOPE  H16X 3604   7.405   7.790   5.038  0.0106 -0.2938  1.4974
   28DOPE  H16Y 3605   7.383   7.968   4.993 -0.2457  0.4511  1.3297
   28DOPE  C317 3606   7.256   7.828   4.894 -0.4955  0.0523 -0.0681
   28DOPE  H17X 3607   7.209   7.729   4.912  2.0714 -1.9628 -3.2700
   28DOPE  H17Y 3608   7.178   7.897   4.856  1.2468  1.7334 -0.7908
   28DOPE  C318 3609   7.358   7.801   4.789 -0.2906  0.7644  0.6489
   28DOPE  H18X 3610   7.404   7.899   4.762 -2.1170  1.0086 -1.9090
   28DOPE  H18Y 3611   7.433   7.726   4.824 -1.4430 -0.8368 -0.1670
   28DOPE  H18Z 3612   7.315   7.765   4.693 -0.0624 -0.1568  0.8849
   29DOPE     N 3613   7.293   1.438   7.165  0.3927  0.7388  0.3542
   29DOPE   HN1 3614   7.275   1.384   7.251  3.0852 -1.2805 -0.2435
   29DOPE   HN2 3615   7.394   1.438   7.139  0.3580  0.0354  0.2080
   29DOPE   HN3 3616   7.262   1.536   7.184  1.3269  0.9457  0.8669
   29DOPE   C12 3617   7.210   1.382   7.053 -0.2018  0.4025  0.5791
   29DOPE  H12A 3618   7.238   1.429   6.956 -0.8614 -1.6897 -0.7045
   29DOPE  H12B 3619   7.104   1.403   7.079 -0.5551 -1.0591  0.3925
   29DOPE   C11 3620   7.208   1.227   7.047 -0.1748 -0.0607 -0.7163
   29DOPE  H11A 3621   7.298   1.185   6.996  1.2953  2.7377 -0.6616
   29DOPE  H11B 3622   7.125   1.213   6.975  0.5770 -1.5700 -1.3426
   29DOPE     P 3623   7.116   1.037   7.200 -0.0724 -0.0495  0.2118
   29DOPE   O13 3624   6.968   1.056   7.176 -0.0270  0.1790  0.0131
   29DOPE   O14 3625   7.144   0.985   7.334 -0.1769  0.5147  0.2741
   29DOPE   O11 3626   7.179   0.941   7.089 -0.2684 -0.0904 -0.4414
   29DOPE   O12 3627   7.185   1.183   7.179 -0.2595  0.4258  0.3476
   29DOPE    C1 3628   7.138   0.924   6.952 -0.7754  0.1030  0.1377
   29DOPE    HA 3629   7.070   1.005   6.917  0.5518  1.0526 -0.3913
   29DOPE    HB 3630   7.080   0.830   6.940 -0.2750  0.1326 -4.4931
   29DOPE    C2 3631   7.259   0.907   6.856 -0.9167  0.2459 -0.3122
   29DOPE    HS 3632   7.310   1.004   6.844  1.8177 -0.9645  0.7165
   29DOPE   O21 3633   7.211   0.843   6.736  0.2220 -0.2798 -0.1034
   29DOPE   C21 3634   7.245   0.896   6.617  0.1357 -0.1014 -0.1218
   29DOPE   O22 3635   7.333   0.974   6.595 -0.5390  0.1880 -0.7310
   29DOPE   C22 3636   7.141   0.838   6.518  0.0930 -0.3382 -0.1406
   29DOPE   H2R 3637   7.052   0.903   6.512  0.4338  0.1554  0.0800
   29DOPE   H2S 3638   7.103   0.741   6.554 -0.2330 -0.0561  0.2812
   29DOPE    C3 3639   7.368   0.816   6.923  0.8534  0.1112  0.2390
   29DOPE    HX 3640   7.302   0.729   6.944 -1.0070  1.1720 -0.9290
   29DOPE    HY 3641   7.399   0.866   7.017 -0.5154  1.9245 -0.2184
   29DOPE   O31 3642   7.473   0.780   6.830  0.0746 -0.2845  0.2289
   29DOPE   C31 3643   7.587   0.849   6.830  0.3839  0.0396  0.2491
   29DOPE   O32 3644   7.617   0.924   6.917 -0.0336 -0.5639 -0.5346
   29DOPE   C32 3645   7.662   0.819   6.702 -0.3599  0.1703 -0.3672
   29DOPE   H2X 3646   7.593   0.837   6.617 -0.5632 -0.2473 -0.2940
   29DOPE   H2Y 3647   7.748   0.888   6.693 -0.8863  0.5837 -3.6366
   29DOPE   C23 3648   7.205   0.831   6.376 -0.2007 -0.6124  0.2369
   29DOPE   H3R 3649   7.304   0.779   6.377  0.6357  0.9142 -0.1342
   29DOPE   H3S 3650   7.234   0.935   6.350 -2.2302 -0.4659 -1.7312
   29DOPE   C24 3651   7.126   0.775   6.259  0.5105 -0.1136  0.3865
   29DOPE   H4R 3652   7.190   0.765   6.169  0.2660  0.1614  0.1796
   29DOPE   H4S 3653   7.044   0.847   6.238 -0.5201 -1.2836  0.3233
   29DOPE   C25 3654   7.062   0.639   6.291  0.3647  0.4076  0.6957
   29DOPE   H5R 3655   6.991   0.659   6.374 -1.4003 -4.0833  0.5445
   29DOPE   H5S 3656   7.146   0.575   6.328 -0.6785 -1.9326 -0.7168
   29DOPE   C26 3657   7.002   0.562   6.177 -0.2877  0.0425  0.8018
   29DOPE   H6R 3658   6.986   0.457   6.208  1.0330 -0.7782 -1.1113
   29DOPE   H6S 3659   7.072   0.554   6.092 -0.0183 -0.2630  1.0520
   29DOPE   C27 3660   6.869   0.631   6.140 -0.6254 -0.3590 -0.0985
   29DOPE   H7R 3661   6.906   0.726   6.096  2.2754 -0.8864  0.9575
   29DOPE   H7S 3662   6.810   0.650   6.233 -2.0331 -2.0405 -0.6027
   29DOPE   C28 3663   6.804   0.547   6.030 -0.2094  0.4114  0.2343
   29DOPE   H8R 3664   6.790   0.441   6.059  2.9373 -0.7867 -1.9399
   29DOPE   H8S 3665   6.881   0.552   5.949 -0.6051 -1.0539 -0.2499
   29DOPE   C29 3666   6.674   0.598   5.973  0.8012  0.2692 -0.0464
   29DOPE   H9R 3667   6.599   0.597   6.053 -0.7306 -0.4176 -1.4493
   29DOPE  C210 3668   6.636   0.637   5.851  0.4867  0.2628  0.2406
   29DOPE  H10R 3669   6.532   0.665   5.829  1.0430  2.0490 -0.2815
   29DOPE  C211 3670   6.733   0.635   5.732  0.9419  0.6033 -0.1874
   29DOPE  H11R 3671   6.840   0.650   5.760  0.6192  0.9242  0.8985
   29DOPE  H11S 3672   6.704   0.718   5.664 -0.0514 -2.3895 -3.7355
   29DOPE  C212 3673   6.717   0.512   5.631  0.2195 -0.2265  0.6216
   29DOPE  H12R 3674   6.718   0.418   5.690 -2.4321  0.2927  1.6285
   29DOPE  H12S 3675   6.799   0.516   5.556  1.1265 -1.1350  1.5406
   29DOPE  C213 3676   6.590   0.519   5.540 -0.4829 -0.2841  0.5409
   29DOPE  H13R 3677   6.552   0.623   5.553  0.5972  0.1714  0.2104
   29DOPE  H13S 3678   6.514   0.446   5.574 -0.8109 -0.1752  0.0453
   29DOPE  C214 3679   6.624   0.510   5.390  0.0431 -0.5752  0.2902
   29DOPE  H14R 3680   6.673   0.412   5.377 -1.1696 -0.9954 -1.4240
   29DOPE  H14S 3681   6.681   0.601   5.363  2.1744 -1.5265  1.3589
   29DOPE  C215 3682   6.496   0.500   5.303 -0.3585 -0.6840 -0.0801
   29DOPE  H15R 3683   6.436   0.589   5.330  1.7583  0.8123 -0.0609
   29DOPE  H15S 3684   6.435   0.411   5.327  0.9877 -2.0670 -1.5513
   29DOPE  C216 3685   6.535   0.502   5.157 -0.2292 -0.1570  0.3484
   29DOPE  H16R 3686   6.568   0.402   5.121 -0.1031  0.1299 -0.3441
   29DOPE  H16S 3687   6.619   0.574   5.148 -0.8696  1.1541  3.5291
   29DOPE  C217 3688   6.415   0.537   5.067 -0.2591 -0.3212 -0.3981
   29DOPE  H17R 3689   6.372   0.634   5.098 -1.2503 -1.2995  1.5390
   29DOPE  H17S 3690   6.331   0.464   5.077  2.1136 -3.1515  0.4019
   29DOPE  C218 3691   6.447   0.542   4.919 -0.0603  0.2716 -0.4431
   29DOPE  H18R 3692   6.503   0.457   4.876 -1.5726 -0.3503 -1.2497
   29DOPE  H18S 3693   6.505   0.633   4.894 -1.3102  0.8322 -1.4114
   29DOPE  H18T 3694   6.355   0.552   4.857 -0.5343  1.5905  0.4123
   29DOPE   C33 3695   7.701   0.669   6.700  0.3198  0.1463 -1.0419
   29DOPE   H3X 3696   7.604   0.616   6.706 -0.7154  2.0697  0.4138
   29DOPE   H3Y 3697   7.756   0.634   6.791  0.3199 -0.8359 -1.4154
   29DOPE   C34 3698   7.783   0.626   6.574  0.7771 -0.3669  0.1572
   29DOPE   H4X 3699   7.812   0.521   6.593 -1.1499 -0.8796  0.5214
   29DOPE   H4Y 3700   7.715   0.637   6.487 -0.5897 -0.0109  1.2216
   29DOPE   C35 3701   7.914   0.703   6.548 -0.6095  0.2003  0.4058
   29DOPE   H5X 3702   7.972   0.701   6.643  0.5675  1.2266 -0.2486
   29DOPE   H5Y 3703   7.896   0.813   6.542  2.7139  1.0960  3.3732
   29DOPE   C36 3704   7.995   0.657   6.425 -0.5162  0.0073  0.1136
   29DOPE   H6X 3705   8.053   0.566   6.452  0.3344  0.1457 -1.1596
   29DOPE   H6Y 3706   8.079   0.730   6.416  0.3819 -0.9059  0.7411
   29DOPE   C37 3707   7.916   0.647   6.294 -0.3126  0.1415  0.3220
   29DOPE   H7X 3708   7.852   0.557   6.299 -1.5568  0.9965  0.1609
   29DOPE   H7Y 3709   7.840   0.728   6.291  0.3839  0.7966 -1.1138
   29DOPE   C38 3710   8.009   0.648   6.167 -0.4626  0.6249  0.1327
   29DOPE   H8X 3711   7.948   0.614   6.081  0.0312 -0.2995  0.1321
   29DOPE   H8Y 3712   8.085   0.566   6.175 -0.7924  0.2918 -0.1187
   29DOPE   C39 3713   8.073   0.779   6.132  0.8445  0.1545  0.0257
   29DOPE   H9X 3714   8.129   0.823   6.216 -0.2396 -0.5691  1.1668
   29DOPE  C310 3715   8.063   0.839   6.012  0.7681 -0.0937  0.8489
   29DOPE  H10X 3716   8.132   0.924   5.998  1.8708 -1.4269 -3.1761
   29DOPE  C311 3717   7.972   0.805   5.890  0.0548  0.2966  0.4221
   29DOPE  H11X 3718   7.906   0.718   5.908  1.9108 -0.5437  4.4353
   29DOPE  H11Y 3719   7.915   0.896   5.863 -0.1498 -0.6536 -2.7512
   29DOPE  C312 3720   8.055   0.766   5.767 -0.5774 -1.2253 -0.2005
   29DOPE  H12X 3721   8.091   0.661   5.771  3.9716 -0.0048 -2.4229
   29DOPE  H12Y 3722   8.140   0.830   5.735 -0.5762 -1.4180 -0.5934
   29DOPE  C313 3723   7.961   0.775   5.643  1.0845  0.4030  0.0910
   29DOPE  H13X 3724   7.875   0.705   5.657  0.3445  0.9373 -1.5200
   29DOPE  H13Y 3725   7.921   0.878   5.636 -0.8971 -0.3033  0.1209
   29DOPE  C314 3726   8.026   0.738   5.516 -0.3517  0.5626  0.1246
   29DOPE  H14X 3727   8.034   0.628   5.512 -1.9630  0.4685 -1.8996
   29DOPE  H14Y 3728   8.127   0.785   5.516  0.6835 -1.5359  1.1810
   29DOPE  C315 3729   7.937   0.785   5.394  0.1651  0.2055  1.1882
   29DOPE  H15X 3730   7.889   0.883   5.416 -0.4332  0.1220  0.3145
   29DOPE  H15Y 3731   7.855   0.713   5.375 -0.6521  0.7856  2.3757
   29DOPE  C316 3732   8.007   0.793   5.258 -0.7729  0.0486  0.4050
   29DOPE  H16X 3733   8.048   0.692   5.238  0.5841  0.6885 -0.2222
   29DOPE  H16Y 3734   8.095   0.862   5.268 -0.6829 -0.3131  2.6961
   29DOPE  C317 3735   7.912   0.842   5.153 -0.0087 -0.1316  0.4592
   29DOPE  H17X 3736   7.849   0.753   5.130  0.7052 -0.1870 -1.4880
   29DOPE  H17Y 3737   7.847   0.926   5.185 -2.3690 -0.9748 -1.7457
   29DOPE  C318 3738   7.981   0.880   5.019  0.2988 -0.3621 -0.4674
   29DOPE  H18X 3739   8.091   0.891   5.032  0.3167 -0.5523 -0.4516
   29DOPE  H18Y 3740   7.964   0.803   4.941 -0.1749  1.1509 -1.9120
   29DOPE  H18Z 3741   7.935   0.976   4.989 -1.8917 -1.0931  0.3314
   30DOPE     N 3742   0.912   7.014   7.137  0.2348  0.5358 -0.0310
   30DOPE   HN1 3743   0.841   6.943   7.164  0.2813  0.4852 -0.0429
   30DOPE   HN2 3744   0.936   6.993   7.038 -1.2190 -1.6321  0.0114
   30DOPE   HN3 3745   0.991   7.011   7.204 -1.5772 -0.3508  2.1661
   30DOPE   C12 3746   0.843   7.155   7.139 -0.4422  0.5703  0.8524
   30DOPE  H12A 3747   0.922   7.233   7.139 -0.0762  0.2222 -0.5086
   30DOPE  H12B 3748   0.779   7.155   7.229 -0.7149 -1.6638  0.7232
   30DOPE   C11 3749   0.751   7.175   7.015 -0.3078 -0.0434 -0.0945
   30DOPE  H11A 3750   0.810   7.161   6.922  2.1288  0.4240  1.2958
   30DOPE  H11B 3751   0.715   7.280   7.015  0.7941  0.4195 -2.5744
   30DOPE     P 3752   0.504   7.094   6.938  0.1617  0.0001  0.0378
   30DOPE   O13 3753   0.503   7.233   6.881  0.0659  0.0864 -0.4009
   30DOPE   O14 3754   0.387   7.058   7.022 -0.2415  0.4821  0.0703
   30DOPE   O11 3755   0.501   6.990   6.820 -0.1637  0.7718 -0.1691
   30DOPE   O12 3756   0.641   7.080   7.016  0.0174 -0.2442  0.0851
   30DOPE    C1 3757   0.608   6.892   6.821 -0.7629 -0.0679  0.2515
   30DOPE    HA 3758   0.593   6.814   6.899  0.5398  1.6400  2.3357
   30DOPE    HB 3759   0.704   6.944   6.843 -1.5884  0.5619  2.7061
   30DOPE    C2 3760   0.618   6.816   6.679  0.4980  0.2286 -0.0094
   30DOPE    HS 3761   0.719   6.768   6.679 -0.2355 -1.4050  0.8440
   30DOPE   O21 3762   0.605   6.904   6.570 -0.2054  0.0920  0.3083
   30DOPE   C21 3763   0.693   7.006   6.560 -0.0095  0.1834 -0.1065
   30DOPE   O22 3764   0.793   7.021   6.627 -0.1214 -0.1789  0.2375
   30DOPE   C22 3765   0.648   7.102   6.446  0.3846  0.1867  0.7803
   30DOPE   H2R 3766   0.704   7.198   6.450 -0.6949  0.8085  1.9587
   30DOPE   H2S 3767   0.539   7.120   6.459  0.1829  0.1900 -0.7562
   30DOPE    C3 3768   0.500   6.707   6.666  0.1133 -0.1532 -0.8998
   30DOPE    HX 3769   0.407   6.767   6.657 -0.0046  0.0209  1.0480
   30DOPE    HY 3770   0.507   6.642   6.756  2.9890  1.2688  0.0159
   30DOPE   O31 3771   0.529   6.624   6.555  0.2098 -0.1204 -0.1315
   30DOPE   C31 3772   0.418   6.575   6.493  1.1746  0.2219 -0.3395
   30DOPE   O32 3773   0.303   6.599   6.522  0.4043 -0.0556 -0.7877
   30DOPE   C32 3774   0.465   6.490   6.379  0.1571 -0.1805 -0.1068
   30DOPE   H2X 3775   0.385   6.487   6.302  0.8072  1.3335 -0.8964
   30DOPE   H2Y 3776   0.551   6.538   6.327 -0.1212 -1.7419 -2.1331
   30DOPE   C23 3777   0.664   7.025   6.314  0.5964  0.1276 -0.2742
   30DOPE   H3R 3778   0.612   7.074   6.230 -1.4867 -3.4487 -1.2616
   30DOPE   H3S 3779   0.610   6.928   6.310 -0.5836  0.7970 -1.0715
   30DOPE   C24 3780   0.808   7.003   6.274  0.6521 -0.2707  0.4095
   30DOPE   H4R 3781   0.861   6.974   6.367  1.4423  1.1917  0.4515
   30DOPE   H4S 3782   0.853   7.100   6.241 -1.8609  0.9635  0.3511
   30DOPE   C25 3783   0.816   6.898   6.159  0.0499 -0.1959  0.3269
   30DOPE   H5R 3784   0.750   6.809   6.171 -0.5688 -0.0317 -1.5499
   30DOPE   H5S 3785   0.919   6.859   6.158  1.3576  2.8904 -1.7947
   30DOPE   C26 3786   0.810   6.967   6.022  0.0972  0.1261 -0.5628
   30DOPE   H6R 3787   0.874   7.057   6.034  0.3997 -0.3355  2.0071
   30DOPE   H6S 3788   0.705   7.004   6.020  0.0724  0.0482 -0.7199
   30DOPE   C27 3789   0.846   6.885   5.902  0.3019 -0.4502  0.4222
   30DOPE   H7R 3790   0.790   6.789   5.899 -0.1457 -0.1714 -0.2882
   30DOPE   H7S 3791   0.955   6.863   5.902 -0.0723 -2.6086 -1.1135
   30DOPE   C28 3792   0.826   6.961   5.770  0.4879 -0.5210  0.1160
   30DOPE   H8R 3793   0.901   6.922   5.698  0.1343  3.0382 -2.4329
   30DOPE   H8S 3794   0.859   7.067   5.782  1.3648 -0.8616  0.8912
   30DOPE   C29 3795   0.686   6.953   5.720  0.2878  0.4166  0.1870
   30DOPE   H9R 3796   0.611   6.972   5.798 -0.3909  0.1684 -0.3926
   30DOPE  C210 3797   0.647   6.925   5.598  0.4823 -0.7607  0.0882
   30DOPE  H10R 3798   0.540   6.916   5.577  0.1235  0.5407  1.2552
   30DOPE  C211 3799   0.733   6.890   5.481  0.3845 -0.7656 -0.1464
   30DOPE  H11R 3800   0.691   6.799   5.433 -1.4151  0.2316 -0.5777
   30DOPE  H11S 3801   0.829   6.855   5.524  0.3526 -1.0868 -0.3394
   30DOPE  C212 3802   0.748   7.003   5.380 -0.9182  0.5306  0.9810
   30DOPE  H12R 3803   0.818   6.971   5.300 -1.1950  1.5729  0.3063
   30DOPE  H12S 3804   0.800   7.086   5.433 -1.3069 -1.4508  4.8510
   30DOPE  C213 3805   0.618   7.058   5.322 -0.0872 -0.2452 -0.0712
   30DOPE  H13R 3806   0.649   7.140   5.253  1.1950 -0.4664  0.2120
   30DOPE  H13S 3807   0.556   7.104   5.401  0.9240 -0.0991  0.6484
   30DOPE  C214 3808   0.553   6.946   5.242  0.0710 -0.2979  0.1135
   30DOPE  H14R 3809   0.445   6.971   5.228 -0.1187 -1.3190 -0.2836
   30DOPE  H14S 3810   0.560   6.845   5.288 -1.0187 -1.1292 -1.4674
   30DOPE  C215 3811   0.610   6.940   5.097  0.0500 -0.4247  0.9111
   30DOPE  H15R 3812   0.710   6.892   5.096 -0.6645 -1.9710 -0.5495
   30DOPE  H15S 3813   0.625   7.045   5.063 -0.3583  0.1855  2.5292
   30DOPE  C216 3814   0.536   6.859   4.988  0.5325  0.2529  0.3896
   30DOPE  H16R 3815   0.609   6.859   4.904  1.7984  0.8825  1.4450
   30DOPE  H16S 3816   0.445   6.921   4.973 -1.2277 -2.1914  0.4331
   30DOPE  C217 3817   0.499   6.719   5.037 -0.2319 -0.0541  0.7636
   30DOPE  H17R 3818   0.419   6.753   5.106 -0.4929 -0.7307  0.8037
   30DOPE  H17S 3819   0.586   6.680   5.094  0.4281  1.1259  0.5829
   30DOPE  C218 3820   0.434   6.615   4.942 -0.7080 -0.2935  0.0577
   30DOPE  H18R 3821   0.505   6.585   4.862  0.3751  2.2589 -0.0258
   30DOPE  H18S 3822   0.334   6.655   4.913 -1.2690 -1.4675  0.2981
   30DOPE  H18T 3823   0.398   6.523   4.994 -0.4985 -1.7548 -2.2560
   30DOPE   C33 3824   0.514   6.357   6.435  0.2693  0.2100  0.8229
   30DOPE   H3X 3825   0.429   6.307   6.486 -1.6260  0.8433 -1.5052
   30DOPE   H3Y 3826   0.591   6.376   6.513 -1.4030  1.2849  2.2905
   30DOPE   C34 3827   0.562   6.275   6.317  0.9446  0.3735  0.0946
   30DOPE   H4X 3828   0.612   6.329   6.234 -1.5861  1.7556 -0.6454
   30DOPE   H4Y 3829   0.629   6.196   6.358 -0.2455 -0.8300 -0.1858
   30DOPE   C35 3830   0.431   6.198   6.260  0.2403 -0.1077  0.0536
   30DOPE   H5X 3831   0.375   6.282   6.214 -0.6652  0.0295  1.3609
   30DOPE   H5Y 3832   0.377   6.149   6.344  1.0450 -1.2505 -0.0626
   30DOPE   C36 3833   0.465   6.098   6.148  0.5078 -0.2483  0.0007
   30DOPE   H6X 3834   0.539   6.028   6.190  3.6828  1.7676 -1.7578
   30DOPE   H6Y 3835   0.502   6.154   6.059 -1.2395 -0.3050 -0.8032
   30DOPE   C37 3836   0.343   6.007   6.110 -0.2572 -0.7063 -0.1026
   30DOPE   H7X 3837   0.382   5.950   6.023 -0.9190 -1.8066  0.2937
   30DOPE   H7Y 3838   0.308   5.938   6.190 -0.7381  0.9136  1.1230
   30DOPE   C38 3839   0.228   6.095   6.066 -0.5568 -0.3449 -0.5800
   30DOPE   H8X 3840   0.268   6.179   6.005 -0.5471  0.1062  0.0358
   30DOPE   H8Y 3841   0.189   6.142   6.159  0.8779  0.2820 -0.2701
   30DOPE   C39 3842   0.122   6.012   6.000 -0.0706  0.1492 -0.0616
   30DOPE   H9X 3843   0.074   5.934   6.060  2.8132 -2.4208 -0.8543
   30DOPE  C310 3844   0.081   6.010   5.864 -0.5713  0.3088  0.3529
   30DOPE  H10X 3845  -0.017   5.965   5.843 -1.9809  2.9186  0.8755
   30DOPE  C311 3846   0.146   6.082   5.754 -0.2947 -1.2617  0.2065
   30DOPE  H11X 3847   0.252   6.099   5.783 -0.7768  1.4380  0.6973
   30DOPE  H11Y 3848   0.149   6.027   5.657  2.0484  0.4475 -0.7998
   30DOPE  C312 3849   0.077   6.222   5.736  0.0188  0.6032  0.6911
   30DOPE  H12X 3850   0.132   6.274   5.654  0.6983 -2.0358 -0.6570
   30DOPE  H12Y 3851   0.104   6.267   5.834  1.6365  0.8959  0.1444
   30DOPE  C313 3852  -0.070   6.222   5.694  0.1446 -1.0731  0.0543
   30DOPE  H13X 3853  -0.121   6.175   5.781  0.7827  0.4006  1.2535
   30DOPE  H13Y 3854  -0.112   6.324   5.682 -1.2575 -1.6037  0.2532
   30DOPE  C314 3855  -0.102   6.139   5.561 -0.3532 -0.2286 -0.4179
   30DOPE  H14X 3856  -0.208   6.146   5.528 -0.1788  0.7638 -0.8074
   30DOPE  H14Y 3857  -0.089   6.036   5.598 -1.6411 -0.3888 -0.3752
   30DOPE  C315 3858  -0.022   6.164   5.433 -0.7258 -0.2541 -0.0784
   30DOPE  H15X 3859   0.082   6.131   5.453 -0.8624 -1.8968 -1.8452
   30DOPE  H15Y 3860  -0.037   6.267   5.394 -0.8234  0.6872  2.2903
   30DOPE  C316 3861  -0.062   6.072   5.314  0.8192  0.0359 -0.3070
   30DOPE  H16X 3862  -0.172   6.084   5.301  0.7290  1.9707  1.6396
   30DOPE  H16Y 3863  -0.048   5.966   5.344 -0.9354 -0.2196 -0.2735
   30DOPE  C317 3864   0.011   6.098   5.184 -0.5648  1.0619 -0.7135
   30DOPE  H17X 3865   0.112   6.056   5.204 -0.8324  0.8628  0.2804
   30DOPE  H17Y 3866  -0.031   6.028   5.108  1.6874 -0.6390 -0.4710
   30DOPE  C318 3867  -0.005   6.235   5.123 -0.2789  0.5180  0.1562
   30DOPE  H18X 3868   0.043   6.312   5.189 -0.8018  0.8417  0.1641
   30DOPE  H18Y 3869   0.033   6.243   5.019  2.5185  0.0045  1.0288
   30DOPE  H18Z 3870  -0.113   6.258   5.114  0.1106  1.9278 -1.3136
   31DOPE     N 3871   1.972   4.318   3.117  0.7216  0.0848 -0.7215
   31DOPE   HN1 3872   1.872   4.290   3.106  0.7399  0.3157 -1.5515
   31DOPE   HN2 3873   2.009   4.309   3.214  1.3486 -0.9571 -1.0419
   31DOPE   HN3 3874   1.981   4.418   3.090 -0.8609  0.6042  0.5050
   31DOPE   C12 3875   2.047   4.224   3.031 -0.0017 -0.4458 -0.0233
   31DOPE  H12A 3876   2.020   4.120   3.060  1.2401 -0.4173  1.3400
   31DOPE  H12B 3877   2.154   4.238   3.057  0.1228  2.1740 -1.6528
   31DOPE   C11 3878   2.020   4.260   2.885 -0.1025 -0.5359 -0.0761
   31DOPE  H11A 3879   2.065   4.361   2.874  0.7583 -0.6273  2.0743
   31DOPE  H11B 3880   1.911   4.279   2.873  0.1285 -0.0287 -1.6698
   31DOPE     P 3881   1.979   4.030   2.765 -0.1965  0.2830 -0.3671
   31DOPE   O13 3882   2.070   3.929   2.707  0.2168 -0.0353  0.8622
   31DOPE   O14 3883   1.872   4.076   2.677 -0.1383 -0.2469 -0.4723
   31DOPE   O11 3884   1.931   3.974   2.902 -0.1812  0.0294 -0.1135
   31DOPE   O12 3885   2.074   4.153   2.808  0.3287  0.4854  0.0253
   31DOPE    C1 3886   1.806   3.903   2.909 -0.0165 -0.5193  0.7329
   31DOPE    HA 3887   1.817   3.792   2.911 -0.1944 -0.6098 -1.1287
   31DOPE    HB 3888   1.747   3.911   2.815  1.0983  1.6309  0.1466
   31DOPE    C2 3889   1.710   3.938   3.024  0.0366  0.3638  0.4142
   31DOPE    HS 3890   1.710   4.049   3.027  0.7174  0.5826 -3.1503
   31DOPE   O21 3891   1.749   3.873   3.147 -0.1043  0.0305  0.1069
   31DOPE   C21 3892   1.827   3.943   3.228 -0.8820  0.5414  0.6327
   31DOPE   O22 3893   1.844   4.064   3.226 -0.2308  0.0580  0.2405
   31DOPE   C22 3894   1.898   3.845   3.331 -0.8359 -0.4114  0.1848
   31DOPE   H2R 3895   1.988   3.803   3.281 -1.7543 -0.1868 -1.7550
   31DOPE   H2S 3896   1.832   3.756   3.339 -1.6085 -0.0909 -2.0048
   31DOPE    C3 3897   1.557   3.893   2.999 -0.5439 -0.0376  1.0590
   31DOPE    HX 3898   1.558   3.782   2.988 -2.0003 -0.0409  0.8111
   31DOPE    HY 3899   1.521   3.925   2.899  1.5296  0.7166  0.5168
   31DOPE   O31 3900   1.463   3.922   3.107 -0.0726  0.6631 -0.1644
   31DOPE   C31 3901   1.429   4.054   3.119  0.9038  0.5019 -0.0576
   31DOPE   O32 3902   1.474   4.150   3.062 -0.3100 -0.6761 -0.4019
   31DOPE   C32 3903   1.328   4.072   3.236 -0.8647 -0.2725  0.0178
   31DOPE   H2X 3904   1.223   4.070   3.201 -0.9212 -0.4431  0.1960
   31DOPE   H2Y 3905   1.328   3.982   3.301 -1.1134  0.0046  0.4073
   31DOPE   C23 3906   1.929   3.916   3.459 -0.1451 -0.1531  0.0493
   31DOPE   H3R 3907   1.831   3.963   3.484 -0.4904 -1.1008  0.5113
   31DOPE   H3S 3908   2.005   3.997   3.454 -2.5247  2.2190 -0.3157
   31DOPE   C24 3909   1.975   3.835   3.582  0.3463 -0.2584  0.2369
   31DOPE   H4R 3910   2.082   3.805   3.582  0.1839 -0.8981 -0.9570
   31DOPE   H4S 3911   1.918   3.740   3.579 -0.9654  0.4754 -4.2246
   31DOPE   C25 3912   1.936   3.908   3.709  0.7076  0.0597 -0.1576
   31DOPE   H5R 3913   1.825   3.897   3.717  0.4881  1.8925 -0.3015
   31DOPE   H5S 3914   1.957   4.017   3.709  0.3127  0.1638 -1.8345
   31DOPE   C26 3915   1.991   3.831   3.833 -0.2483  0.1252  0.7963
   31DOPE   H6R 3916   2.101   3.840   3.817 -0.1289 -0.7716  1.0695
   31DOPE   H6S 3917   1.969   3.724   3.818  1.0833  0.1508 -2.0753
   31DOPE   C27 3918   1.945   3.884   3.971  0.4289 -0.4488  0.3580
   31DOPE   H7R 3919   2.004   3.833   4.050  0.4501 -2.8222 -1.0677
   31DOPE   H7S 3920   1.839   3.855   3.988  0.1864  0.8362  1.1274
   31DOPE   C28 3921   1.959   4.037   3.992 -0.2462 -0.2014  0.3472
   31DOPE   H8R 3922   1.919   4.067   4.091 -0.4189  0.6443  0.0308
   31DOPE   H8S 3923   1.898   4.077   3.909  0.3555  0.8645  0.3969
   31DOPE   C29 3924   2.103   4.084   3.982 -0.4958 -0.5158 -0.6892
   31DOPE   H9R 3925   2.140   4.087   3.879 -2.2017  0.9529 -1.3198
   31DOPE  C210 3926   2.185   4.140   4.076 -0.3536  0.1231  0.8121
   31DOPE  H10R 3927   2.285   4.171   4.045 -0.4712 -1.5378 -1.4861
   31DOPE  C211 3928   2.166   4.170   4.225  0.8139  1.0548 -0.4528
   31DOPE  H11R 3929   2.264   4.141   4.268  0.9835  0.6619 -1.0993
   31DOPE  H11S 3930   2.086   4.107   4.269  0.2638  1.5853 -0.6649
   31DOPE  C212 3931   2.140   4.317   4.243 -0.6602  0.3567 -0.0638
   31DOPE  H12R 3932   2.048   4.351   4.190 -0.4765  1.9991  0.6379
   31DOPE  H12S 3933   2.234   4.369   4.216  0.3669 -0.6246  1.4739
   31DOPE  C213 3934   2.121   4.368   4.386 -0.5508 -0.1298 -0.3448
   31DOPE  H13R 3935   2.141   4.477   4.388  0.9645 -0.3960  0.8221
   31DOPE  H13S 3936   2.201   4.323   4.449 -0.3197  1.5296  0.5972
   31DOPE  C214 3937   1.991   4.335   4.447  0.1220  0.0351  0.3060
   31DOPE  H14R 3938   1.992   4.224   4.440 -0.0357 -0.0547  1.5363
   31DOPE  H14S 3939   1.914   4.370   4.375  2.1092  0.3731 -1.7861
   31DOPE  C215 3940   1.973   4.382   4.589  0.0363  0.3265 -0.1247
   31DOPE  H15R 3941   1.967   4.492   4.573 -1.2994 -0.0440 -2.7011
   31DOPE  H15S 3942   2.064   4.368   4.651 -0.6864 -2.7493  0.4043
   31DOPE  C216 3943   1.844   4.339   4.657  0.2889 -0.2695  0.3202
   31DOPE  H16R 3944   1.853   4.230   4.681  1.5649 -0.2831 -0.1165
   31DOPE  H16S 3945   1.762   4.355   4.583  1.6512  0.6927 -1.0394
   31DOPE  C217 3946   1.825   4.414   4.787  0.3678 -0.2257 -0.1432
   31DOPE  H17R 3947   1.788   4.518   4.776  0.1633 -0.2329  0.4470
   31DOPE  H17S 3948   1.924   4.408   4.836  0.7158  0.5463 -0.7251
   31DOPE  C218 3949   1.720   4.341   4.871  0.0894 -0.3237 -0.5279
   31DOPE  H18R 3950   1.623   4.332   4.818 -1.7732  2.8411  1.9498
   31DOPE  H18S 3951   1.695   4.389   4.968 -0.7202  0.6749 -1.2068
   31DOPE  H18T 3952   1.752   4.236   4.882 -2.3350 -0.9831  0.9853
   31DOPE   C33 3953   1.365   4.195   3.320 -0.6806 -0.4350  0.0614
   31DOPE   H3X 3954   1.287   4.222   3.394  1.5688  3.9054  1.1889
   31DOPE   H3Y 3955   1.362   4.290   3.262 -1.3733 -0.7715 -0.4756
   31DOPE   C34 3956   1.502   4.190   3.393 -0.2971  0.5250  0.1394
   31DOPE   H4X 3957   1.527   4.090   3.435  3.8711  1.2778 -0.1938
   31DOPE   H4Y 3958   1.585   4.209   3.322  2.4831 -0.9660  2.7704
   31DOPE   C35 3959   1.506   4.298   3.511 -0.0750  0.2198  0.3371
   31DOPE   H5X 3960   1.429   4.258   3.580  0.5807 -0.8347  0.4749
   31DOPE   H5Y 3961   1.454   4.387   3.469 -0.3002  0.7193  1.6334
   31DOPE   C36 3962   1.639   4.320   3.567  0.1609 -0.0406 -1.1294
   31DOPE   H6X 3963   1.622   4.422   3.606  0.9420 -1.4521  3.6460
   31DOPE   H6Y 3964   1.720   4.323   3.492  0.8398  0.4009 -0.3932
   31DOPE   C37 3965   1.678   4.215   3.681 -0.7880 -0.4703  0.1426
   31DOPE   H7X 3966   1.703   4.116   3.636  1.5994 -0.4650  1.2576
   31DOPE   H7Y 3967   1.777   4.243   3.723 -0.7872 -1.9957  1.2771
   31DOPE   C38 3968   1.579   4.195   3.794  0.3885 -0.0387 -0.4866
   31DOPE   H8X 3969   1.625   4.120   3.862 -1.4862 -0.1417  0.7462
   31DOPE   H8Y 3970   1.486   4.161   3.744  0.2457  1.6742 -1.4565
   31DOPE   C39 3971   1.543   4.323   3.866 -0.1191 -0.3789 -0.4819
   31DOPE   H9X 3972   1.509   4.402   3.798 -2.0059  0.7393  1.6490
   31DOPE  C310 3973   1.568   4.353   3.998  0.2432 -0.2890  0.2691
   31DOPE  H10X 3974   1.521   4.444   4.037 -2.1469 -0.4683 -1.9655
   31DOPE  C311 3975   1.638   4.255   4.091  0.6000 -0.3361  0.3719
   31DOPE  H11X 3976   1.728   4.225   4.033 -1.8836  0.0125 -4.1257
   31DOPE  H11Y 3977   1.678   4.308   4.181  0.4286 -0.7511  0.6990
   31DOPE  C312 3978   1.565   4.129   4.149  0.4554  0.1198  0.3501
   31DOPE  H12X 3979   1.489   4.086   4.080  0.3209  1.4457 -0.3641
   31DOPE  H12Y 3980   1.505   4.173   4.231  3.5946 -1.4375  3.7688
   31DOPE  C313 3981   1.649   4.024   4.209  0.4628  0.8166  0.2732
   31DOPE  H13X 3982   1.587   3.932   4.218 -0.9070  1.5838 -0.8470
   31DOPE  H13Y 3983   1.738   3.991   4.152 -1.2601 -0.8100 -1.6721
   31DOPE  C314 3984   1.709   4.048   4.351  0.3490  0.4088  0.2275
   31DOPE  H14X 3985   1.630   4.095   4.413  0.9858  1.0979  0.5298
   31DOPE  H14Y 3986   1.798   4.114   4.353  2.0171 -1.6743 -1.0918
   31DOPE  C315 3987   1.751   3.921   4.430 -0.3274 -0.0427 -0.4971
   31DOPE  H15X 3988   1.852   3.888   4.398  0.2285  0.9141  0.2159
   31DOPE  H15Y 3989   1.686   3.831   4.420  1.7649 -1.9869  1.8296
   31DOPE  C316 3990   1.747   3.938   4.585 -0.2360  0.1484 -0.1264
   31DOPE  H16X 3991   1.791   4.037   4.608  0.6645 -0.4975  1.0586
   31DOPE  H16Y 3992   1.804   3.848   4.619  0.3262 -0.5005 -2.6310
   31DOPE  C317 3993   1.602   3.933   4.644  0.8470  0.1703  0.0792
   31DOPE  H17X 3994   1.561   4.029   4.605 -0.8124 -0.7996 -0.6549
   31DOPE  H17Y 3995   1.552   3.846   4.596 -1.7858  1.7811 -0.2918
   31DOPE  C318 3996   1.585   3.935   4.797 -0.6897  0.2429  0.1934
   31DOPE  H18X 3997   1.623   4.023   4.853  0.5496 -0.7005  0.8758
   31DOPE  H18Y 3998   1.479   3.928   4.828 -0.2759 -2.3106  1.2363
   31DOPE  H18Z 3999   1.642   3.848   4.834 -1.2257 -0.1847  0.0192
   32DOPE     N 4000   5.343   3.986   2.685 -0.1247 -0.3995 -0.2102
   32DOPE   HN1 4001   5.255   3.931   2.677 -0.0709 -0.6898  1.0847
   32DOPE   HN2 4002   5.333   4.084   2.652 -0.0895 -0.0183  0.8754
   32DOPE   HN3 4003   5.411   3.940   2.621  0.0277  0.7136 -0.8852
   32DOPE   C12 4004   5.391   4.002   2.819 -0.0375  0.1718 -0.2668
   32DOPE  H12A 4005   5.399   3.907   2.877 -2.7064  0.1237  0.1803
   32DOPE  H12B 4006   5.317   4.066   2.871 -1.0403 -1.8226  0.9253
   32DOPE   C11 4007   5.533   4.070   2.826  0.0554 -0.2703  0.5343
   32DOPE  H11A 4008   5.558   4.084   2.934  0.9771  2.9345  0.0149
   32DOPE  H11B 4009   5.522   4.178   2.800 -2.0596  0.4113  3.6159
   32DOPE     P 4010   5.745   3.925   2.793 -0.0106 -0.0518  0.1320
   32DOPE   O13 4011   5.852   4.019   2.822 -0.1099 -0.1952 -0.0724
   32DOPE   O14 4012   5.776   3.813   2.698  0.6418  0.2723 -0.3768
   32DOPE   O11 4013   5.686   3.867   2.926  0.0107  0.3965  0.1848
   32DOPE   O12 4014   5.632   4.010   2.740 -0.4720 -0.0889  0.0218
   32DOPE    C1 4015   5.770   3.858   3.036 -0.2451  0.8551  0.4777
   32DOPE    HA 4016   5.819   3.955   3.058  1.3310  0.6724 -1.8353
   32DOPE    HB 4017   5.862   3.796   3.027  0.5653  2.0506  0.3820
   32DOPE    C2 4018   5.691   3.805   3.160  0.5772 -0.5771  0.0965
   32DOPE    HS 4019   5.619   3.885   3.188  4.1717  2.2603  2.0335
   32DOPE   O21 4020   5.772   3.790   3.274  0.1470 -0.0628  0.3492
   32DOPE   C21 4021   5.816   3.893   3.348 -0.7516 -0.2989  0.5020
   32DOPE   O22 4022   5.781   4.007   3.332 -0.1766 -0.1233  0.9488
   32DOPE   C22 4023   5.915   3.835   3.457  0.0765  0.1177 -0.3461
   32DOPE   H2R 4024   6.003   3.804   3.398  0.5519  0.1491  0.3340
   32DOPE   H2S 4025   5.871   3.748   3.510  0.3783 -0.0347 -0.3425
   32DOPE    C3 4026   5.618   3.668   3.124 -0.6714  0.0808 -0.1983
   32DOPE    HX 4027   5.702   3.597   3.114 -0.4781 -0.3321  3.3285
   32DOPE    HY 4028   5.574   3.682   3.022 -1.9561  1.2876  0.4839
   32DOPE   O31 4029   5.528   3.623   3.223 -0.3307  0.1654 -0.2559
   32DOPE   C31 4030   5.408   3.674   3.220 -0.1166 -0.1289  1.4819
   32DOPE   O32 4031   5.369   3.755   3.132  0.6941  0.2254  0.3531
   32DOPE   C32 4032   5.332   3.626   3.342  0.6313 -1.0820 -0.1197
   32DOPE   H2X 4033   5.246   3.576   3.292 -0.3665  0.7939 -0.4163
   32DOPE   H2Y 4034   5.403   3.559   3.393  2.0447 -1.2136 -2.1362
   32DOPE   C23 4035   5.969   3.942   3.559 -0.3311  0.7033  0.2131
   32DOPE   H3R 4036   5.893   3.996   3.620 -0.0192 -0.0666  1.3228
   32DOPE   H3S 4037   6.014   4.023   3.497  0.5013  1.0146  1.1899
   32DOPE   C24 4038   6.065   3.876   3.661  0.4652  0.4246 -0.2125
   32DOPE   H4R 4039   6.139   3.816   3.602 -0.4241 -1.8253  0.8260
   32DOPE   H4S 4040   6.020   3.813   3.741  0.0520  0.5856 -0.3171
   32DOPE   C25 4041   6.134   3.987   3.742  0.1748 -0.9036  0.6722
   32DOPE   H5R 4042   6.195   4.037   3.665  0.1597  1.3097  2.0248
   32DOPE   H5S 4043   6.199   3.939   3.818 -0.7642  1.3360  3.0171
   32DOPE   C26 4044   6.041   4.086   3.825 -0.5702  0.2790 -0.1787
   32DOPE   H6R 4045   5.974   4.022   3.886  0.0560 -1.9488 -1.6849
   32DOPE   H6S 4046   5.980   4.147   3.756 -0.9257 -0.2711 -0.3532
   32DOPE   C27 4047   6.134   4.166   3.921 -0.1586 -0.5032  0.2760
   32DOPE   H7R 4048   6.219   4.213   3.866  0.1672 -1.8788 -0.4420
   32DOPE   H7S 4049   6.198   4.106   3.989  0.9028  1.4388  1.0778
   32DOPE   C28 4050   6.061   4.283   3.995 -0.7946  0.0300  0.4748
   32DOPE   H8R 4051   6.003   4.338   3.919 -0.3079 -1.5236 -1.0836
   32DOPE   H8S 4052   6.142   4.354   4.024  0.2265 -0.3143 -1.3847
   32DOPE   C29 4053   5.969   4.236   4.100 -0.1256 -0.1247  0.4529
   32DOPE   H9R 4054   5.907   4.150   4.069 -2.8260  1.9514 -0.2808
   32DOPE  C210 4055   5.975   4.274   4.232  0.2648 -0.2596 -0.3368
   32DOPE  H10R 4056   5.893   4.236   4.294  1.1737 -0.5520  0.7091
   32DOPE  C211 4057   6.055   4.390   4.286  1.3128 -0.4090 -0.1234
   32DOPE  H11R 4058   6.115   4.447   4.212  1.2194  0.6771  0.6241
   32DOPE  H11S 4059   6.129   4.352   4.359 -0.0076 -2.0801  0.4214
   32DOPE  C212 4060   5.962   4.486   4.356  0.1057  0.7448  0.0872
   32DOPE  H12R 4061   5.883   4.515   4.283  2.7573  3.3427 -2.0437
   32DOPE  H12S 4062   6.014   4.584   4.369  2.2058 -0.2635 -0.1538
   32DOPE  C213 4063   5.904   4.429   4.488  0.1302 -0.5089 -0.0071
   32DOPE  H13R 4064   5.977   4.431   4.571  0.8124 -0.5582 -0.6029
   32DOPE  H13S 4065   5.873   4.322   4.476 -3.5336  0.2774  0.9784
   32DOPE  C214 4066   5.787   4.514   4.546 -0.5808 -0.3415  0.5331
   32DOPE  H14R 4067   5.802   4.621   4.522  0.9706 -1.1867 -3.0347
   32DOPE  H14S 4068   5.788   4.505   4.656 -0.8271  2.7701  0.8630
   32DOPE  C215 4069   5.652   4.483   4.491  0.3175  0.1508  0.2114
   32DOPE  H15R 4070   5.615   4.393   4.545  0.9038  1.4077  2.8453
   32DOPE  H15S 4071   5.668   4.458   4.384 -0.7177  0.7132 -0.0892
   32DOPE  C216 4072   5.553   4.604   4.494 -0.8457  0.1983 -0.4895
   32DOPE  H16R 4073   5.604   4.691   4.448 -1.4681  0.7942 -0.0744
   32DOPE  H16S 4074   5.526   4.623   4.600 -1.4627 -0.8883 -0.4351
   32DOPE  C217 4075   5.424   4.558   4.426 -0.0298 -0.4248  0.8811
   32DOPE  H17R 4076   5.402   4.454   4.458  0.9832 -1.5052 -1.6690
   32DOPE  H17S 4077   5.441   4.552   4.316 -0.1005  1.3937  0.7371
   32DOPE  C218 4078   5.301   4.651   4.453  0.1858  0.4420 -0.6430
   32DOPE  H18R 4079   5.216   4.600   4.404  0.2000  0.0698 -0.2952
   32DOPE  H18S 4080   5.313   4.753   4.413  0.9863 -0.0932 -1.8150
   32DOPE  H18T 4081   5.277   4.665   4.561  0.3290  0.7497 -0.6506
   32DOPE   C33 4082   5.268   3.739   3.426 -0.7043 -0.9312  0.2110
   32DOPE   H3X 4083   5.225   3.694   3.519  0.8341 -0.6604  1.0852
   32DOPE   H3Y 4084   5.188   3.783   3.363 -0.7890 -0.9517  0.3037
   32DOPE   C34 4085   5.372   3.848   3.476 -0.1417 -0.1601 -0.0146
   32DOPE   H4X 4086   5.420   3.900   3.390  2.0058 -2.2688 -0.2146
   32DOPE   H4Y 4087   5.315   3.915   3.543  0.0757 -0.7248  0.7545
   32DOPE   C35 4088   5.489   3.795   3.560 -0.6520 -0.0978 -0.0555
   32DOPE   H5X 4089   5.554   3.730   3.498  0.3989  2.5317 -1.8968
   32DOPE   H5Y 4090   5.443   3.740   3.645  0.0938 -0.0567  0.3832
   32DOPE   C36 4091   5.571   3.906   3.621 -0.5138  0.3415 -0.0128
   32DOPE   H6X 4092   5.584   3.986   3.545  1.1441 -1.1925 -1.4546
   32DOPE   H6Y 4093   5.672   3.872   3.654 -1.7891 -1.2226  2.5319
   32DOPE   C37 4094   5.514   3.966   3.754  0.2713  0.1715  0.0425
   32DOPE   H7X 4095   5.410   4.005   3.749 -0.5918 -1.4970  2.7930
   32DOPE   H7Y 4096   5.510   3.878   3.822  2.2569 -2.0530 -2.4500
   32DOPE   C38 4097   5.609   4.073   3.823  0.4606  0.3517  0.0254
   32DOPE   H8X 4098   5.634   4.161   3.761 -0.6358  0.9502  0.4072
   32DOPE   H8Y 4099   5.698   4.022   3.867 -0.5622  0.4008  2.2369
   32DOPE   C39 4100   5.537   4.132   3.945 -0.1452 -0.3582  0.5540
   32DOPE   H9X 4101   5.479   4.222   3.921 -0.9793 -1.6085 -2.6433
   32DOPE  C310 4102   5.538   4.081   4.070 -1.1183 -0.4181  0.4598
   32DOPE  H10X 4103   5.485   4.132   4.152  0.5338 -0.5640  1.6594
   32DOPE  C311 4104   5.624   3.962   4.120  0.1118  0.1866  0.3361
   32DOPE  H11X 4105   5.551   3.878   4.119 -1.2329  1.2129 -3.4475
   32DOPE  H11Y 4106   5.704   3.926   4.053 -2.4338 -2.4628 -1.5370
   32DOPE  C312 4107   5.669   3.976   4.272  0.3187  0.8427 -0.3761
   32DOPE  H12X 4108   5.687   4.085   4.287 -2.4838  1.3769 -0.3743
   32DOPE  H12Y 4109   5.757   3.909   4.275 -0.0256  0.3777 -0.5916
   32DOPE  C313 4110   5.567   3.939   4.386 -0.0606 -0.7440 -0.2612
   32DOPE  H13X 4111   5.463   3.979   4.385 -0.0873 -0.7430  0.7295
   32DOPE  H13Y 4112   5.557   3.829   4.394 -0.0159 -0.8552 -1.6169
   32DOPE  C314 4113   5.630   3.982   4.517 -0.2191 -0.2400  0.5091
   32DOPE  H14X 4114   5.628   4.093   4.514 -3.2069 -0.2178 -0.9412
   32DOPE  H14Y 4115   5.734   3.944   4.527  0.1588 -0.0402 -1.9663
   32DOPE  C315 4116   5.543   3.925   4.635  0.0265  0.4030  0.0031
   32DOPE  H15X 4117   5.545   3.814   4.649 -2.8807  0.4120  1.1287
   32DOPE  H15Y 4118   5.441   3.952   4.602  0.2714  0.4648 -0.7126
   32DOPE  C316 4119   5.562   3.992   4.775 -0.0594  0.1995  0.4427
   32DOPE  H16X 4120   5.473   3.964   4.836  1.0928  1.1258  2.6519
   32DOPE  H16Y 4121   5.566   4.102   4.763  0.4018 -0.0288 -1.9101
   32DOPE  C317 4122   5.697   3.951   4.834 -0.2614 -0.0485  0.0718
   32DOPE  H17X 4123   5.716   3.843   4.814  0.5969  0.0969  0.0456
   32DOPE  H17Y 4124   5.775   4.018   4.792 -0.9597  1.8553  1.6213
   32DOPE  C318 4125   5.691   3.975   4.982  0.3530  0.0570  0.0522
   32DOPE  H18X 4126   5.712   4.083   5.000  0.6200 -0.1108  0.7656
   32DOPE  H18Y 4127   5.592   3.941   5.020 -0.1896  2.1551  0.6730
   32DOPE  H18Z 4128   5.774   3.921   5.032  0.5805  0.4489  0.1011
   33DOPE     N 4129   2.726   2.376   2.687 -0.0900  0.1552  0.1973
   33DOPE   HN1 4130   2.776   2.467   2.688  0.6221 -0.0728 -2.9989
   33DOPE   HN2 4131   2.768   2.319   2.611 -0.1889  1.1482 -0.6286
   33DOPE   HN3 4132   2.631   2.400   2.652  0.7690  3.6034 -0.1256
   33DOPE   C12 4133   2.722   2.303   2.814 -0.2351  0.5066  0.0656
   33DOPE  H12A 4134   2.814   2.240   2.820 -0.3786  0.2909 -0.0138
   33DOPE  H12B 4135   2.636   2.233   2.813  0.6654 -0.6844  1.2553
   33DOPE   C11 4136   2.702   2.402   2.931  0.7126 -0.2185  0.1181
   33DOPE  H11A 4137   2.669   2.347   3.022 -1.5665  3.5877  1.8017
   33DOPE  H11B 4138   2.630   2.481   2.901  1.3550 -0.4508 -2.3103
   33DOPE     P 4139   2.934   2.432   3.066  0.0411 -0.3879  0.4877
   33DOPE   O13 4140   3.038   2.535   3.075 -0.4249 -0.2556 -0.0014
   33DOPE   O14 4141   2.968   2.286   3.047  0.1795 -0.3564 -0.3383
   33DOPE   O11 4142   2.854   2.435   3.195 -0.3263  0.0065  0.3076
   33DOPE   O12 4143   2.826   2.473   2.961 -0.4294  0.2043  0.8488
   33DOPE    C1 4144   2.775   2.547   3.239  0.4789 -0.2766 -0.0603
   33DOPE    HA 4145   2.717   2.587   3.153 -1.8600  0.5686  1.7821
   33DOPE    HB 4146   2.835   2.634   3.271 -0.2760  0.5664 -0.8965
   33DOPE    C2 4147   2.671   2.506   3.352  0.3943  0.1599  0.7595
   33DOPE    HS 4148   2.600   2.592   3.355  1.4682  1.0575  1.5633
   33DOPE   O21 4149   2.739   2.483   3.479  0.2378  0.5870  0.0536
   33DOPE   C21 4150   2.660   2.518   3.587 -0.3916  0.0837  0.4571
   33DOPE   O22 4151   2.568   2.597   3.578  0.2312 -0.0187 -0.5169
   33DOPE   C22 4152   2.704   2.443   3.709  0.4882 -0.4194 -0.3239
   33DOPE   H2R 4153   2.798   2.493   3.741 -1.1214  0.9468  2.6702
   33DOPE   H2S 4154   2.737   2.339   3.691  1.1638 -0.5220  1.2874
   33DOPE    C3 4155   2.590   2.381   3.313  0.2504 -0.7333 -0.3640
   33DOPE    HX 4156   2.662   2.298   3.331  1.9847  0.7102 -0.3311
   33DOPE    HY 4157   2.552   2.390   3.209 -3.3116  0.8450  0.9080
   33DOPE   O31 4158   2.478   2.368   3.407 -0.4769 -0.2002 -0.1527
   33DOPE   C31 4159   2.368   2.440   3.379 -0.6633 -0.2355 -0.1957
   33DOPE   O32 4160   2.337   2.482   3.271  0.1400 -0.3894  0.3049
   33DOPE   C32 4161   2.291   2.451   3.515 -0.2750  1.1087  0.1365
   33DOPE   H2X 4162   2.231   2.359   3.530 -1.0377  1.5286 -0.2528
   33DOPE   H2Y 4163   2.357   2.465   3.603  0.1513  2.5147 -0.3676
   33DOPE   C23 4164   2.607   2.454   3.831 -0.0623 -0.2899  0.4561
   33DOPE   H3R 4165   2.509   2.403   3.817  0.3727 -0.7705 -0.9172
   33DOPE   H3S 4166   2.597   2.564   3.844 -0.1006 -0.2787  0.3360
   33DOPE   C24 4167   2.670   2.386   3.957  0.6237 -0.2929 -0.3021
   33DOPE   H4R 4168   2.683   2.284   3.915  0.2861  0.1133 -1.4303
   33DOPE   H4S 4169   2.592   2.389   4.036  1.8169  0.5149  0.8875
   33DOPE   C25 4170   2.790   2.459   4.016  0.2984 -0.1938 -0.7998
   33DOPE   H5R 4171   2.779   2.458   4.127 -1.0074 -2.6892 -0.8858
   33DOPE   H5S 4172   2.793   2.565   3.983  1.0518  0.6262  1.6569
   33DOPE   C26 4173   2.923   2.386   3.989  0.2757  0.6053 -0.2213
   33DOPE   H6R 4174   2.943   2.381   3.880 -0.6781  1.9757 -0.4884
   33DOPE   H6S 4175   2.908   2.282   4.024  0.5507 -0.4189 -2.9379
   33DOPE   C27 4176   3.046   2.451   4.057  0.7750 -0.3789 -0.1179
   33DOPE   H7R 4177   3.136   2.386   4.054 -0.5681 -2.3066 -0.7736
   33DOPE   H7S 4178   3.028   2.454   4.167  1.0096  0.3927 -0.0913
   33DOPE   C28 4179   3.075   2.594   3.995 -0.2318  0.2513 -0.4189
   33DOPE   H8R 4180   2.978   2.649   3.995  0.4043  1.5415  2.2565
   33DOPE   H8S 4181   3.115   2.588   3.891 -0.8068  0.3825 -0.6523
   33DOPE   C29 4182   3.180   2.668   4.079 -0.5245  0.3999 -0.0908
   33DOPE   H9R 4183   3.281   2.625   4.076 -1.2321 -1.2756 -1.3599
   33DOPE  C210 4184   3.156   2.770   4.162  0.4647  0.1333 -0.3101
   33DOPE  H10R 4185   3.243   2.824   4.201  1.2982  0.6580 -2.7230
   33DOPE  C211 4186   3.024   2.834   4.202  0.5069 -0.3875  0.3788
   33DOPE  H11R 4187   3.018   2.835   4.313 -0.9369 -0.6912  0.3281
   33DOPE  H11S 4188   2.944   2.762   4.174 -0.7294  0.2703  2.0399
   33DOPE  C212 4189   2.990   2.971   4.147 -0.4288 -0.4383  0.4291
   33DOPE  H12R 4190   2.953   2.967   4.042 -3.1068 -0.1815  1.2920
   33DOPE  H12S 4191   3.084   3.029   4.150 -0.9370  0.3640  0.9944
   33DOPE  C213 4192   2.900   3.049   4.245 -0.1590  0.0569 -0.2882
   33DOPE  H13R 4193   2.954   3.058   4.342  1.1558 -0.7469 -0.9219
   33DOPE  H13S 4194   2.813   2.981   4.261 -1.2052  0.6145 -3.1265
   33DOPE  C214 4195   2.860   3.185   4.194 -0.4911  0.0518  0.6541
   33DOPE  H14R 4196   2.806   3.182   4.097  2.8904  2.1820 -1.5181
   33DOPE  H14S 4197   2.954   3.241   4.172 -0.5315  0.2011  0.8631
   33DOPE  C215 4198   2.775   3.267   4.288 -0.0573 -0.0546  0.5547
   33DOPE  H15R 4199   2.818   3.242   4.388 -2.8602 -0.9691  1.6241
   33DOPE  H15S 4200   2.672   3.226   4.287  0.2078 -0.7262  0.0636
   33DOPE  C216 4201   2.784   3.424   4.251 -0.3371  0.7758 -0.1523
   33DOPE  H16R 4202   2.765   3.428   4.142  1.9656 -2.1932 -0.7901
   33DOPE  H16S 4203   2.885   3.450   4.290  1.1127 -4.7299  0.6736
   33DOPE  C217 4204   2.677   3.493   4.339  0.6172 -0.2210 -0.6279
   33DOPE  H17R 4205   2.575   3.453   4.319  0.8985  0.2025 -3.3109
   33DOPE  H17S 4206   2.676   3.598   4.305  2.8078 -0.4985 -1.7174
   33DOPE  C218 4207   2.710   3.501   4.486 -0.8098  0.3081 -0.5020
   33DOPE  H18R 4208   2.633   3.557   4.542 -1.2267 -0.0139 -0.7436
   33DOPE  H18S 4209   2.812   3.544   4.496 -1.0704  0.9167 -0.3969
   33DOPE  H18T 4210   2.719   3.402   4.534  3.5725  0.2470 -1.0669
   33DOPE   C33 4211   2.194   2.575   3.510 -0.8044  0.2236 -0.4063
   33DOPE   H3X 4212   2.131   2.568   3.601 -0.8031 -2.6812 -0.5370
   33DOPE   H3Y 4213   2.128   2.572   3.421 -0.8726 -0.8705 -0.3254
   33DOPE   C34 4214   2.286   2.695   3.509 -0.2790  0.3760 -0.9497
   33DOPE   H4X 4215   2.350   2.681   3.599  1.0691 -2.5458 -2.2364
   33DOPE   H4Y 4216   2.354   2.706   3.422 -0.3227  2.0350 -0.8123
   33DOPE   C35 4217   2.223   2.832   3.521  1.1051 -0.0929 -0.6933
   33DOPE   H5X 4218   2.160   2.836   3.613  2.7163  0.0737  0.4505
   33DOPE   H5Y 4219   2.153   2.846   3.436  0.5823  0.2759 -0.2155
   33DOPE   C36 4220   2.327   2.939   3.531 -0.2025  0.1689  0.5608
   33DOPE   H6X 4221   2.358   2.946   3.425  0.3316 -0.5018  0.6689
   33DOPE   H6Y 4222   2.415   2.913   3.593  0.4469  0.9410 -0.0118
   33DOPE   C37 4223   2.251   3.062   3.588  0.7616 -0.6166 -0.2850
   33DOPE   H7X 4224   2.155   3.078   3.535  0.2705  2.2583  1.2826
   33DOPE   H7Y 4225   2.222   3.052   3.695  0.6780 -0.5455 -0.3016
   33DOPE   C38 4226   2.330   3.195   3.564 -0.1411 -0.4840  0.8755
   33DOPE   H8X 4227   2.272   3.289   3.574  0.2442 -0.0457 -0.7737
   33DOPE   H8Y 4228   2.349   3.195   3.455  0.6998 -2.5394  0.9639
   33DOPE   C39 4229   2.454   3.194   3.652  1.4523 -0.3975 -0.6784
   33DOPE   H9X 4230   2.538   3.129   3.622  1.4178 -0.8843  0.2238
   33DOPE  C310 4231   2.449   3.245   3.778  0.9374  0.6575  0.0611
   33DOPE  H10X 4232   2.531   3.215   3.844 -1.0866 -1.3020  1.8685
   33DOPE  C311 4233   2.333   3.319   3.841 -0.0619 -0.3717  0.1664
   33DOPE  H11X 4234   2.235   3.272   3.820 -0.9157  0.1636  2.6200
   33DOPE  H11Y 4235   2.342   3.301   3.950 -2.0567 -0.0273  0.4336
   33DOPE  C312 4236   2.336   3.466   3.819  0.4391 -0.0368 -0.0541
   33DOPE  H12X 4237   2.362   3.495   3.715  2.6095  1.7161  0.8907
   33DOPE  H12Y 4238   2.420   3.507   3.879  0.7683  0.4924 -0.8730
   33DOPE  C313 4239   2.215   3.553   3.856 -0.2931  0.1809  0.3930
   33DOPE  H13X 4240   2.218   3.659   3.826 -2.2690  0.1551 -0.0453
   33DOPE  H13Y 4241   2.131   3.509   3.798 -0.2202 -1.1537  1.2415
   33DOPE  C314 4242   2.167   3.534   3.999 -0.1222 -0.5358  0.3007
   33DOPE  H14X 4243   2.155   3.425   4.018 -0.9100 -0.4957  0.0666
   33DOPE  H14Y 4244   2.065   3.577   4.012  0.1166  0.5222 -1.0899
   33DOPE  C315 4245   2.262   3.592   4.099 -0.4867 -0.2097  0.5554
   33DOPE  H15X 4246   2.269   3.702   4.084  2.6208  0.1759  3.4678
   33DOPE  H15Y 4247   2.369   3.572   4.075 -0.2321  0.2140  1.2793
   33DOPE  C316 4248   2.242   3.554   4.240  0.0590 -0.1093  0.2001
   33DOPE  H16X 4249   2.327   3.595   4.299  1.4798 -2.7071  0.0891
   33DOPE  H16Y 4250   2.256   3.446   4.258 -0.7482 -0.4393 -1.0794
   33DOPE  C317 4251   2.109   3.587   4.311 -0.3718  0.0125 -0.2052
   33DOPE  H17X 4252   2.094   3.696   4.292  1.3218  0.6738  1.8958
   33DOPE  H17Y 4253   2.024   3.538   4.259  0.4234 -0.3891 -1.1510
   33DOPE  C318 4254   2.115   3.550   4.458  0.0157 -0.2382  0.0517
   33DOPE  H18X 4255   2.180   3.624   4.510 -1.4488  1.9955 -1.1811
   33DOPE  H18Y 4256   2.015   3.552   4.506  0.2857  3.2148  0.6739
   33DOPE  H18Z 4257   2.166   3.452   4.474 -0.0324 -0.1739  0.6306
   34DOPE     N 4258   3.498   5.521   2.695 -0.1950  0.0320 -0.7533
   34DOPE   HN1 4259   3.483   5.442   2.629  0.5309 -1.9698  1.3694
   34DOPE   HN2 4260   3.427   5.597   2.693  0.4583  1.0212  3.7433
   34DOPE   HN3 4261   3.591   5.555   2.662  0.5502 -1.5272 -0.3237
   34DOPE   C12 4262   3.502   5.460   2.831  0.0864 -0.1604 -0.1176
   34DOPE  H12A 4263   3.408   5.406   2.853  0.0989  0.3187  1.1676
   34DOPE  H12B 4264   3.517   5.543   2.902 -1.7945  0.1508 -0.0442
   34DOPE   C11 4265   3.624   5.365   2.842  0.0433 -0.3842 -0.1220
   34DOPE  H11A 4266   3.614   5.283   2.767  0.3550  0.9768 -1.7347
   34DOPE  H11B 4267   3.615   5.309   2.937  0.4302 -1.9745 -0.9777
   34DOPE     P 4268   3.824   5.511   2.933  0.2266  0.1017 -0.0842
   34DOPE   O13 4269   3.731   5.618   2.969 -0.4303 -0.4004  0.1435
   34DOPE   O14 4270   3.962   5.536   2.888 -0.3429 -0.6430 -0.0989
   34DOPE   O11 4271   3.831   5.417   3.056 -0.0070  0.0821 -0.0782
   34DOPE   O12 4272   3.753   5.423   2.820  0.0759 -0.4623  0.2576
   34DOPE    C1 4273   3.920   5.302   3.058 -0.6093  0.0797  0.6032
   34DOPE    HA 4274   4.024   5.340   3.067 -0.6427  0.4726 -0.5597
   34DOPE    HB 4275   3.923   5.250   2.961  1.6243  0.0268  0.6553
   34DOPE    C2 4276   3.888   5.210   3.171  0.0751 -0.3030  0.4303
   34DOPE    HS 4277   3.959   5.125   3.165 -0.9633 -1.3368  1.9075
   34DOPE   O21 4278   3.748   5.170   3.182 -0.3694  0.0035 -0.4987
   34DOPE   C21 4279   3.702   5.074   3.102  0.1369 -0.5524  0.2735
   34DOPE   O22 4280   3.762   5.016   3.019 -0.6154 -0.4064 -0.5795
   34DOPE   C22 4281   3.554   5.047   3.115 -0.2123 -0.1865  0.3513
   34DOPE   H2R 4282   3.521   5.020   3.012 -1.9137  0.2771  0.7380
   34DOPE   H2S 4283   3.512   5.140   3.158 -2.4414 -1.0312  0.1174
   34DOPE    C3 4284   3.933   5.280   3.306  0.4843  0.5549  0.1975
   34DOPE    HX 4285   3.884   5.379   3.313  1.0249  0.7678  1.1526
   34DOPE    HY 4286   4.040   5.298   3.284  0.1565  3.8249  0.7498
   34DOPE   O31 4287   3.915   5.192   3.421 -0.7910 -0.2740 -0.6146
   34DOPE   C31 4288   3.799   5.201   3.476  0.1489  0.5652  0.2863
   34DOPE   O32 4289   3.717   5.289   3.458  0.3103 -0.1328 -0.0650
   34DOPE   C32 4290   3.787   5.084   3.574  0.2990  0.2007  1.1451
   34DOPE   H2X 4291   3.794   4.998   3.504  0.1584  0.6890  0.5183
   34DOPE   H2Y 4292   3.873   5.076   3.644  1.5414 -3.0638 -0.5398
   34DOPE   C23 4293   3.528   4.925   3.216 -0.2262  0.1070  0.2886
   34DOPE   H3R 4294   3.418   4.910   3.218 -0.2536 -0.1832 -1.4955
   34DOPE   H3S 4295   3.564   4.947   3.318  1.1862  2.3316 -0.6059
   34DOPE   C24 4296   3.584   4.782   3.169  0.2126 -0.7812  0.0808
   34DOPE   H4R 4297   3.691   4.774   3.198 -0.1442 -0.3581  1.6146
   34DOPE   H4S 4298   3.579   4.773   3.058  0.3717 -2.8617  0.2074
   34DOPE   C25 4299   3.497   4.667   3.221 -0.1373 -0.3694  0.6984
   34DOPE   H5R 4300   3.516   4.568   3.173  0.3046  0.7182 -1.4655
   34DOPE   H5S 4301   3.391   4.697   3.207 -0.6499 -1.7262  1.4588
   34DOPE   C26 4302   3.499   4.664   3.380 -0.5494  0.3301 -0.2928
   34DOPE   H6R 4303   3.462   4.758   3.426 -1.8825 -0.6640  0.7540
   34DOPE   H6S 4304   3.609   4.659   3.398  0.0203 -4.0707 -3.3694
   34DOPE   C27 4305   3.424   4.543   3.437 -0.3488  0.2426 -0.5847
   34DOPE   H7R 4306   3.475   4.450   3.404 -2.2239 -0.2799 -2.2613
   34DOPE   H7S 4307   3.322   4.531   3.394  0.2639 -1.8733 -1.5711
   34DOPE   C28 4308   3.408   4.549   3.593 -0.0123 -0.2342  0.2087
   34DOPE   H8R 4309   3.508   4.542   3.642  1.6637  1.3569 -2.7112
   34DOPE   H8S 4310   3.348   4.460   3.621  0.7660 -1.0439 -0.6226
   34DOPE   C29 4311   3.321   4.664   3.637 -0.0018  0.1200 -0.1081
   34DOPE   H9R 4312   3.235   4.690   3.574 -0.7876  0.0127  0.8826
   34DOPE  C210 4313   3.356   4.754   3.732 -0.4502 -0.0649  0.0037
   34DOPE  H10R 4314   3.296   4.846   3.744  0.2022  0.4542 -0.6435
   34DOPE  C211 4315   3.466   4.742   3.830  0.0010  0.3618 -0.1450
   34DOPE  H11R 4316   3.545   4.819   3.817  1.7365 -1.1603  0.9233
   34DOPE  H11S 4317   3.523   4.647   3.822  1.5971  1.4059 -2.0029
   34DOPE  C212 4318   3.416   4.741   3.973 -0.2956  0.2644  0.9529
   34DOPE  H12R 4319   3.488   4.685   4.036 -0.0351 -1.5669 -0.8792
   34DOPE  H12S 4320   3.313   4.699   3.978 -0.8275  1.2103 -0.9048
   34DOPE  C213 4321   3.412   4.878   4.034 -0.1854  0.3005  1.0596
   34DOPE  H13R 4322   3.358   4.942   3.961 -2.0486 -1.3690  0.8974
   34DOPE  H13S 4323   3.517   4.915   4.030  0.5195 -1.7011 -0.6835
   34DOPE  C214 4324   3.336   4.901   4.167  0.2452  0.8235 -0.2530
   34DOPE  H14R 4325   3.228   4.887   4.148  0.3802 -0.5040 -0.1192
   34DOPE  H14S 4326   3.360   4.998   4.217  1.4257 -0.2870  1.4440
   34DOPE  C215 4327   3.375   4.798   4.277 -0.6086 -0.5776  0.5239
   34DOPE  H15R 4328   3.469   4.827   4.328 -1.8033  0.0960  2.4726
   34DOPE  H15S 4329   3.398   4.694   4.245 -1.6768 -0.7076  0.1072
   34DOPE  C216 4330   3.268   4.782   4.388  0.4734 -0.1622 -0.0509
   34DOPE  H16R 4331   3.171   4.769   4.336 -0.2731 -2.1229  1.6596
   34DOPE  H16S 4332   3.263   4.867   4.459  1.1659  0.1817 -0.3966
   34DOPE  C217 4333   3.295   4.663   4.487 -0.0890 -0.3362  0.4387
   34DOPE  H17R 4334   3.367   4.597   4.435  0.3847 -0.5966  1.4168
   34DOPE  H17S 4335   3.207   4.596   4.481 -1.0782  0.9240  0.4446
   34DOPE  C218 4336   3.333   4.707   4.632  0.2889  0.2041  0.2242
   34DOPE  H18R 4337   3.357   4.618   4.694 -1.6826  0.2616  1.1710
   34DOPE  H18S 4338   3.250   4.757   4.687  0.4580  1.3064 -0.4844
   34DOPE  H18T 4339   3.429   4.762   4.640  2.1955 -2.6299 -1.4550
   34DOPE   C33 4340   3.661   5.085   3.659  0.1789 -0.0684 -0.3529
   34DOPE   H3X 4341   3.659   5.004   3.735  0.6086 -0.6080 -0.9066
   34DOPE   H3Y 4342   3.569   5.066   3.601 -0.9298  1.8217  0.7079
   34DOPE   C34 4343   3.634   5.209   3.735 -0.4773 -0.1937  0.4621
   34DOPE   H4X 4344   3.599   5.287   3.664  0.5929 -0.8176 -0.7858
   34DOPE   H4Y 4345   3.549   5.189   3.804  0.1100  2.7279  2.1957
   34DOPE   C35 4346   3.754   5.261   3.825 -0.0605 -0.2643 -0.3386
   34DOPE   H5X 4347   3.719   5.352   3.879 -0.3352  0.6281 -1.9708
   34DOPE   H5Y 4348   3.834   5.301   3.760  0.7951 -0.4037  0.5979
   34DOPE   C36 4349   3.807   5.166   3.929  1.1782  0.5614  0.3279
   34DOPE   H6X 4350   3.904   5.208   3.960  0.3627  2.5154  0.4062
   34DOPE   H6Y 4351   3.829   5.071   3.875 -0.0355  0.1013  0.6177
   34DOPE   C37 4352   3.719   5.136   4.045 -0.1273  0.1361 -0.7615
   34DOPE   H7X 4353   3.612   5.117   4.021 -0.2742 -1.4608  0.9053
   34DOPE   H7Y 4354   3.772   5.050   4.092  0.3322  0.2312 -1.0984
   34DOPE   C38 4355   3.725   5.235   4.163  0.5522 -0.2492 -0.5936
   34DOPE   H8X 4356   3.660   5.322   4.141  0.6250 -0.0381 -0.0093
   34DOPE   H8Y 4357   3.825   5.281   4.179 -0.0447  0.5600  1.1447
   34DOPE   C39 4358   3.673   5.159   4.289 -0.5731 -0.3469 -0.1201
   34DOPE   H9X 4359   3.575   5.112   4.274 -0.1430 -0.5888 -2.7237
   34DOPE  C310 4360   3.726   5.167   4.409 -0.1739  0.2098  0.1519
   34DOPE  H10X 4361   3.673   5.109   4.485 -2.1471  2.2669  0.4412
   34DOPE  C311 4362   3.846   5.242   4.461  0.1973 -0.2551 -0.1781
   34DOPE  H11X 4363   3.919   5.266   4.381  0.2342 -1.9992 -0.7160
   34DOPE  H11Y 4364   3.820   5.339   4.509 -1.9967 -0.1037 -1.5239
   34DOPE  C312 4365   3.926   5.164   4.574 -0.8050 -0.2583  0.6939
   34DOPE  H12X 4366   4.025   5.214   4.581 -0.9419  0.8265 -3.1648
   34DOPE  H12Y 4367   3.960   5.067   4.532 -0.3147  0.0281  0.4253
   34DOPE  C313 4368   3.856   5.134   4.704  0.0746 -0.6638 -0.0834
   34DOPE  H13X 4369   3.835   5.229   4.756 -0.1500 -0.5192 -0.4324
   34DOPE  H13Y 4370   3.757   5.099   4.667 -0.3124 -1.0893  1.2913
   34DOPE  C314 4371   3.923   5.026   4.783 -0.0265 -0.2264 -0.1118
   34DOPE  H14X 4372   3.965   4.944   4.721  0.5010 -0.2591  0.2773
   34DOPE  H14Y 4373   3.855   4.983   4.860 -0.5175  0.6944 -0.0150
   34DOPE  C315 4374   4.047   5.080   4.866 -0.4997  0.5825  0.4742
   34DOPE  H15X 4375   4.108   5.143   4.798 -2.6043 -0.5993 -2.7561
   34DOPE  H15Y 4376   4.111   4.993   4.892 -0.2614  0.2728 -1.0398
   34DOPE  C316 4377   4.004   5.144   5.003 -0.8284 -0.3945  0.6428
   34DOPE  H16X 4378   3.944   5.075   5.067  0.0394 -0.2105  1.6827
   34DOPE  H16Y 4379   3.939   5.227   4.968 -1.6793 -1.0727  0.5909
   34DOPE  C317 4380   4.117   5.208   5.075 -0.6058 -0.1573  1.1350
   34DOPE  H17X 4381   4.191   5.130   5.103 -1.9055 -1.3993  1.2271
   34DOPE  H17Y 4382   4.168   5.269   4.998  0.3443 -1.6786  0.4992
   34DOPE  C318 4383   4.079   5.293   5.199  0.1767 -0.1724 -0.2505
   34DOPE  H18X 4384   4.015   5.232   5.266  2.4785 -2.9493 -0.3907
   34DOPE  H18Y 4385   4.168   5.339   5.249  1.1238  0.1702 -2.1384
   34DOPE  H18Z 4386   4.028   5.382   5.157 -0.9451 -0.5471  0.2960
   35DOPE     N 4387   6.980   3.703   2.969 -0.0904  0.1324  0.7097
   35DOPE   HN1 4388   6.999   3.638   3.047  1.0204  1.0448  1.2342
   35DOPE   HN2 4389   7.042   3.786   2.969 -0.4596  0.4194  1.4308
   35DOPE   HN3 4390   6.879   3.728   2.975 -0.6007 -2.0616  2.1285
   35DOPE   C12 4391   7.000   3.618   2.853 -0.6566  0.0886  0.1217
   35DOPE  H12A 4392   7.055   3.674   2.774  2.3655 -4.0373 -1.0078
   35DOPE  H12B 4393   6.901   3.585   2.815 -0.5945 -0.0013  0.0379
   35DOPE   C11 4394   7.098   3.502   2.889 -0.5547 -0.1684  0.0779
   35DOPE  H11A 4395   7.189   3.549   2.931 -0.3275 -0.6904  0.1657
   35DOPE  H11B 4396   7.141   3.455   2.799  0.2579 -0.2969  0.5270
   35DOPE     P 4397   6.988   3.264   2.945 -0.0416 -0.0384  0.2306
   35DOPE   O13 4398   7.009   3.244   2.800  0.1886  0.2456  0.3940
   35DOPE   O14 4399   6.851   3.255   2.998  0.5826  0.1698 -0.1826
   35DOPE   O11 4400   7.084   3.168   3.019  0.0874  0.3448 -0.0610
   35DOPE   O12 4401   7.043   3.409   2.987  0.2288  0.2887  0.3619
   35DOPE    C1 4402   7.221   3.202   3.055 -0.7725 -0.4515 -0.2750
   35DOPE    HA 4403   7.239   3.312   3.049 -0.8114 -0.4981 -1.3263
   35DOPE    HB 4404   7.298   3.160   2.987 -0.6022 -3.1172  1.4459
   35DOPE    C2 4405   7.255   3.158   3.205 -0.3837 -0.0860 -0.1589
   35DOPE    HS 4406   7.249   3.047   3.203  0.0313 -0.1408  0.9420
   35DOPE   O21 4407   7.156   3.215   3.287  0.0083  0.7570  0.2182
   35DOPE   C21 4408   7.068   3.139   3.351  0.0911 -0.2968 -0.8373
   35DOPE   O22 4409   7.059   3.017   3.358 -0.1518 -0.1111  0.0827
   35DOPE   C22 4410   6.956   3.238   3.397  0.1752  0.0175  0.4557
   35DOPE   H2R 4411   6.869   3.201   3.339  0.9603 -1.2262  0.0219
   35DOPE   H2S 4412   6.987   3.339   3.361  4.4090 -0.8758  1.0119
   35DOPE    C3 4413   7.383   3.207   3.262 -0.1669  0.0716 -0.5822
   35DOPE    HX 4414   7.385   3.315   3.285  1.7260 -0.4414  2.1533
   35DOPE    HY 4415   7.456   3.192   3.180  1.6523  1.2623  0.7418
   35DOPE   O31 4416   7.425   3.122   3.372 -0.0008 -0.2031  0.6366
   35DOPE   C31 4417   7.404   3.174   3.491  0.3255  0.0368  0.1817
   35DOPE   O32 4418   7.372   3.290   3.514  0.0854  0.2442  0.1049
   35DOPE   C32 4419   7.423   3.074   3.597 -0.0478 -0.0514  0.4593
   35DOPE   H2X 4420   7.336   3.007   3.577 -1.0023  0.4994  2.4664
   35DOPE   H2Y 4421   7.517   3.020   3.574  1.5599  2.8939 -0.4280
   35DOPE   C23 4422   6.922   3.231   3.548  0.0796 -0.6339  0.1314
   35DOPE   H3R 4423   6.887   3.127   3.570 -1.4725 -0.1875 -0.1151
   35DOPE   H3S 4424   6.841   3.307   3.552  1.3759  0.9115 -1.5256
   35DOPE   C24 4425   7.032   3.259   3.643  0.1962 -0.4819  0.3367
   35DOPE   H4R 4426   7.079   3.356   3.615  0.5431 -0.2923  1.5128
   35DOPE   H4S 4427   7.114   3.184   3.637  0.6456  0.0816 -1.2567
   35DOPE   C25 4428   6.979   3.266   3.787 -0.5057 -0.0048 -0.5162
   35DOPE   H5R 4429   6.930   3.170   3.811  0.8714 -0.7569 -0.6046
   35DOPE   H5S 4430   6.893   3.336   3.780 -1.7245 -1.5137 -1.1200
   35DOPE   C26 4431   7.074   3.328   3.891 -0.3597  0.2541  0.4081
   35DOPE   H6R 4432   7.110   3.428   3.859  0.3811 -0.2438 -0.3603
   35DOPE   H6S 4433   7.170   3.273   3.893  0.9616  2.4615  1.7060
   35DOPE   C27 4434   7.029   3.326   4.042 -0.5998  0.4032 -0.1999
   35DOPE   H7R 4435   7.014   3.222   4.077 -0.9903  0.1908 -0.9683
   35DOPE   H7S 4436   6.928   3.373   4.035 -0.0289  1.5843 -0.8763
   35DOPE   C28 4437   7.125   3.394   4.145 -0.2202 -0.5301  0.2356
   35DOPE   H8R 4438   7.074   3.385   4.244  0.1225  0.0461  0.4680
   35DOPE   H8S 4439   7.149   3.496   4.111  1.7157 -0.0171  2.8119
   35DOPE   C29 4440   7.257   3.318   4.169 -0.0690  0.0309  0.9935
   35DOPE   H9R 4441   7.337   3.374   4.117 -0.3044 -0.8338 -0.3445
   35DOPE  C210 4442   7.283   3.209   4.244 -0.7307  0.1675  0.6501
   35DOPE  H10R 4443   7.387   3.174   4.249  0.2639  2.9465  1.5196
   35DOPE  C211 4444   7.193   3.136   4.341  0.9704 -0.0573  0.0385
   35DOPE  H11R 4445   7.125   3.071   4.282  0.1453 -0.7370  1.6793
   35DOPE  H11S 4446   7.130   3.212   4.392  1.1052  0.9990 -1.2940
   35DOPE  C212 4447   7.274   3.054   4.439  0.2419  0.3499  0.3868
   35DOPE  H12R 4448   7.330   3.115   4.513  1.3029  0.7671 -0.7327
   35DOPE  H12S 4449   7.356   3.002   4.384 -0.6735 -0.0093 -0.6843
   35DOPE  C213 4450   7.185   2.956   4.509  0.0946  0.3072  0.5443
   35DOPE  H13R 4451   7.245   2.877   4.560  0.4353 -0.6676 -1.2669
   35DOPE  H13S 4452   7.135   2.896   4.429  0.6178  1.0579 -0.3751
   35DOPE  C214 4453   7.085   3.018   4.607 -0.5977 -0.0211  0.5325
   35DOPE  H14R 4454   7.031   3.098   4.552  1.3225 -1.0342 -3.1771
   35DOPE  H14S 4455   7.137   3.063   4.695 -3.1091 -0.6560  2.4671
   35DOPE  C215 4456   6.982   2.925   4.669  0.1752  0.0985 -0.2686
   35DOPE  H15R 4457   6.909   2.896   4.590  0.4796  0.0689 -0.5386
   35DOPE  H15S 4458   6.923   2.983   4.744 -0.5882  1.5829 -1.9139
   35DOPE  C216 4459   7.039   2.802   4.734  0.4340  0.2358 -0.1132
   35DOPE  H16R 4460   7.091   2.831   4.828 -1.7820  1.7795  0.7307
   35DOPE  H16S 4461   7.103   2.750   4.660 -1.0756  0.3718 -1.5726
   35DOPE  C217 4462   6.916   2.709   4.781  0.0799 -0.0348 -0.4006
   35DOPE  H17R 4463   6.968   2.618   4.817  0.2800  0.7379  1.3422
   35DOPE  H17S 4464   6.857   2.687   4.689 -1.5353  0.4451  0.4800
   35DOPE  C218 4465   6.823   2.770   4.888  0.5393  0.2515  0.0020
   35DOPE  H18R 4466   6.749   2.843   4.848  1.1578  1.2654  0.6684
   35DOPE  H18S 4467   6.896   2.814   4.959  1.1342 -0.8124  0.0727
   35DOPE  H18T 4468   6.762   2.694   4.940  0.5936 -0.5878 -1.1311
   35DOPE   C33 4469   7.422   3.134   3.742  0.6038  0.4532  0.1958
   35DOPE   H3X 4470   7.376   3.063   3.814  0.9497  1.3067  1.2888
   35DOPE   H3Y 4471   7.364   3.229   3.744  0.1655  0.2286 -0.8674
   35DOPE   C34 4472   7.565   3.168   3.785 -0.1756  0.7908  0.1695
   35DOPE   H4X 4473   7.636   3.084   3.771 -0.4717  0.6740 -0.7030
   35DOPE   H4Y 4474   7.594   3.251   3.719  0.5181  0.5133  0.1233
   35DOPE   C35 4475   7.577   3.210   3.931  0.0849  0.6123 -0.0886
   35DOPE   H5X 4476   7.492   3.273   3.964 -0.9702 -2.2381  3.4046
   35DOPE   H5Y 4477   7.670   3.269   3.939 -0.3389  1.2199  0.4260
   35DOPE   C36 4478   7.591   3.093   4.032  0.4456 -0.1523 -0.5922
   35DOPE   H6X 4479   7.498   3.034   4.034 -0.3711  1.1025 -0.0936
   35DOPE   H6Y 4480   7.618   3.132   4.133  2.5871 -1.4096 -0.6269
   35DOPE   C37 4481   7.701   2.997   3.985  0.6601  0.1569 -0.4075
   35DOPE   H7X 4482   7.659   2.929   3.908  1.4842 -0.2753 -0.4922
   35DOPE   H7Y 4483   7.791   3.050   3.947  1.2068 -1.6002 -1.7480
   35DOPE   C38 4484   7.736   2.901   4.094 -0.6089  0.5734 -0.6161
   35DOPE   H8X 4485   7.810   2.829   4.052  1.6027  2.4102 -0.0709
   35DOPE   H8Y 4486   7.649   2.850   4.140  0.9799 -1.1504  0.6713
   35DOPE   C39 4487   7.810   2.967   4.207  0.0739 -0.2328 -0.5905
   35DOPE   H9X 4488   7.897   3.027   4.178  0.4628 -0.0082  0.9155
   35DOPE  C310 4489   7.773   2.981   4.336 -0.3345 -0.7349  0.3292
   35DOPE  H10X 4490   7.832   3.044   4.404  0.9143 -0.7829 -0.6658
   35DOPE  C311 4491   7.647   2.926   4.410  0.3318  0.6407  0.0964
   35DOPE  H11X 4492   7.591   3.013   4.452 -0.0913  0.5722 -0.3116
   35DOPE  H11Y 4493   7.574   2.887   4.335  0.3420  0.6647  0.0742
   35DOPE  C312 4494   7.691   2.826   4.520 -0.7504  0.3432  0.2465
   35DOPE  H12X 4495   7.619   2.799   4.600  0.4708  0.3695  1.3971
   35DOPE  H12Y 4496   7.781   2.871   4.567 -0.0355  1.7902 -2.3022
   35DOPE  C313 4497   7.734   2.688   4.455 -0.1639  0.0956  0.2877
   35DOPE  H13X 4498   7.659   2.647   4.384  2.0949 -0.6087 -1.8123
   35DOPE  H13Y 4499   7.837   2.704   4.418  0.2551 -1.7441  0.5278
   35DOPE  C314 4500   7.737   2.572   4.557  0.2530  0.0685 -0.6473
   35DOPE  H14X 4501   7.634   2.540   4.586  1.0927 -2.0501  0.2390
   35DOPE  H14Y 4502   7.789   2.605   4.649  0.4485  2.0736 -1.4429
   35DOPE  C315 4503   7.809   2.445   4.506 -0.4172 -0.2864  0.1408
   35DOPE  H15X 4504   7.821   2.375   4.591 -4.7311 -0.8121  0.5534
   35DOPE  H15Y 4505   7.908   2.475   4.467 -0.3721 -0.3027  0.2437
   35DOPE  C316 4506   7.742   2.367   4.386  1.1013  0.8096 -0.2508
   35DOPE  H16X 4507   7.722   2.428   4.295  0.4018 -0.0243 -0.6674
   35DOPE  H16Y 4508   7.644   2.335   4.427  1.2487  0.4557 -0.1698
   35DOPE  C317 4509   7.834   2.245   4.364  0.1446  0.2189  0.4870
   35DOPE  H17X 4510   7.862   2.190   4.456  0.2522 -0.5924 -0.0226
   35DOPE  H17Y 4511   7.778   2.169   4.306  1.0085 -1.3347  1.6326
   35DOPE  C318 4512   7.963   2.270   4.290  0.0547 -0.1578 -0.5823
   35DOPE  H18X 4513   7.952   2.327   4.195  0.3911  0.6806 -0.1339
   35DOPE  H18Y 4514   8.027   2.335   4.353 -0.4563  0.2235 -0.4567
   35DOPE  H18Z 4515   8.005   2.171   4.262 -1.5291 -1.2351  0.6752
   36DOPE     N 4516   6.571   5.883   2.673 -1.0938  0.2678 -0.4154
   36DOPE   HN1 4517   6.674   5.871   2.661 -0.3066  0.9969  4.0538
   36DOPE   HN2 4518   6.535   5.911   2.579  0.7542  0.9815 -0.9654
   36DOPE   HN3 4519   6.565   5.962   2.740  0.0641 -0.3770  0.4941
   36DOPE   C12 4520   6.511   5.759   2.718  0.8586  0.1669 -0.5930
   36DOPE  H12A 4521   6.512   5.691   2.630  0.6147 -0.9516  0.2646
   36DOPE  H12B 4522   6.408   5.780   2.752  1.1795  1.1109 -0.1519
   36DOPE   C11 4523   6.598   5.683   2.818  0.3042 -0.3816 -0.0706
   36DOPE  H11A 4524   6.702   5.683   2.778  0.3444  1.9545 -0.0481
   36DOPE  H11B 4525   6.561   5.578   2.822 -1.2999  0.0987 -1.2381
   36DOPE     P 4526   6.695   5.699   3.059 -0.0362 -0.0630 -0.3473
   36DOPE   O13 4527   6.677   5.769   3.184 -0.4268  0.1027 -0.5817
   36DOPE   O14 4528   6.825   5.715   2.992  0.6072 -0.2238 -0.9947
   36DOPE   O11 4529   6.658   5.545   3.078 -0.1843 -0.0122  0.1639
   36DOPE   O12 4530   6.590   5.745   2.951 -0.2753 -0.5818  0.0253
   36DOPE    C1 4531   6.518   5.508   3.103  0.3210  0.1407 -0.1627
   36DOPE    HA 4532   6.496   5.410   3.055 -0.5482 -0.6241  1.6905
   36DOPE    HB 4533   6.445   5.580   3.061  0.2406 -0.2594 -0.7231
   36DOPE    C2 4534   6.493   5.480   3.253 -0.5092 -0.6824 -0.3038
   36DOPE    HS 4535   6.538   5.571   3.298  1.1711 -1.1285 -0.9972
   36DOPE   O21 4536   6.564   5.362   3.293 -0.2324 -0.0627  0.9912
   36DOPE   C21 4537   6.632   5.376   3.405  0.1405 -0.9709  0.6358
   36DOPE   O22 4538   6.623   5.467   3.486 -0.1085 -0.1047 -0.4721
   36DOPE   C22 4539   6.709   5.246   3.419 -0.2014 -0.1107 -0.8781
   36DOPE   H2R 4540   6.798   5.253   3.353  2.7299 -2.0041  2.4908
   36DOPE   H2S 4541   6.642   5.159   3.401  1.8277 -2.2180  0.9798
   36DOPE    C3 4542   6.344   5.485   3.296 -0.0514 -0.2990 -0.0189
   36DOPE    HX 4543   6.291   5.399   3.250 -0.5085 -0.0203 -0.0159
   36DOPE    HY 4544   6.295   5.574   3.253  0.3207 -0.6583 -1.2080
   36DOPE   O31 4545   6.328   5.493   3.445  0.2251 -0.2970 -0.2277
   36DOPE   C31 4546   6.326   5.611   3.499 -0.0820 -0.0120 -0.8370
   36DOPE   O32 4547   6.331   5.713   3.433 -0.8732 -0.1246  0.6023
   36DOPE   C32 4548   6.309   5.599   3.654  0.1328 -0.4837  0.3153
   36DOPE   H2X 4549   6.238   5.515   3.670 -0.2816 -0.3629 -0.7666
   36DOPE   H2Y 4550   6.406   5.580   3.704  0.5003  0.9842  0.2025
   36DOPE   C23 4551   6.760   5.226   3.563 -0.1127 -0.2433 -0.2874
   36DOPE   H3R 4552   6.793   5.120   3.556 -2.2364 -0.9069 -1.1086
   36DOPE   H3S 4553   6.675   5.238   3.633 -0.2446  0.2861 -0.5322
   36DOPE   C24 4554   6.883   5.316   3.594  0.3981 -0.4229 -0.0870
   36DOPE   H4R 4555   6.852   5.418   3.626 -0.2787  0.2682 -2.6973
   36DOPE   H4S 4556   6.938   5.331   3.498  0.6056 -0.8540 -0.0364
   36DOPE   C25 4557   6.967   5.251   3.709  0.6035 -0.4104  0.9044
   36DOPE   H5R 4558   6.979   5.144   3.685 -0.1604 -0.0096 -1.4566
   36DOPE   H5S 4559   6.909   5.274   3.802 -0.3393  0.6578  0.0811
   36DOPE   C26 4560   7.108   5.300   3.726 -1.2193 -0.0662  0.0089
   36DOPE   H6R 4561   7.099   5.402   3.771  0.5559  1.0952 -2.0827
   36DOPE   H6S 4562   7.147   5.301   3.622 -1.3930  0.0547 -0.0561
   36DOPE   C27 4563   7.195   5.221   3.821 -0.6527 -0.1252  0.9891
   36DOPE   H7R 4564   7.294   5.272   3.823  0.5900 -2.2144 -1.7307
   36DOPE   H7S 4565   7.214   5.122   3.775  2.7429 -0.0186  1.8118
   36DOPE   C28 4566   7.140   5.196   3.965  0.4105  0.2716  0.2813
   36DOPE   H8R 4567   7.033   5.166   3.960 -0.4400  3.0822  0.0367
   36DOPE   H8S 4568   7.128   5.288   4.026  0.7002  0.3356  0.2412
   36DOPE   C29 4569   7.221   5.093   4.048 -0.0343 -0.6920  0.1504
   36DOPE   H9R 4570   7.196   4.988   4.028 -1.0286 -0.3073 -0.6923
   36DOPE  C210 4571   7.313   5.134   4.134 -0.6432 -0.1751 -0.2327
   36DOPE  H10R 4572   7.362   5.061   4.201 -0.7665  1.0346  1.2227
   36DOPE  C211 4573   7.366   5.275   4.168  0.3563 -0.2248  0.6890
   36DOPE  H11R 4574   7.321   5.354   4.106  2.2140  1.2063  1.0562
   36DOPE  H11S 4575   7.477   5.273   4.166  0.3500 -1.6908  0.7417
   36DOPE  C212 4576   7.333   5.304   4.312 -0.4541 -0.1106  0.1648
   36DOPE  H12R 4577   7.374   5.219   4.371  2.6004  0.8359 -0.4162
   36DOPE  H12S 4578   7.224   5.315   4.332 -0.3220 -0.4044  1.1216
   36DOPE  C213 4579   7.404   5.436   4.361  1.0712  0.3727  0.1707
   36DOPE  H13R 4580   7.357   5.521   4.308 -1.0796  0.0955  1.4726
   36DOPE  H13S 4581   7.511   5.444   4.333  1.0312  2.9972  0.5181
   36DOPE  C214 4582   7.381   5.457   4.505 -0.1184  0.3466 -0.3084
   36DOPE  H14R 4583   7.394   5.363   4.562 -0.9221  0.6741  0.4309
   36DOPE  H14S 4584   7.273   5.480   4.520 -0.9807 -2.4429 -1.5783
   36DOPE  C215 4585   7.464   5.572   4.578 -0.2788 -0.0574 -0.7092
   36DOPE  H15R 4586   7.448   5.655   4.506 -2.1879  0.6591  0.4717
   36DOPE  H15S 4587   7.569   5.536   4.583  0.4110  2.0146  2.3512
   36DOPE  C216 4588   7.420   5.608   4.714  0.1349 -0.2609  0.0630
   36DOPE  H16R 4589   7.313   5.638   4.712  0.6019  1.4601 -1.3562
   36DOPE  H16S 4590   7.476   5.699   4.746 -0.4784  0.2531 -0.3264
   36DOPE  C217 4591   7.430   5.497   4.823 -0.4333  0.7416  0.3306
   36DOPE  H17R 4592   7.536   5.473   4.843 -0.3914 -0.0636 -0.7657
   36DOPE  H17S 4593   7.380   5.404   4.787  1.2256 -0.6812  1.5270
   36DOPE  C218 4594   7.371   5.558   4.946  0.5122  0.0524 -0.0993
   36DOPE  H18R 4595   7.264   5.588   4.941  0.6157  0.3537 -0.5040
   36DOPE  H18S 4596   7.428   5.649   4.972  0.9449 -0.6681  1.6194
   36DOPE  H18T 4597   7.383   5.487   5.031  0.8351 -0.4138 -0.5329
   36DOPE   C33 4598   6.265   5.735   3.709 -0.3669 -0.5218  1.0012
   36DOPE   H3X 4599   6.178   5.767   3.648  0.8327  0.9572 -0.0129
   36DOPE   H3Y 4600   6.343   5.812   3.689 -0.5897 -0.8046 -1.1782
   36DOPE   C34 4601   6.227   5.736   3.857  0.2646 -0.4717 -0.2641
   36DOPE   H4X 4602   6.176   5.830   3.885 -0.9982 -1.0787 -0.4669
   36DOPE   H4Y 4603   6.152   5.656   3.871 -1.4637  0.6635 -2.3301
   36DOPE   C35 4604   6.353   5.714   3.947  0.3220 -0.0077  1.0181
   36DOPE   H5X 4605   6.426   5.784   3.902  0.9227 -2.4472 -2.1604
   36DOPE   H5Y 4606   6.391   5.610   3.944  1.3275  0.3229  1.7046
   36DOPE   C36 4607   6.324   5.738   4.090 -0.5449 -0.0376 -0.0985
   36DOPE   H6X 4608   6.248   5.662   4.119 -2.0528  1.1937 -0.6648
   36DOPE   H6Y 4609   6.294   5.839   4.125  0.8646 -0.3490  2.1740
   36DOPE   C37 4610   6.462   5.717   4.164 -0.2553  0.1363 -0.0578
   36DOPE   H7X 4611   6.488   5.612   4.138  0.0849  0.4964 -1.2428
   36DOPE   H7Y 4612   6.545   5.772   4.115  0.9157 -1.1623  0.4224
   36DOPE   C38 4613   6.466   5.741   4.313 -0.1312  0.3005 -0.4875
   36DOPE   H8X 4614   6.567   5.728   4.358 -0.2936 -1.5755 -0.5975
   36DOPE   H8Y 4615   6.403   5.665   4.363 -0.5862  0.7637 -0.3541
   36DOPE   C39 4616   6.429   5.883   4.345  0.4337 -0.6908  0.1645
   36DOPE   H9X 4617   6.509   5.946   4.303  1.5486 -1.6076  0.8561
   36DOPE  C310 4618   6.332   5.944   4.417 -0.4146  0.5361  0.3051
   36DOPE  H10X 4619   6.323   6.054   4.413  0.0197  0.5399 -0.7770
   36DOPE  C311 4620   6.222   5.870   4.490 -0.8301  0.1808 -0.1876
   36DOPE  H11X 4621   6.124   5.892   4.442 -1.8559 -1.6767  0.9502
   36DOPE  H11Y 4622   6.229   5.760   4.476  3.6224  0.1448  0.8891
   36DOPE  C312 4623   6.216   5.923   4.643  0.0683  0.3532 -0.3090
   36DOPE  H12X 4624   6.174   6.025   4.647  3.4284  2.1024 -3.5295
   36DOPE  H12Y 4625   6.323   5.929   4.672 -0.5045  1.3727  1.7925
   36DOPE  C313 4626   6.132   5.826   4.727 -0.0533  0.5512 -0.7587
   36DOPE  H13X 4627   6.036   5.820   4.671 -0.1637 -1.3860 -0.4424
   36DOPE  H13Y 4628   6.171   5.722   4.732  0.1476  0.6715  0.4214
   36DOPE  C314 4629   6.123   5.875   4.868  0.0648 -0.5536 -0.3518
   36DOPE  H14X 4630   6.091   5.981   4.864 -0.2196 -0.6289 -0.0909
   36DOPE  H14Y 4631   6.226   5.873   4.909  0.8462  1.0469 -2.0777
   36DOPE  C315 4632   6.031   5.786   4.959 -0.5599  0.0893 -0.7556
   36DOPE  H15X 4633   6.007   5.689   4.912  1.7591  0.3858 -2.7171
   36DOPE  H15Y 4634   5.936   5.843   4.966 -0.8169 -0.5041  1.2018
   36DOPE  C316 4635   6.084   5.791   5.102  0.3699  0.1037  0.3985
   36DOPE  H16X 4636   6.162   5.871   5.100  1.5084 -0.9838 -0.4428
   36DOPE  H16Y 4637   6.142   5.701   5.130  1.4171  0.3553 -0.8618
   36DOPE  C317 4638   5.981   5.819   5.205  0.9166  0.7513 -0.3145
   36DOPE  H17X 4639   5.917   5.902   5.167 -1.4234 -1.3955 -1.3190
   36DOPE  H17Y 4640   5.913   5.732   5.216 -0.3451  1.8821  1.6385
   36DOPE  C318 4641   6.033   5.840   5.339  0.6942 -0.1851 -0.0165
   36DOPE  H18X 4642   5.953   5.869   5.411  1.6244 -0.3860  1.1425
   36DOPE  H18Y 4643   6.073   5.748   5.386 -0.5143  0.6194  2.8490
   36DOPE  H18Z 4644   6.113   5.917   5.336 -0.4642  1.0466 -0.3331
   37DOPE     N 4645   3.004   3.371   3.099 -0.2172 -0.2279  0.0574
   37DOPE   HN1 4646   2.906   3.337   3.088  0.1513 -0.9050 -1.4340
   37DOPE   HN2 4647   3.055   3.323   3.175 -2.2606 -1.2299  0.8621
   37DOPE   HN3 4648   3.004   3.475   3.100  0.1303 -0.1968  2.7092
   37DOPE   C12 4649   3.058   3.320   2.966 -0.1876 -0.4424 -0.0155
   37DOPE  H12A 4650   3.164   3.352   2.969 -0.2083 -0.1659 -1.6316
   37DOPE  H12B 4651   3.000   3.364   2.882  0.4344 -0.2885 -0.3665
   37DOPE   C11 4652   3.051   3.168   2.962 -0.2862 -0.5104  0.1625
   37DOPE  H11A 4653   3.107   3.121   3.046 -1.4941 -2.1540  0.0806
   37DOPE  H11B 4654   3.097   3.129   2.869  0.7946 -1.7549  1.1778
   37DOPE     P 4655   2.862   2.989   2.919  0.3031  0.1382  0.0313
   37DOPE   O13 4656   2.970   2.898   2.883  0.4009  0.6824  0.1222
   37DOPE   O14 4657   2.760   3.014   2.815 -0.1491  0.3007 -0.5293
   37DOPE   O11 4658   2.791   2.921   3.046 -0.4310  0.4136  0.4172
   37DOPE   O12 4659   2.914   3.127   2.967 -0.6967  0.1330  0.0930
   37DOPE    C1 4660   2.709   2.993   3.139 -0.2093  0.1307 -0.3816
   37DOPE    HA 4661   2.627   2.930   3.179 -0.5183  1.0016  0.3793
   37DOPE    HB 4662   2.649   3.072   3.089 -2.5355  0.1241  2.1661
   37DOPE    C2 4663   2.779   3.045   3.269  0.5526 -0.0669 -0.1388
   37DOPE    HS 4664   2.856   3.110   3.221  2.2876 -3.0598 -1.6851
   37DOPE   O21 4665   2.843   2.934   3.342 -0.3936 -0.3996  0.2462
   37DOPE   C21 4666   2.952   2.975   3.417 -0.1703  0.0062  0.5253
   37DOPE   O22 4667   3.005   3.087   3.411 -0.3280 -0.0352 -0.6378
   37DOPE   C22 4668   2.994   2.861   3.509 -0.2277  0.4121 -0.2353
   37DOPE   H2R 4669   3.103   2.847   3.498  0.0165  1.7958  0.2617
   37DOPE   H2S 4670   2.939   2.767   3.485 -1.2832  0.8740  0.3044
   37DOPE    C3 4671   2.677   3.131   3.344  0.0135  0.1043  0.1115
   37DOPE    HX 4672   2.596   3.057   3.359  0.0287  0.5741  3.1711
   37DOPE    HY 4673   2.630   3.209   3.280 -0.8817 -0.3137  0.2531
   37DOPE   O31 4674   2.717   3.180   3.469  1.0943  0.1341 -0.4262
   37DOPE   C31 4675   2.792   3.290   3.463 -0.0795  0.8961 -0.1920
   37DOPE   O32 4676   2.819   3.354   3.362 -0.3074  0.4545  0.2757
   37DOPE   C32 4677   2.845   3.310   3.605 -0.1300 -0.0705  0.0428
   37DOPE   H2X 4678   2.761   3.336   3.673 -1.0709  0.7450 -1.3918
   37DOPE   H2Y 4679   2.876   3.211   3.645  1.3958  0.0334 -0.8264
   37DOPE   C23 4680   2.973   2.898   3.655  0.1969  0.5213  0.2464
   37DOPE   H3R 4681   2.992   3.002   3.686 -2.1606  1.2899 -0.6322
   37DOPE   H3S 4682   3.021   2.816   3.713  1.4918 -1.2654 -3.0331
   37DOPE   C24 4683   2.823   2.882   3.684 -0.2956 -0.7348  0.0877
   37DOPE   H4R 4684   2.787   2.783   3.648  0.9171 -0.4288 -2.1054
   37DOPE   H4S 4685   2.763   2.966   3.644  0.2811  0.4695  1.6265
   37DOPE   C25 4686   2.798   2.899   3.835 -0.0467 -0.4488  0.1051
   37DOPE   H5R 4687   2.853   2.992   3.861  0.6527 -0.6578 -0.5972
   37DOPE   H5S 4688   2.832   2.806   3.886 -1.4828 -1.6435 -1.0422
   37DOPE   C26 4689   2.645   2.900   3.854  1.6727 -0.5288  0.7274
   37DOPE   H6R 4690   2.598   2.803   3.827  0.3487 -0.0365  1.1716
   37DOPE   H6S 4691   2.610   2.979   3.784  2.0499 -1.8397 -1.0213
   37DOPE   C27 4692   2.598   2.951   3.991 -0.2372  1.1722  0.4816
   37DOPE   H7R 4693   2.629   3.057   4.006 -1.0999  2.0224 -2.8588
   37DOPE   H7S 4694   2.641   2.880   4.065 -0.8889 -1.6353 -1.6549
   37DOPE   C28 4695   2.438   2.931   4.003 -0.8804  0.0913 -0.6558
   37DOPE   H8R 4696   2.386   2.992   3.926  1.4151  0.8514 -1.6688
   37DOPE   H8S 4697   2.420   2.967   4.107 -0.9096  0.4549 -0.7855
   37DOPE   C29 4698   2.382   2.798   3.970 -0.3442  0.1818  0.4015
   37DOPE   H9R 4699   2.395   2.757   3.869  1.3860  2.1179 -0.2175
   37DOPE  C210 4700   2.318   2.719   4.059 -0.2028  0.3445 -0.2541
   37DOPE  H10R 4701   2.285   2.617   4.033 -0.7085  0.7304 -1.1582
   37DOPE  C211 4702   2.288   2.752   4.198  0.4015 -0.5884  0.1281
   37DOPE  H11R 4703   2.178   2.760   4.196  0.2821 -2.0919 -1.1395
   37DOPE  H11S 4704   2.349   2.833   4.243  1.0567 -0.4697 -0.9394
   37DOPE  C212 4705   2.313   2.644   4.305 -0.5634  0.1696  0.5230
   37DOPE  H12R 4706   2.263   2.548   4.282  1.5084 -1.1356  1.1577
   37DOPE  H12S 4707   2.274   2.663   4.408 -1.2609 -3.6804  1.1084
   37DOPE  C213 4708   2.455   2.599   4.314 -0.5099 -0.8813 -0.2652
   37DOPE  H13R 4709   2.519   2.689   4.304 -0.4244 -1.1613 -2.5992
   37DOPE  H13S 4710   2.489   2.529   4.235 -0.0802 -0.1604 -0.7230
   37DOPE  C214 4711   2.482   2.524   4.445  0.4849  0.4185 -0.0405
   37DOPE  H14R 4712   2.564   2.451   4.429  0.2773  0.1801 -0.0073
   37DOPE  H14S 4713   2.387   2.471   4.467 -0.3072  2.5821  2.2492
   37DOPE  C215 4714   2.512   2.611   4.567  0.1404 -0.3499 -0.1919
   37DOPE  H15R 4715   2.418   2.664   4.595  0.9557  1.5825 -0.9537
   37DOPE  H15S 4716   2.580   2.692   4.534  2.5664 -1.8691  0.7761
   37DOPE  C216 4717   2.578   2.530   4.685  0.6679  0.4650  0.6406
   37DOPE  H16R 4718   2.610   2.601   4.765 -0.5463  1.1632  0.5251
   37DOPE  H16S 4719   2.666   2.483   4.635  1.5353  1.0870  1.5427
   37DOPE  C217 4720   2.480   2.425   4.742 -0.2938 -0.1889 -0.0260
   37DOPE  H17R 4721   2.443   2.369   4.653  2.6632  0.3868 -1.7704
   37DOPE  H17S 4722   2.396   2.484   4.783 -1.5256 -1.6979 -0.3134
   37DOPE  C218 4723   2.530   2.331   4.848 -0.2715 -0.1361 -0.0959
   37DOPE  H18R 4724   2.586   2.249   4.799  1.1324  0.0070  1.2031
   37DOPE  H18S 4725   2.440   2.286   4.894 -0.5450  3.3819  3.3666
   37DOPE  H18T 4726   2.583   2.383   4.930  0.3058  0.3608 -0.7689
   37DOPE   C33 4727   2.971   3.405   3.608  0.2939  0.1339 -0.3713
   37DOPE   H3X 4728   2.950   3.500   3.555 -0.9704  1.1173  1.7432
   37DOPE   H3Y 4729   3.051   3.342   3.564  1.0346  0.4618  0.4735
   37DOPE   C34 4730   3.011   3.450   3.750  0.0775 -0.6203  0.4997
   37DOPE   H4X 4731   2.981   3.374   3.826 -0.1160  0.0450  1.0997
   37DOPE   H4Y 4732   3.121   3.463   3.759  0.1299 -0.3461 -0.4514
   37DOPE   C35 4733   2.948   3.578   3.806 -0.3761  0.7389  0.7187
   37DOPE   H5X 4734   2.838   3.563   3.806 -0.4667  1.3779 -0.0827
   37DOPE   H5Y 4735   2.971   3.660   3.736  1.8952  0.2911  0.8322
   37DOPE   C36 4736   2.997   3.618   3.946  0.4528 -0.0573  0.0185
   37DOPE   H6X 4737   3.108   3.623   3.943  0.4787 -0.7345 -0.2703
   37DOPE   H6Y 4738   2.980   3.541   4.023  1.7430  0.5520  0.9453
   37DOPE   C37 4739   2.954   3.763   3.986 -0.9160  0.8512 -0.0548
   37DOPE   H7X 4740   2.962   3.827   3.896  0.1138  1.9834  0.8038
   37DOPE   H7Y 4741   2.847   3.771   4.012 -0.8009 -0.3147  0.8471
   37DOPE   C38 4742   3.031   3.821   4.110  0.1134  0.4843  0.0893
   37DOPE   H8X 4743   3.027   3.932   4.101 -0.9377  0.4139 -0.4672
   37DOPE   H8Y 4744   3.140   3.798   4.101  0.1439  1.1235 -1.5992
   37DOPE   C39 4745   2.976   3.758   4.239 -0.5727 -0.3982 -0.1377
   37DOPE   H9X 4746   3.008   3.656   4.266  0.8088 -0.0867 -0.4961
   37DOPE  C310 4747   2.890   3.823   4.319  0.1140 -0.1503 -0.4380
   37DOPE  H10X 4748   2.845   3.763   4.399 -1.9113  2.2811  0.3830
   37DOPE  C311 4749   2.838   3.961   4.296 -0.4988  0.1750  0.2487
   37DOPE  H11X 4750   2.895   4.023   4.369  2.4337 -1.0010 -0.8793
   37DOPE  H11Y 4751   2.876   4.007   4.202 -2.6158  0.6931 -0.4157
   37DOPE  C312 4752   2.689   3.967   4.300  0.7210  0.5989 -0.1901
   37DOPE  H12X 4753   2.657   4.074   4.306 -2.5073 -0.3013  0.5402
   37DOPE  H12Y 4754   2.654   3.928   4.398  0.0510  0.9126 -0.2939
   37DOPE  C313 4755   2.615   3.913   4.178 -0.5006  0.0823 -0.2960
   37DOPE  H13X 4756   2.644   3.810   4.149  1.3524  0.2494  0.8332
   37DOPE  H13Y 4757   2.507   3.895   4.200 -0.3174 -4.8928 -2.2013
   37DOPE  C314 4758   2.631   3.995   4.044  0.2195  0.3141 -0.4859
   37DOPE  H14X 4759   2.736   4.030   4.035 -0.9566  3.7019 -3.2188
   37DOPE  H14Y 4760   2.580   4.092   4.062  1.0854  0.7799 -0.5172
   37DOPE  C315 4761   2.596   3.925   3.914  1.0183  0.5222 -0.6588
   37DOPE  H15X 4762   2.502   3.865   3.918 -0.6102  2.6456 -3.4589
   37DOPE  H15Y 4763   2.677   3.851   3.897  0.6969 -0.6178  2.1431
   37DOPE  C316 4764   2.573   4.020   3.798  0.5865  0.3486 -0.6882
   37DOPE  H16X 4765   2.676   4.050   3.766  1.0295 -1.2348 -0.7964
   37DOPE  H16Y 4766   2.525   4.112   3.839 -1.1020 -1.0215  0.5141
   37DOPE  C317 4767   2.492   3.961   3.681  0.5784  0.2697  0.9876
   37DOPE  H17X 4768   2.387   3.929   3.700  0.3501  0.1355 -0.4278
   37DOPE  H17Y 4769   2.487   4.040   3.603  0.4999 -2.5701 -2.0906
   37DOPE  C318 4770   2.562   3.835   3.625  0.0426  0.5157  0.4793
   37DOPE  H18X 4771   2.666   3.858   3.594 -0.8936  2.6539 -1.3675
   37DOPE  H18Y 4772   2.568   3.751   3.697 -1.2633 -1.1932 -1.2891
   37DOPE  H18Z 4773   2.498   3.799   3.541  0.0345  0.9311  0.3092
   38DOPE     N 4774   6.010   5.491   2.777 -0.7514 -0.2118 -0.5865
   38DOPE   HN1 4775   6.059   5.437   2.702 -1.0788 -1.6129  0.1698
   38DOPE   HN2 4776   5.972   5.578   2.734 -2.5488 -0.0892  1.1298
   38DOPE   HN3 4777   6.079   5.522   2.848 -1.2354  0.7682 -0.5206
   38DOPE   C12 4778   5.903   5.391   2.826  0.1962 -0.1203 -0.6062
   38DOPE  H12A 4779   5.953   5.298   2.862  2.9618  1.8114  0.9283
   38DOPE  H12B 4780   5.836   5.365   2.741 -0.8088 -1.0855  0.4564
   38DOPE   C11 4781   5.829   5.454   2.945 -0.0398 -0.3841  0.0063
   38DOPE  H11A 4782   5.899   5.476   3.029 -0.3959 -1.1113  0.5089
   38DOPE  H11B 4783   5.754   5.380   2.983 -0.0731  0.2238  1.1887
   38DOPE     P 4784   5.790   5.722   2.969 -0.2924 -0.2141 -0.0411
   38DOPE   O13 4785   5.724   5.823   2.880  0.0608 -0.5417 -0.3669
   38DOPE   O14 4786   5.936   5.717   2.988 -0.1154  0.5028 -0.5379
   38DOPE   O11 4787   5.719   5.719   3.112  0.2422 -0.4853  0.0903
   38DOPE   O12 4788   5.750   5.575   2.918 -0.6887 -0.8094  0.7342
   38DOPE    C1 4789   5.581   5.696   3.133  0.8264  0.2542  0.4064
   38DOPE    HA 4790   5.564   5.604   3.193 -0.6275  0.7622  0.8227
   38DOPE    HB 4791   5.529   5.696   3.035 -0.6303  2.8390  1.0910
   38DOPE    C2 4792   5.526   5.803   3.225  0.2950 -0.8466  0.5528
   38DOPE    HS 4793   5.530   5.894   3.161 -0.3841  0.1279  1.8485
   38DOPE   O21 4794   5.601   5.822   3.346 -0.1419  0.1940 -0.3514
   38DOPE   C21 4795   5.591   5.944   3.405  0.0027 -0.5326 -0.4311
   38DOPE   O22 4796   5.527   6.036   3.357  0.5677 -0.3761  0.4696
   38DOPE   C22 4797   5.652   5.940   3.545 -0.3283  0.0418 -0.1981
   38DOPE   H2R 4798   5.634   6.039   3.593 -0.6505  0.0222 -0.2763
   38DOPE   H2S 4799   5.760   5.918   3.536 -0.4404 -0.1657 -1.0947
   38DOPE    C3 4800   5.380   5.784   3.258  0.2041 -0.0592 -0.1286
   38DOPE    HX 4801   5.328   5.794   3.160  1.6370  2.3936 -0.7439
   38DOPE    HY 4802   5.347   5.868   3.323  0.4838  0.4199 -0.5917
   38DOPE   O31 4803   5.352   5.664   3.334 -0.4071 -0.2740  0.2243
   38DOPE   C31 4804   5.294   5.558   3.272  0.7069  0.6374  0.7274
   38DOPE   O32 4805   5.293   5.548   3.151  0.3074  0.1170 -0.0586
   38DOPE   C32 4806   5.211   5.475   3.380 -0.0519  0.3055 -0.2080
   38DOPE   H2X 4807   5.131   5.545   3.413  1.4673  1.7932  0.4284
   38DOPE   H2Y 4808   5.174   5.388   3.320 -0.4089 -0.9380  1.7411
   38DOPE   C23 4809   5.583   5.829   3.632 -0.4581  0.2859 -0.1008
   38DOPE   H3R 4810   5.589   5.735   3.574  0.8262  0.3433 -0.0908
   38DOPE   H3S 4811   5.480   5.865   3.648 -0.6180 -0.9742  2.1701
   38DOPE   C24 4812   5.649   5.812   3.770  0.0929 -0.4313  0.1014
   38DOPE   H4R 4813   5.759   5.802   3.765  0.0410 -0.8329 -0.2768
   38DOPE   H4S 4814   5.615   5.723   3.828 -2.5718  0.9549  0.8601
   38DOPE   C25 4815   5.609   5.933   3.850  0.1188  0.0680  0.3801
   38DOPE   H5R 4816   5.498   5.944   3.851  0.2931  3.1246 -1.5234
   38DOPE   H5S 4817   5.647   6.024   3.800  2.0593 -0.3738  0.9395
   38DOPE   C26 4818   5.672   5.942   3.997 -0.2403 -0.0844  0.2238
   38DOPE   H6R 4819   5.782   5.938   3.980 -0.2321 -1.4215  0.5500
   38DOPE   H6S 4820   5.635   5.861   4.062 -0.4834 -1.2716 -1.3282
   38DOPE   C27 4821   5.653   6.083   4.058  0.4619  0.1410  0.2994
   38DOPE   H7R 4822   5.684   6.161   3.984  1.0953  0.0953  0.5112
   38DOPE   H7S 4823   5.718   6.091   4.147  1.8588 -3.0613 -0.3143
   38DOPE   C28 4824   5.507   6.104   4.101 -0.8810  0.2172  0.1600
   38DOPE   H8R 4825   5.441   6.098   4.012  0.9954 -2.8989 -1.1953
   38DOPE   H8S 4826   5.505   6.210   4.133  0.5070 -0.0905  1.3800
   38DOPE   C29 4827   5.450   6.009   4.203 -0.1013  0.5398  0.0370
   38DOPE   H9R 4828   5.439   5.903   4.174 -0.0635  0.1879  1.2308
   38DOPE  C210 4829   5.425   6.030   4.334  0.9221  0.2643  0.2875
   38DOPE  H10R 4830   5.365   5.954   4.386 -0.2330  0.5824 -0.5342
   38DOPE  C211 4831   5.432   6.167   4.394 -0.1545 -0.2706 -0.3243
   38DOPE  H11R 4832   5.332   6.215   4.392 -1.0487 -1.9270  1.5051
   38DOPE  H11S 4833   5.495   6.241   4.340  0.8675 -0.2974  0.7950
   38DOPE  C212 4834   5.484   6.181   4.545 -0.2803 -0.0296  0.2671
   38DOPE  H12R 4835   5.519   6.285   4.559  1.0192 -0.4032 -0.0663
   38DOPE  H12S 4836   5.574   6.117   4.548  0.0982  0.5131  0.8022
   38DOPE  C213 4837   5.385   6.140   4.655  0.2691 -0.1919  0.9611
   38DOPE  H13R 4838   5.352   6.034   4.643 -0.5200  0.2635 -1.6786
   38DOPE  H13S 4839   5.297   6.208   4.652  0.2485 -0.1622 -2.6599
   38DOPE  C214 4840   5.454   6.157   4.793  0.5660 -0.3054 -0.2818
   38DOPE  H14R 4841   5.483   6.263   4.811 -1.5903  0.5762 -1.5187
   38DOPE  H14S 4842   5.540   6.089   4.806  0.5176 -0.3294 -0.0901
   38DOPE  C215 4843   5.350   6.109   4.895 -0.7136 -0.0880 -0.0196
   38DOPE  H15R 4844   5.317   6.006   4.868  0.8822 -1.1171  1.6924
   38DOPE  H15S 4845   5.253   6.164   4.892 -0.6260  0.0874 -3.2906
   38DOPE  C216 4846   5.405   6.110   5.037  0.2432  0.5718  0.1823
   38DOPE  H16R 4847   5.506   6.063   5.035 -0.5050 -1.1037 -0.3485
   38DOPE  H16S 4848   5.339   6.045   5.099 -2.6707  2.4111 -0.8132
   38DOPE  C217 4849   5.417   6.248   5.100  0.4226 -0.0339 -0.5967
   38DOPE  H17R 4850   5.396   6.240   5.209  0.7671 -0.1761 -0.5399
   38DOPE  H17S 4851   5.338   6.323   5.075 -0.0345  0.3794  1.7847
   38DOPE  C218 4852   5.550   6.321   5.084 -0.1528 -0.2116  0.6967
   38DOPE  H18R 4853   5.629   6.245   5.068  0.8387  0.6097  1.5686
   38DOPE  H18S 4854   5.581   6.386   5.168 -0.8443 -0.6214  1.2853
   38DOPE  H18T 4855   5.539   6.383   4.993 -0.1854 -0.9584  0.1779
   38DOPE   C33 4856   5.278   5.436   3.511  0.0830 -0.4786 -0.0076
   38DOPE   H3X 4857   5.341   5.522   3.539  3.3013 -2.8782  0.7002
   38DOPE   H3Y 4858   5.349   5.360   3.472 -1.2927 -0.1134 -3.6747
   38DOPE   C34 4859   5.195   5.382   3.625 -0.0995  0.4712 -0.0990
   38DOPE   H4X 4860   5.109   5.318   3.594  0.0114 -0.6768  1.8270
   38DOPE   H4Y 4861   5.273   5.339   3.690  0.9211  2.9735  0.4378
   38DOPE   C35 4862   5.148   5.496   3.713  0.0656 -0.0100 -0.4667
   38DOPE   H5X 4863   5.077   5.564   3.661 -1.7730 -0.5430  1.2388
   38DOPE   H5Y 4864   5.228   5.563   3.753 -1.7173  0.8815  1.8874
   38DOPE   C36 4865   5.064   5.439   3.833  0.3788 -0.9166  0.1726
   38DOPE   H6X 4866   5.130   5.371   3.891  2.5920  1.2777  0.3548
   38DOPE   H6Y 4867   4.972   5.378   3.818  0.2838 -0.5767 -0.6895
   38DOPE   C37 4868   5.024   5.548   3.933 -0.0339 -0.9809 -0.4437
   38DOPE   H7X 4869   5.113   5.592   3.982 -0.1635 -0.5457 -0.5961
   38DOPE   H7Y 4870   4.974   5.639   3.892  1.8444  0.7503  0.9190
   38DOPE   C38 4871   4.929   5.494   4.045  0.5146 -0.0752 -0.2102
   38DOPE   H8X 4872   4.977   5.402   4.085  0.8276 -0.0676 -0.5657
   38DOPE   H8Y 4873   4.832   5.469   3.997  0.6354  1.6133 -1.4383
   38DOPE   C39 4874   4.882   5.595   4.149  0.3223 -0.1735  0.4382
   38DOPE   H9X 4875   4.825   5.675   4.101  1.0154  1.9573  2.9475
   38DOPE  C310 4876   4.891   5.600   4.284 -0.1845  0.0780  0.6161
   38DOPE  H10X 4877   4.836   5.680   4.335  0.6169  0.7505  0.4570
   38DOPE  C311 4878   4.948   5.508   4.382 -0.1863  0.8476  0.1378
   38DOPE  H11X 4879   4.873   5.477   4.458 -1.1541 -0.7592 -1.3875
   38DOPE  H11Y 4880   4.973   5.414   4.327  1.2062 -0.1225  2.2925
   38DOPE  C312 4881   5.078   5.558   4.446  0.1781 -0.0547  0.1368
   38DOPE  H12X 4882   5.119   5.475   4.507  0.3763  0.1519  0.2897
   38DOPE  H12Y 4883   5.047   5.646   4.507  0.4304  1.0095 -1.2304
   38DOPE  C313 4884   5.187   5.610   4.350 -0.0808  0.0401  0.0056
   38DOPE  H13X 4885   5.157   5.708   4.306  0.1824  1.0614  2.0165
   38DOPE  H13Y 4886   5.274   5.627   4.416  0.3412  1.8534 -0.9578
   38DOPE  C314 4887   5.235   5.503   4.244  0.4638 -0.3168 -0.0909
   38DOPE  H14X 4888   5.166   5.498   4.157  0.7893 -1.1188 -0.3088
   38DOPE  H14Y 4889   5.250   5.403   4.291  0.6242 -0.1687  0.1791
   38DOPE  C315 4890   5.355   5.555   4.180 -0.0274  0.4555  0.5839
   38DOPE  H15X 4891   5.434   5.553   4.259 -0.3252  0.1313  0.8790
   38DOPE  H15Y 4892   5.339   5.658   4.141 -0.5844  0.3392  0.4945
   38DOPE  C316 4893   5.403   5.456   4.065 -0.2696  0.0472 -0.1894
   38DOPE  H16X 4894   5.325   5.457   3.986 -1.8179 -0.1309  1.2743
   38DOPE  H16Y 4895   5.404   5.348   4.091 -0.8587 -0.4322 -2.0429
   38DOPE  C317 4896   5.540   5.495   4.001 -0.0562  0.2309 -0.4905
   38DOPE  H17X 4897   5.537   5.456   3.896  0.2707  2.3251 -1.3229
   38DOPE  H17Y 4898   5.551   5.604   3.987 -0.7096  0.5365  1.2473
   38DOPE  C318 4899   5.661   5.444   4.072 -0.5875 -0.1287 -0.1218
   38DOPE  H18X 4900   5.687   5.337   4.057 -0.9940 -0.0280 -1.6546
   38DOPE  H18Y 4901   5.750   5.501   4.037  0.0487 -0.6714  0.5497
   38DOPE  H18Z 4902   5.646   5.466   4.180 -0.0608  0.0866 -0.0870
   39DOPE     N 4903   1.098   4.072   2.568 -0.4531  0.5953 -0.2217
   39DOPE   HN1 4904   1.167   4.024   2.629  0.9016  3.0704  0.3198
   39DOPE   HN2 4905   1.062   4.003   2.499  1.0631 -0.1874 -0.2691
   39DOPE   HN3 4906   1.136   4.147   2.506 -1.2424 -0.5368 -2.1892
   39DOPE   C12 4907   0.986   4.121   2.657 -0.0640  0.1642  0.0902
   39DOPE  H12A 4908   1.016   4.120   2.764 -3.4889  2.0315  1.2373
   39DOPE  H12B 4909   0.909   4.040   2.657 -0.0441  0.1365 -0.6557
   39DOPE   C11 4910   0.925   4.258   2.610  0.5345  0.1470 -0.1363
   39DOPE  H11A 4911   0.990   4.347   2.622  0.9925 -0.2090  0.0300
   39DOPE  H11B 4912   0.834   4.279   2.671 -0.9199  1.1212 -2.5012
   39DOPE     P 4913   0.870   4.375   2.376 -0.3200 -0.0473 -0.2449
   39DOPE   O13 4914   0.852   4.340   2.234 -0.1073 -0.4164  0.7195
   39DOPE   O14 4915   0.984   4.461   2.405  0.7132  0.0175  0.2374
   39DOPE   O11 4916   0.734   4.440   2.428  0.2678  0.1144 -0.6828
   39DOPE   O12 4917   0.888   4.245   2.468  0.4444 -0.6336 -0.7037
   39DOPE    C1 4918   0.613   4.376   2.470 -0.1711  0.0978 -0.1141
   39DOPE    HA 4919   0.636   4.298   2.545  0.6462  1.3902  1.0247
   39DOPE    HB 4920   0.567   4.333   2.378 -0.7979 -0.2980  0.3746
   39DOPE    C2 4921   0.522   4.485   2.533 -0.5667 -0.3827 -0.1011
   39DOPE    HS 4922   0.533   4.580   2.476  0.5646 -0.8326 -0.6627
   39DOPE   O21 4923   0.581   4.515   2.660  0.1571  0.8238  0.3253
   39DOPE   C21 4924   0.540   4.619   2.729  0.6805  0.0637  0.3010
   39DOPE   O22 4925   0.443   4.692   2.696 -0.2525  0.4533 -0.3371
   39DOPE   C22 4926   0.623   4.648   2.850 -0.8930 -0.2214 -0.5876
   39DOPE   H2R 4927   0.656   4.754   2.851 -2.7698  0.3848  0.2616
   39DOPE   H2S 4928   0.715   4.585   2.843  0.6888  2.0462 -1.5576
   39DOPE    C3 4929   0.376   4.434   2.542 -0.0374 -0.5870 -0.7418
   39DOPE    HX 4930   0.332   4.416   2.441 -0.2956  1.3124 -1.0053
   39DOPE    HY 4931   0.314   4.514   2.587 -2.2993 -0.4664 -3.7305
   39DOPE   O31 4932   0.370   4.309   2.618  0.1092  0.0766 -0.3583
   39DOPE   C31 4933   0.323   4.313   2.747  0.5473  0.0829  0.0619
   39DOPE   O32 4934   0.286   4.415   2.804 -0.9611 -0.0124 -0.0181
   39DOPE   C32 4935   0.328   4.182   2.807 -0.0652  0.5616 -0.4494
   39DOPE   H2X 4936   0.273   4.171   2.903  0.1013 -1.9654 -0.5997
   39DOPE   H2Y 4937   0.284   4.105   2.741  0.1461  0.6570 -0.7007
   39DOPE   C23 4938   0.564   4.615   2.986  0.6405 -0.0397 -0.1455
   39DOPE   H3R 4939   0.531   4.510   2.997 -0.1122  0.2272  0.2214
   39DOPE   H3S 4940   0.482   4.688   3.004  2.6240  2.2615  0.0385
   39DOPE   C24 4941   0.659   4.630   3.105  0.1805  0.2899  0.0563
   39DOPE   H4R 4942   0.740   4.555   3.092  0.0877  0.2496 -0.3221
   39DOPE   H4S 4943   0.599   4.612   3.196  0.3039 -1.1234 -0.1234
   39DOPE   C25 4944   0.703   4.774   3.124  0.0899  0.7405 -0.2389
   39DOPE   H5R 4945   0.613   4.837   3.107 -1.3321 -1.7592 -2.9492
   39DOPE   H5S 4946   0.764   4.803   3.035 -2.7490  0.3473 -2.4769
   39DOPE   C26 4947   0.781   4.804   3.257 -1.2996 -0.4517  0.3971
   39DOPE   H6R 4948   0.845   4.894   3.246 -1.7550 -0.2093 -0.3459
   39DOPE   H6S 4949   0.847   4.718   3.281 -2.0449 -0.6788  1.7391
   39DOPE   C27 4950   0.680   4.835   3.368 -0.3304  0.0291  0.0901
   39DOPE   H7R 4951   0.586   4.778   3.352  1.2421 -2.1659 -2.1498
   39DOPE   H7S 4952   0.649   4.941   3.368  1.2594  0.5349 -1.3097
   39DOPE   C28 4953   0.742   4.789   3.505  0.0165 -0.2490  0.0208
   39DOPE   H8R 4954   0.787   4.689   3.492  1.0879  0.1038  0.8082
   39DOPE   H8S 4955   0.653   4.763   3.567  0.3128 -0.0705  0.5324
   39DOPE   C29 4956   0.844   4.876   3.570 -0.0001  0.1798  0.2780
   39DOPE   H9R 4957   0.912   4.928   3.501  0.1062 -0.9148 -0.4851
   39DOPE  C210 4958   0.864   4.889   3.704  0.1368  0.5110 -1.0282
   39DOPE  H10R 4959   0.943   4.956   3.740  0.5558 -0.2980 -0.3880
   39DOPE  C211 4960   0.796   4.829   3.824 -0.2290  0.0115 -0.1545
   39DOPE  H11R 4961   0.690   4.808   3.797  0.6225 -0.4331 -3.7117
   39DOPE  H11S 4962   0.813   4.886   3.918  0.6319 -3.2705  1.8370
   39DOPE  C212 4963   0.857   4.698   3.868 -0.6672  0.4931  0.2689
   39DOPE  H12R 4964   0.960   4.712   3.909 -0.3394 -1.0001  0.0181
   39DOPE  H12S 4965   0.874   4.633   3.780  2.8112  1.7585 -0.1521
   39DOPE  C213 4966   0.784   4.636   3.987 -1.1419 -0.2535 -0.2317
   39DOPE  H13R 4967   0.846   4.553   4.027  1.5523  1.6871 -0.0934
   39DOPE  H13S 4968   0.684   4.601   3.954 -1.0432 -0.4956 -0.2722
   39DOPE  C214 4969   0.757   4.720   4.102  0.0480 -0.7720 -0.4779
   39DOPE  H14R 4970   0.693   4.810   4.089 -0.6840 -1.2231 -0.0380
   39DOPE  H14S 4971   0.857   4.762   4.129 -0.2884  0.5350 -1.1972
   39DOPE  C215 4972   0.684   4.656   4.224  0.5316 -0.3419 -0.6369
   39DOPE  H15R 4973   0.759   4.593   4.276  0.2675  0.2867  0.5383
   39DOPE  H15S 4974   0.604   4.588   4.186 -1.4561  0.5495  1.7065
   39DOPE  C216 4975   0.609   4.749   4.327 -0.4484  0.1203  0.1151
   39DOPE  H16R 4976   0.571   4.695   4.417 -0.1872 -0.8747 -0.3557
   39DOPE  H16S 4977   0.525   4.791   4.267 -1.0774 -2.2084 -0.7466
   39DOPE  C217 4978   0.687   4.872   4.385 -0.2160 -0.2386  0.1749
   39DOPE  H17R 4979   0.738   4.927   4.303 -0.1719  1.6535  1.3914
   39DOPE  H17S 4980   0.768   4.840   4.453  0.9065  0.5843 -0.7365
   39DOPE  C218 4981   0.599   4.979   4.458  0.0024  0.6961 -0.0905
   39DOPE  H18R 4982   0.664   5.052   4.511 -0.0568 -0.4734  1.6724
   39DOPE  H18S 4983   0.550   4.933   4.546  2.7120  0.8750  1.6346
   39DOPE  H18T 4984   0.530   5.031   4.389 -0.2552  1.4020  0.6815
   39DOPE   C33 4985   0.477   4.146   2.846 -0.1617 -0.2167 -0.9689
   39DOPE   H3X 4986   0.552   4.181   2.773  1.4614 -0.1482  0.6663
   39DOPE   H3Y 4987   0.479   4.035   2.845 -0.5798 -0.2694  0.7911
   39DOPE   C34 4988   0.503   4.178   2.993 -0.1489 -0.2686  0.5512
   39DOPE   H4X 4989   0.443   4.267   3.020 -1.2233 -0.6287 -0.5322
   39DOPE   H4Y 4990   0.473   4.094   3.059  1.8753 -0.7729  0.8935
   39DOPE   C35 4991   0.647   4.195   3.035 -0.0932 -0.4970 -0.8198
   39DOPE   H5X 4992   0.688   4.282   2.980  0.6073 -1.8114 -2.4406
   39DOPE   H5Y 4993   0.712   4.107   3.015  1.9578  0.9638 -0.8315
   39DOPE   C36 4994   0.649   4.212   3.188 -0.4742 -0.0058 -0.2472
   39DOPE   H6X 4995   0.610   4.120   3.236  1.8021 -0.8662  0.0900
   39DOPE   H6Y 4996   0.590   4.304   3.209  1.4257  1.7124 -1.9602
   39DOPE   C37 4997   0.791   4.241   3.240 -0.0024 -0.1132 -0.9738
   39DOPE   H7X 4998   0.852   4.152   3.217  1.5947  1.2270 -2.1755
   39DOPE   H7Y 4999   0.840   4.325   3.186 -0.9817  1.0191 -0.1690
   39DOPE   C38 5000   0.793   4.276   3.393  0.1317  0.1274 -0.0873
   39DOPE   H8X 5001   0.901   4.268   3.417 -0.4986 -1.0200  2.7277
   39DOPE   H8Y 5002   0.746   4.191   3.447  1.7540  0.0618  1.2827
   39DOPE   C39 5003   0.735   4.411   3.428  0.3664 -0.4294  0.4769
   39DOPE   H9X 5004   0.743   4.503   3.367 -0.4332  0.7943  2.1340
   39DOPE  C310 5005   0.660   4.422   3.536 -0.5410 -0.2031  0.5332
   39DOPE  H10X 5006   0.615   4.522   3.549 -0.3867 -0.2344  1.3874
   39DOPE  C311 5007   0.617   4.327   3.642 -0.0590  0.8196 -0.4856
   39DOPE  H11X 5008   0.520   4.346   3.693  0.1141  0.5556 -0.0481
   39DOPE  H11Y 5009   0.603   4.223   3.606 -1.3051  0.0846  1.9388
   39DOPE  C312 5010   0.726   4.311   3.751  0.5713  0.1097  0.2800
   39DOPE  H12X 5011   0.714   4.395   3.823 -3.9605  0.4381 -0.5119
   39DOPE  H12Y 5012   0.829   4.300   3.712 -0.2982 -1.6935 -1.6836
   39DOPE  C313 5013   0.719   4.175   3.823  0.6890  0.4552 -0.5789
   39DOPE  H13X 5014   0.652   4.189   3.911 -0.4772 -2.5297 -0.8505
   39DOPE  H13Y 5015   0.676   4.094   3.760  1.2566  0.7383 -1.3359
   39DOPE  C314 5016   0.858   4.122   3.868 -0.7303  0.3094 -0.6086
   39DOPE  H14X 5017   0.913   4.208   3.912  1.6915 -2.1460  1.4886
   39DOPE  H14Y 5018   0.918   4.073   3.788 -0.5600 -1.1991  0.3966
   39DOPE  C315 5019   0.851   4.010   3.976 -0.5819  0.2352  0.0478
   39DOPE  H15X 5020   0.874   3.922   3.912 -1.7115  0.4747 -0.6988
   39DOPE  H15Y 5021   0.760   4.006   4.039  1.4657 -1.4392  3.2005
   39DOPE  C316 5022   0.968   4.028   4.080 -0.0372 -0.2473 -0.5465
   39DOPE  H16X 5023   0.959   3.947   4.156 -0.4747 -0.1897 -0.5360
   39DOPE  H16Y 5024   0.982   4.128   4.125 -2.5464  0.0540 -0.2868
   39DOPE  C317 5025   1.114   4.010   4.015  0.3310 -0.2311 -0.8426
   39DOPE  H17X 5026   1.102   3.920   3.950 -0.5564 -2.9963  2.8389
   39DOPE  H17Y 5027   1.134   4.103   3.958  0.4581 -0.3464 -0.9880
   39DOPE  C318 5028   1.221   3.984   4.111 -0.8860  0.0174 -0.3846
   39DOPE  H18X 5029   1.259   4.074   4.163 -0.6467 -0.4292  0.2242
   39DOPE  H18Y 5030   1.199   3.916   4.196  2.0263  0.1570  0.5876
   39DOPE  H18Z 5031   1.309   3.943   4.058 -0.6478  0.2265 -0.1511
   40DOPE     N 5032   4.453   0.355   3.105  0.8427  0.0885 -0.3099
   40DOPE   HN1 5033   4.393   0.310   3.033 -0.1973  0.4763  0.2903
   40DOPE   HN2 5034   4.465   0.456   3.082 -1.8491  0.8642  1.1820
   40DOPE   HN3 5035   4.549   0.316   3.110  0.8943  0.3296  0.7696
   40DOPE   C12 5036   4.402   0.349   3.248 -0.0289  0.2971  0.0403
   40DOPE  H12A 5037   4.322   0.425   3.263 -0.4668 -0.2296  0.4451
   40DOPE  H12B 5038   4.486   0.360   3.320  1.6922 -2.0621 -1.4540
   40DOPE   C11 5039   4.333   0.221   3.271 -0.2707 -0.2460  0.6673
   40DOPE  H11A 5040   4.285   0.221   3.372  1.1097 -2.1027  1.3906
   40DOPE  H11B 5041   4.416   0.147   3.278 -0.9198 -1.2326 -1.4269
   40DOPE     P 5042   4.208   0.056   3.123  0.3369 -0.0201 -0.1174
   40DOPE   O13 5043   4.320   0.008   3.038  0.2579 -0.4696  0.1071
   40DOPE   O14 5044   4.072   0.032   3.071  0.3411  0.6551  0.4274
   40DOPE   O11 5045   4.218  -0.018   3.266  0.3621  0.1058  0.2161
   40DOPE   O12 5046   4.236   0.199   3.165  0.2082  0.1720 -0.3101
   40DOPE    C1 5047   4.097  -0.021   3.343  0.8110  0.1760 -0.6019
   40DOPE    HA 5048   4.002  -0.060   3.301  0.1998 -1.2949  1.9252
   40DOPE    HB 5049   4.070   0.081   3.378  0.5032 -0.9330  2.7563
   40DOPE    C2 5050   4.123  -0.097   3.478  0.1253  0.6318 -0.5881
   40DOPE    HS 5051   4.027  -0.076   3.530 -1.0272  0.5884 -2.6118
   40DOPE   O21 5052   4.233  -0.039   3.547  0.1227 -0.3137  0.2112
   40DOPE   C21 5053   4.211   0.083   3.601 -0.3203  0.1257 -0.5046
   40DOPE   O22 5054   4.100   0.137   3.608 -0.5692  0.2966 -0.4613
   40DOPE   C22 5055   4.345   0.145   3.653  0.3068  0.0893 -0.2417
   40DOPE   H2R 5056   4.339   0.256   3.657  0.4703  0.2360 -2.6148
   40DOPE   H2S 5057   4.414   0.129   3.567 -0.9031  0.0240 -1.2395
   40DOPE    C3 5058   4.144  -0.247   3.454 -0.1108 -0.1861 -0.1614
   40DOPE    HX 5059   4.229  -0.271   3.387 -0.4355  0.3343 -0.7768
   40DOPE    HY 5060   4.051  -0.286   3.407 -0.0356  3.7841 -4.2541
   40DOPE   O31 5061   4.152  -0.317   3.582 -0.0931 -0.1352 -0.2341
   40DOPE   C31 5062   4.272  -0.359   3.613 -1.2140  0.1366 -0.7963
   40DOPE   O32 5063   4.374  -0.341   3.544 -0.2618  0.7582 -0.2173
   40DOPE   C32 5064   4.283  -0.416   3.755  0.1898 -0.2796  0.0445
   40DOPE   H2X 5065   4.233  -0.516   3.755  1.8723 -1.1686  0.6382
   40DOPE   H2Y 5066   4.392  -0.433   3.769  0.4859  1.1804 -0.3275
   40DOPE   C23 5067   4.388   0.072   3.788  0.5553 -0.1028 -0.6489
   40DOPE   H3R 5068   4.492   0.099   3.813  0.1356 -0.6043  1.9317
   40DOPE   H3S 5069   4.387  -0.038   3.779 -0.9059 -0.0818 -1.0366
   40DOPE   C24 5070   4.304   0.110   3.910  0.6017 -0.3298  0.0740
   40DOPE   H4R 5071   4.325   0.046   3.998  0.3729 -1.1811 -0.4831
   40DOPE   H4S 5072   4.198   0.114   3.880  0.3395  2.1908  1.1109
   40DOPE   C25 5073   4.331   0.259   3.951 -0.1174 -0.1142 -0.3624
   40DOPE   H5R 5074   4.282   0.328   3.878 -0.0068  1.5642  1.0863
   40DOPE   H5S 5075   4.442   0.270   3.952  0.0751 -1.1780 -2.8259
   40DOPE   C26 5076   4.292   0.276   4.099  0.1752  0.0513 -0.2659
   40DOPE   H6R 5077   4.305   0.180   4.155  1.3686  0.2912 -0.1012
   40DOPE   H6S 5078   4.185   0.304   4.090 -0.5986 -2.5452 -0.1923
   40DOPE   C27 5079   4.358   0.386   4.174 -0.0353  0.4033 -0.7516
   40DOPE   H7R 5080   4.343   0.489   4.137  0.1757  0.7782  0.1710
   40DOPE   H7S 5081   4.465   0.361   4.161 -0.3902 -1.6584 -0.0994
   40DOPE   C28 5082   4.321   0.396   4.326 -0.2071  0.2373 -0.0709
   40DOPE   H8R 5083   4.358   0.499   4.347  0.4653  0.3592 -1.7007
   40DOPE   H8S 5084   4.388   0.332   4.388  3.0251  0.7858 -2.7644
   40DOPE   C29 5085   4.174   0.386   4.357 -0.3788  0.2437 -0.8567
   40DOPE   H9R 5086   4.108   0.445   4.292  0.3157  1.4700 -0.4933
   40DOPE  C210 5087   4.116   0.316   4.453  0.0978 -0.4622 -0.5529
   40DOPE  H10R 5088   4.007   0.327   4.462  0.2954  1.2467  0.0291
   40DOPE  C211 5089   4.191   0.233   4.559  0.2450 -0.0691 -0.1304
   40DOPE  H11R 5090   4.243   0.300   4.631 -0.6382 -2.9028  3.4281
   40DOPE  H11S 5091   4.269   0.173   4.508  0.5687 -2.2437  2.7324
   40DOPE  C212 5092   4.105   0.127   4.630  0.2302  0.0341 -0.0528
   40DOPE  H12R 5093   4.156   0.037   4.669 -2.8006 -2.6221 -1.7787
   40DOPE  H12S 5094   4.022   0.092   4.564 -0.7027 -0.4909  1.3525
   40DOPE  C213 5095   4.027   0.187   4.751 -0.3676 -0.2501 -0.0191
   40DOPE  H13R 5096   3.948   0.259   4.718  0.0302 -0.3392 -1.2138
   40DOPE  H13S 5097   4.093   0.243   4.820 -1.0546 -0.4490  0.8153
   40DOPE  C214 5098   3.961   0.073   4.836 -0.4773 -0.6222  0.7769
   40DOPE  H14R 5099   4.043   0.000   4.853  1.7191  1.6974  0.6667
   40DOPE  H14S 5100   3.888   0.019   4.771 -1.0424  0.4976  0.4591
   40DOPE  C215 5101   3.873   0.128   4.951  0.6231  1.5081 -1.2607
   40DOPE  H15R 5102   3.792   0.192   4.910  0.5418  0.7039 -2.3832
   40DOPE  H15S 5103   3.941   0.193   5.010  0.7821 -0.4666  0.8694
   40DOPE  C216 5104   3.833   0.018   5.055 -0.0583 -0.1055  0.3586
   40DOPE  H16R 5105   3.929  -0.007   5.105 -0.9332  1.8714  3.3278
   40DOPE  H16S 5106   3.787  -0.064   4.996 -0.6250  1.9428 -2.1885
   40DOPE  C217 5107   3.730   0.072   5.157 -0.1908  0.4882 -0.3216
   40DOPE  H17R 5108   3.675  -0.014   5.201 -1.0040  1.0859 -0.1483
   40DOPE  H17S 5109   3.658   0.121   5.089 -1.5408 -0.8051  0.1030
   40DOPE  C218 5110   3.794   0.167   5.261  0.0733  0.5833  0.1417
   40DOPE  H18R 5111   3.713   0.209   5.323 -1.4668 -0.1559 -1.2766
   40DOPE  H18S 5112   3.843   0.256   5.215 -0.9723  0.7584 -0.6832
   40DOPE  H18T 5113   3.862   0.117   5.334 -0.5065 -0.1632  0.1843
   40DOPE   C33 5114   4.239  -0.326   3.883  0.0754  0.0202  0.1816
   40DOPE   H3X 5115   4.135  -0.292   3.867  0.0779 -0.2625 -0.4434
   40DOPE   H3Y 5116   4.297  -0.233   3.862 -0.2009 -0.4949 -3.3413
   40DOPE   C34 5117   4.283  -0.377   4.022 -0.0266  0.0101  0.6212
   40DOPE   H4X 5118   4.232  -0.470   4.054  0.1178 -0.0687  0.6265
   40DOPE   H4Y 5119   4.393  -0.392   4.015 -0.0820 -0.1214 -0.0422
   40DOPE   C35 5120   4.248  -0.272   4.136  0.2706  0.6850  0.2762
   40DOPE   H5X 5121   4.142  -0.240   4.134  0.1710  0.4235  1.0157
   40DOPE   H5Y 5122   4.323  -0.190   4.124  1.1308 -0.0394  0.5489
   40DOPE   C36 5123   4.284  -0.325   4.276  0.2675  0.0919  0.2331
   40DOPE   H6X 5124   4.379  -0.384   4.274  0.5117  0.5098 -1.4761
   40DOPE   H6Y 5125   4.203  -0.400   4.291 -0.8746  1.2814  0.1185
   40DOPE   C37 5126   4.290  -0.226   4.395 -0.1655 -0.6663  0.6950
   40DOPE   H7X 5127   4.356  -0.141   4.368 -0.9104  0.5510  2.5046
   40DOPE   H7Y 5128   4.195  -0.173   4.415  1.3790  1.7277  2.2832
   40DOPE   C38 5129   4.353  -0.291   4.520  0.0634 -0.3504 -0.1606
   40DOPE   H8X 5130   4.442  -0.338   4.473  0.5450 -0.8938  1.2514
   40DOPE   H8Y 5131   4.286  -0.371   4.558 -3.0923  2.4653  0.6701
   40DOPE   C39 5132   4.373  -0.195   4.635 -0.7808 -0.0920 -0.8257
   40DOPE   H9X 5133   4.285  -0.148   4.682  0.4783 -0.7397  2.5112
   40DOPE  C310 5134   4.492  -0.174   4.697 -0.5082 -0.4901 -0.1235
   40DOPE  H10X 5135   4.496  -0.109   4.786 -1.6619  1.6417 -1.5430
   40DOPE  C311 5136   4.628  -0.237   4.663 -0.3179 -0.8889  0.5414
   40DOPE  H11X 5137   4.604  -0.329   4.605 -1.0362 -0.1562 -0.3562
   40DOPE  H11Y 5138   4.679  -0.178   4.584 -1.5441 -0.3214  0.1592
   40DOPE  C312 5139   4.727  -0.272   4.779  0.5898 -0.0280  0.0827
   40DOPE  H12X 5140   4.741  -0.168   4.814 -1.4060  1.0296 -2.0446
   40DOPE  H12Y 5141   4.825  -0.313   4.746  0.6950  0.7433 -0.5775
   40DOPE  C313 5142   4.672  -0.362   4.890 -0.0853  0.3011  0.2686
   40DOPE  H13X 5143   4.566  -0.329   4.898  0.3213  2.8859 -2.8118
   40DOPE  H13Y 5144   4.673  -0.471   4.871  0.3982  0.1300  1.2806
   40DOPE  C314 5145   4.743  -0.324   5.027  0.3550 -0.6327 -1.1153
   40DOPE  H14X 5146   4.852  -0.317   5.007 -0.0457 -1.2505 -3.9875
   40DOPE  H14Y 5147   4.737  -0.410   5.097  0.6536  1.9980  2.4138
   40DOPE  C315 5148   4.701  -0.190   5.094 -0.4164  0.0213  0.3194
   40DOPE  H15X 5149   4.594  -0.184   5.124 -0.6638  2.3483 -0.7460
   40DOPE  H15Y 5150   4.726  -0.116   5.015 -0.6461  0.8187  0.9713
   40DOPE  C316 5151   4.793  -0.151   5.217 -0.1248  0.9397 -0.3455
   40DOPE  H16X 5152   4.784  -0.042   5.232  0.4452  0.7558  1.5858
   40DOPE  H16Y 5153   4.903  -0.161   5.202 -0.2331  0.9608 -1.2309
   40DOPE  C317 5154   4.759  -0.217   5.355 -0.2468 -0.3391 -0.3715
   40DOPE  H17X 5155   4.652  -0.192   5.371 -0.0317 -0.7535  2.2073
   40DOPE  H17Y 5156   4.778  -0.326   5.349  1.6847 -0.0664  0.0328
   40DOPE  C318 5157   4.862  -0.162   5.452 -0.4838 -0.3183 -0.6037
   40DOPE  H18X 5158   4.854  -0.051   5.462 -0.8960 -0.5022  1.5880
   40DOPE  H18Y 5159   4.846  -0.205   5.553 -0.7119  1.0611 -0.0209
   40DOPE  H18Z 5160   4.962  -0.186   5.410 -1.1013 -0.8689 -1.7980
   41DOPE     N 5161   3.002   5.994   2.442  0.2252 -0.4860  0.0402
   41DOPE   HN1 5162   3.047   6.026   2.354 -4.2035 -0.0297 -2.3205
   41DOPE   HN2 5163   2.899   5.979   2.439  0.5322 -3.3111  0.5853
   41DOPE   HN3 5164   3.036   6.052   2.521 -1.7590  1.1109 -0.2204
   41DOPE   C12 5165   3.065   5.861   2.443  0.3881 -0.0688 -0.5878
   41DOPE  H12A 5166   3.167   5.855   2.400  2.2659 -2.3312  3.5818
   41DOPE  H12B 5167   3.002   5.798   2.377 -0.2059 -1.3524  1.1162
   41DOPE   C11 5168   3.076   5.807   2.590 -0.0197 -0.0106 -0.0801
   41DOPE  H11A 5169   3.092   5.697   2.593 -0.3796 -0.0486  2.1063
   41DOPE  H11B 5170   2.983   5.823   2.648  1.9090 -1.4991  3.7387
   41DOPE     P 5171   3.325   5.818   2.677 -0.1907  0.1456  0.0582
   41DOPE   O13 5172   3.417   5.918   2.738  0.5340  0.0036  0.3047
   41DOPE   O14 5173   3.369   5.750   2.555  0.0542 -0.5297  0.3275
   41DOPE   O11 5174   3.293   5.709   2.786  0.4294  0.2494  0.7025
   41DOPE   O12 5175   3.175   5.884   2.658 -0.7240 -0.0942  0.8680
   41DOPE    C1 5176   3.240   5.747   2.918 -0.1971 -0.3899  0.2065
   41DOPE    HA 5177   3.239   5.858   2.931 -0.2319 -0.5210  1.3777
   41DOPE    HB 5178   3.307   5.716   3.001 -0.7353  0.6703  1.0616
   41DOPE    C2 5179   3.105   5.676   2.941  1.2246 -0.3697  0.4406
   41DOPE    HS 5180   3.036   5.715   2.864 -0.1517 -1.0943  1.2765
   41DOPE   O21 5181   3.050   5.722   3.069 -0.2442  0.0991  0.1763
   41DOPE   C21 5182   2.919   5.716   3.081  0.3441  0.4298 -0.2679
   41DOPE   O22 5183   2.843   5.664   3.000 -0.0870 -0.6281  0.9716
   41DOPE   C22 5184   2.862   5.789   3.202 -0.2007 -0.3988 -0.0624
   41DOPE   H2R 5185   2.779   5.855   3.171  1.0381  1.3171  0.1114
   41DOPE   H2S 5186   2.939   5.846   3.258  1.5019  0.3878 -2.9904
   41DOPE    C3 5187   3.105   5.517   2.918 -0.0470  0.2169  0.1894
   41DOPE    HX 5188   3.142   5.495   2.816  2.1030  0.9253  0.7586
   41DOPE    HY 5189   3.002   5.479   2.937  0.5670 -1.5155  0.2681
   41DOPE   O31 5190   3.192   5.452   3.007  0.5732 -0.2389  0.0359
   41DOPE   C31 5191   3.149   5.415   3.127 -0.6248 -0.2667  0.2579
   41DOPE   O32 5192   3.033   5.414   3.166  0.0275 -0.0647 -0.0563
   41DOPE   C32 5193   3.256   5.368   3.214  0.8164 -0.0584 -0.6702
   41DOPE   H2X 5194   3.347   5.409   3.166  1.4734  0.4315  0.9332
   41DOPE   H2Y 5195   3.245   5.422   3.310 -0.5559  1.4163 -1.6096
   41DOPE   C23 5196   2.801   5.694   3.312 -0.2018  0.5003 -0.0405
   41DOPE   H3R 5197   2.876   5.616   3.337  0.9518  1.4996 -0.3073
   41DOPE   H3S 5198   2.704   5.647   3.282  0.7793 -0.9164 -1.1630
   41DOPE   C24 5199   2.777   5.774   3.442 -0.2625  0.1353 -0.5474
   41DOPE   H4R 5200   2.720   5.862   3.406 -0.0468 -0.8028 -3.4334
   41DOPE   H4S 5201   2.870   5.822   3.481 -0.3886  0.4559 -0.6400
   41DOPE   C25 5202   2.713   5.695   3.555 -0.0635  0.6844  0.2326
   41DOPE   H5R 5203   2.759   5.594   3.566 -2.0401 -0.0795  2.3132
   41DOPE   H5S 5204   2.608   5.675   3.526  0.1257  0.0789 -0.0689
   41DOPE   C26 5205   2.725   5.755   3.695  0.2352 -0.3537  0.0565
   41DOPE   H6R 5206   2.642   5.707   3.751  0.6303 -0.3805  0.6342
   41DOPE   H6S 5207   2.702   5.863   3.693 -0.3549 -0.4738 -2.2771
   41DOPE   C27 5208   2.849   5.727   3.777 -0.9587 -0.0082 -0.7196
   41DOPE   H7R 5209   2.931   5.743   3.704  1.5098 -0.8414  1.7013
   41DOPE   H7S 5210   2.855   5.616   3.787 -1.7246 -0.1098 -1.3106
   41DOPE   C28 5211   2.879   5.804   3.905  0.1876 -0.2222  0.0172
   41DOPE   H8R 5212   2.879   5.913   3.885  0.3225 -0.1525  0.3859
   41DOPE   H8S 5213   2.985   5.784   3.931  0.0659 -0.0435  0.6760
   41DOPE   C29 5214   2.785   5.769   4.019 -0.6029  0.5145 -0.1475
   41DOPE   H9R 5215   2.678   5.780   3.997 -1.0540 -0.7844  1.2902
   41DOPE  C210 5216   2.817   5.716   4.136  0.1880 -0.1172 -0.4116
   41DOPE  H10R 5217   2.733   5.687   4.201  1.0174  0.4762  0.9515
   41DOPE  C211 5218   2.955   5.681   4.188 -0.9360  0.3332 -0.2506
   41DOPE  H11R 5219   3.037   5.706   4.118  0.7761 -0.8067  1.2618
   41DOPE  H11S 5220   2.959   5.579   4.231 -4.6468  1.0353  2.2802
   41DOPE  C212 5221   2.982   5.772   4.315  0.4037 -0.0186  0.4805
   41DOPE  H12R 5222   2.885   5.774   4.369  1.6015  0.9011  2.6953
   41DOPE  H12S 5223   3.002   5.877   4.285  0.6824 -0.3843 -0.7089
   41DOPE  C213 5224   3.091   5.727   4.413 -0.2104  0.4893  0.0073
   41DOPE  H13R 5225   3.186   5.753   4.363  0.8464  2.0677  2.5953
   41DOPE  H13S 5226   3.088   5.620   4.442  0.8097 -0.1360 -2.0203
   41DOPE  C214 5227   3.088   5.801   4.549 -0.0258  0.3005 -0.7849
   41DOPE  H14R 5228   3.015   5.743   4.610  1.8093 -5.0304 -3.0766
   41DOPE  H14S 5229   3.063   5.907   4.529  1.5738  0.8060 -0.2133
   41DOPE  C215 5230   3.219   5.798   4.621 -0.5696  0.5989  0.3357
   41DOPE  H15R 5231   3.302   5.839   4.560 -0.6465 -0.3163 -0.4054
   41DOPE  H15S 5232   3.253   5.693   4.632  1.4452  1.1318 -0.4559
   41DOPE  C216 5233   3.220   5.886   4.748 -0.2259 -0.2706 -0.4484
   41DOPE  H16R 5234   3.195   5.990   4.720  1.1207 -0.1352 -1.2220
   41DOPE  H16S 5235   3.322   5.889   4.791 -0.2088  0.0369 -0.5141
   41DOPE  C217 5236   3.130   5.840   4.859 -0.3041  0.0801  0.1901
   41DOPE  H17R 5237   3.180   5.750   4.901  2.1465  0.8688 -0.8730
   41DOPE  H17S 5238   3.026   5.828   4.822 -0.2190  0.9427 -0.3553
   41DOPE  C218 5239   3.120   5.940   4.974 -0.3430  0.2587 -0.3326
   41DOPE  H18R 5240   3.222   5.954   5.016 -0.4456 -0.1313  0.0586
   41DOPE  H18S 5241   3.054   5.902   5.055 -0.4858 -0.0131 -0.5774
   41DOPE  H18T 5242   3.082   6.037   4.933 -0.9358 -0.4573 -1.5427
   41DOPE   C33 5243   3.272   5.219   3.247  0.4587  0.3180 -0.2357
   41DOPE   H3X 5244   3.362   5.211   3.311 -0.8348  0.6949  1.7149
   41DOPE   H3Y 5245   3.265   5.158   3.154  1.3488 -0.3199  0.1007
   41DOPE   C34 5246   3.158   5.178   3.346  0.4500 -0.7960 -0.7014
   41DOPE   H4X 5247   3.064   5.229   3.317 -0.0863 -1.7125 -0.6300
   41DOPE   H4Y 5248   3.135   5.069   3.345  0.0079 -0.7386 -2.9860
   41DOPE   C35 5249   3.199   5.218   3.491 -0.2031  0.2934  0.5336
   41DOPE   H5X 5250   3.205   5.328   3.501 -0.0825  0.3863 -0.5235
   41DOPE   H5Y 5251   3.301   5.182   3.517  0.1838 -1.6090 -3.0365
   41DOPE   C36 5252   3.091   5.176   3.595 -0.3345  0.3064  0.0960
   41DOPE   H6X 5253   3.137   5.174   3.697  1.3154  1.5778 -0.5761
   41DOPE   H6Y 5254   3.042   5.079   3.573  0.9087  0.3422 -3.5043
   41DOPE   C37 5255   2.982   5.275   3.586 -0.2556  0.3801 -0.5866
   41DOPE   H7X 5256   3.030   5.374   3.596  2.9588 -1.2644  1.9748
   41DOPE   H7Y 5257   2.928   5.274   3.488  1.2468  0.8568 -1.4467
   41DOPE   C38 5258   2.891   5.250   3.707  0.4235 -0.0860 -0.5607
   41DOPE   H8X 5259   2.936   5.285   3.803 -2.6763  0.1964  0.9112
   41DOPE   H8Y 5260   2.872   5.141   3.714  0.8897 -0.2105 -1.1536
   41DOPE   C39 5261   2.754   5.315   3.677  0.6378  0.8665 -0.4173
   41DOPE   H9X 5262   2.720   5.306   3.572 -3.0442 -1.3014  0.7666
   41DOPE  C310 5263   2.667   5.374   3.762  0.3015  0.1877  0.6774
   41DOPE  H10X 5264   2.570   5.408   3.723 -0.0639  1.4987  2.5907
   41DOPE  C311 5265   2.680   5.376   3.912  0.5189 -0.1290  0.4481
   41DOPE  H11X 5266   2.778   5.420   3.940  1.9250 -0.3859 -3.4883
   41DOPE  H11Y 5267   2.621   5.459   3.957  2.2392  0.6093  1.4229
   41DOPE  C312 5268   2.658   5.238   3.977 -0.1980  0.1746 -0.1360
   41DOPE  H12X 5269   2.738   5.171   3.939  1.5742  1.6774  0.8246
   41DOPE  H12Y 5270   2.562   5.199   3.936  0.6765 -1.3209 -0.8535
   41DOPE  C313 5271   2.672   5.237   4.135 -0.4463 -0.8995  0.0799
   41DOPE  H13X 5272   2.647   5.135   4.170  0.0752 -0.6204  1.3421
   41DOPE  H13Y 5273   2.776   5.267   4.160 -0.6132  1.2656 -1.5276
   41DOPE  C314 5274   2.567   5.322   4.209 -0.1513  0.4680 -0.2036
   41DOPE  H14X 5275   2.462   5.302   4.179  0.1857  0.2954 -1.3350
   41DOPE  H14Y 5276   2.577   5.428   4.178  0.7567  0.9959  1.7897
   41DOPE  C315 5277   2.589   5.317   4.366  0.3208  0.2676 -0.2454
   41DOPE  H15X 5278   2.591   5.213   4.405  0.0093  0.2342 -0.3138
   41DOPE  H15Y 5279   2.497   5.359   4.413  0.5291  0.9224 -0.4164
   41DOPE  C316 5280   2.715   5.384   4.416  1.0389 -0.1067 -0.2196
   41DOPE  H16X 5281   2.707   5.491   4.388 -0.1139  0.4050  1.7980
   41DOPE  H16Y 5282   2.800   5.335   4.365  0.4138 -0.8445 -0.5741
   41DOPE  C317 5283   2.733   5.371   4.563  0.2408  0.6520  0.0811
   41DOPE  H17X 5284   2.632   5.390   4.605 -0.1031  0.1589 -0.5026
   41DOPE  H17Y 5285   2.759   5.266   4.584 -0.5848  0.3637 -0.2922
   41DOPE  C318 5286   2.830   5.470   4.622 -0.1494 -0.1769  0.2720
   41DOPE  H18X 5287   2.933   5.451   4.585 -0.4824 -0.0038 -0.7806
   41DOPE  H18Y 5288   2.792   5.574   4.607 -0.7162 -0.3790  0.2845
   41DOPE  H18Z 5289   2.824   5.440   4.729 -1.9446  0.5097  0.4096
   42DOPE     N 5290   2.783   4.070   2.737  0.4966  0.2538 -0.0591
   42DOPE   HN1 5291   2.736   3.979   2.720  1.4828 -0.0665 -1.1521
   42DOPE   HN2 5292   2.720   4.105   2.813 -1.1625 -0.4382 -1.0608
   42DOPE   HN3 5293   2.786   4.140   2.659 -1.0137  0.7595  0.2882
   42DOPE   C12 5294   2.918   4.040   2.784 -0.2501  0.1127  0.2593
   42DOPE  H12A 5295   2.965   4.136   2.814 -2.0362  1.3340 -0.6665
   42DOPE  H12B 5296   2.984   3.987   2.712  2.0365  0.0645  2.2450
   42DOPE   C11 5297   2.916   3.945   2.911 -0.0980 -0.0352  0.0876
   42DOPE  H11A 5298   2.855   4.000   2.987 -2.1334 -0.1062 -1.4028
   42DOPE  H11B 5299   3.022   3.940   2.942  0.8138  2.3646 -2.2835
   42DOPE     P 5300   2.922   3.681   2.854  0.0794 -0.3183  0.1573
   42DOPE   O13 5301   3.062   3.683   2.800 -0.0332  0.5291  0.8886
   42DOPE   O14 5302   2.828   3.594   2.784 -0.4355  0.1310 -0.3935
   42DOPE   O11 5303   2.947   3.624   3.002 -0.4260  0.5471 -0.2047
   42DOPE   O12 5304   2.853   3.819   2.871 -0.1933 -0.0173 -0.3545
   42DOPE    C1 5305   2.848   3.637   3.106 -0.2865  0.1634  0.3180
   42DOPE    HA 5306   2.808   3.537   3.133 -0.3806  0.1973  0.3050
   42DOPE    HB 5307   2.766   3.705   3.074  2.1705  2.4995 -1.5042
   42DOPE    C2 5308   2.912   3.711   3.229 -0.0449  0.5181 -0.6639
   42DOPE    HS 5309   2.941   3.814   3.200 -0.2270  0.6100 -0.5244
   42DOPE   O21 5310   3.031   3.633   3.269 -0.1969 -0.8804  0.4424
   42DOPE   C21 5311   3.134   3.705   3.319 -0.1627  0.3363  0.0332
   42DOPE   O22 5312   3.138   3.826   3.330  0.1491  0.4124 -0.0728
   42DOPE   C22 5313   3.243   3.608   3.359  0.8203  0.1772  0.7695
   42DOPE   H2R 5314   3.290   3.549   3.278  3.7616  1.7311  1.2229
   42DOPE   H2S 5315   3.191   3.527   3.416  1.7278 -0.9743  0.0124
   42DOPE    C3 5316   2.818   3.709   3.351  0.3582  0.3279 -0.1568
   42DOPE    HX 5317   2.807   3.601   3.378  4.7988 -0.6626 -1.3581
   42DOPE    HY 5318   2.719   3.752   3.327 -1.9819 -3.4299  1.6796
   42DOPE   O31 5319   2.876   3.772   3.470  0.1926  0.3738 -0.2767
   42DOPE   C31 5320   2.878   3.906   3.467 -0.1211  0.1313  0.3041
   42DOPE   O32 5321   2.839   3.970   3.370  0.5914 -0.6670  0.3005
   42DOPE   C32 5322   2.947   3.965   3.584  0.0711 -0.6827 -0.8064
   42DOPE   H2X 5323   2.879   3.954   3.671  0.5422  2.6894  0.1389
   42DOPE   H2Y 5324   3.043   3.912   3.597  0.0265 -1.1220 -2.1076
   42DOPE   C23 5325   3.347   3.664   3.454 -0.2946 -0.3364  0.2563
   42DOPE   H3R 5326   3.305   3.744   3.518 -1.2595 -1.5733  1.2144
   42DOPE   H3S 5327   3.425   3.717   3.395  0.8839 -1.5429  0.6632
   42DOPE   C24 5328   3.412   3.561   3.540 -0.5313  0.5050 -0.2968
   42DOPE   H4R 5329   3.508   3.521   3.502 -0.2920  2.0175 -1.4037
   42DOPE   H4S 5330   3.328   3.489   3.551 -1.3631  1.6328  1.1319
   42DOPE   C25 5331   3.429   3.602   3.684  0.7800  0.0787 -0.3723
   42DOPE   H5R 5332   3.427   3.525   3.764  0.6829 -1.3997 -1.7331
   42DOPE   H5S 5333   3.341   3.661   3.716 -1.2970 -2.3391 -1.2393
   42DOPE   C26 5334   3.554   3.694   3.723  0.4160 -0.5476 -0.4053
   42DOPE   H6R 5335   3.536   3.803   3.704 -1.4085 -0.9258 -1.0893
   42DOPE   H6S 5336   3.639   3.675   3.653  0.9081 -0.0763  0.0544
   42DOPE   C27 5337   3.605   3.669   3.863 -0.2994  0.7197  0.6733
   42DOPE   H7R 5338   3.707   3.709   3.882  0.3000 -0.8952  1.0602
   42DOPE   H7S 5339   3.608   3.558   3.862 -0.9479  0.6822  1.7726
   42DOPE   C28 5340   3.519   3.714   3.976  0.5923 -0.9449  0.1160
   42DOPE   H8R 5341   3.426   3.654   3.961  0.1720  0.0517 -1.5661
   42DOPE   H8S 5342   3.485   3.815   3.945 -2.3199 -2.0280 -0.6015
   42DOPE   C29 5343   3.573   3.713   4.120 -0.0273 -0.1306 -0.1093
   42DOPE   H9R 5344   3.670   3.760   4.142 -0.9165  0.6119  2.6578
   42DOPE  C210 5345   3.515   3.635   4.214 -0.2506  0.0640  0.1585
   42DOPE  H10R 5346   3.565   3.615   4.310  0.1050  0.4232  0.0485
   42DOPE  C211 5347   3.383   3.556   4.204 -0.1917  0.2202  0.0819
   42DOPE  H11R 5348   3.357   3.547   4.096  2.6426 -0.8591 -0.6007
   42DOPE  H11S 5349   3.294   3.599   4.255 -2.0420 -1.7098 -1.3233
   42DOPE  C212 5350   3.407   3.419   4.265 -0.6094  0.1494  0.3436
   42DOPE  H12R 5351   3.442   3.424   4.370  3.8812  1.1901 -0.9810
   42DOPE  H12S 5352   3.484   3.364   4.207 -0.6130 -0.3171  0.7826
   42DOPE  C213 5353   3.269   3.348   4.264 -0.9487 -0.0702 -0.0020
   42DOPE  H13R 5354   3.252   3.320   4.158  1.1537 -1.7643  0.0304
   42DOPE  H13S 5355   3.197   3.425   4.298 -0.4120  0.5602 -0.2750
   42DOPE  C214 5356   3.284   3.223   4.344 -0.4979  0.7207  0.6844
   42DOPE  H14R 5357   3.388   3.187   4.332  0.0013  2.4083 -0.4763
   42DOPE  H14S 5358   3.208   3.151   4.307  0.1365 -0.4590  1.6274
   42DOPE  C215 5359   3.245   3.232   4.487 -0.1601  0.2470 -0.2207
   42DOPE  H15R 5360   3.137   3.255   4.503 -0.6917 -0.0973 -2.9038
   42DOPE  H15S 5361   3.304   3.322   4.515  0.9594 -0.0048 -1.6669
   42DOPE  C216 5362   3.301   3.117   4.569  0.2724 -0.4321  0.0882
   42DOPE  H16R 5363   3.262   3.121   4.673 -1.4513 -0.9421 -0.4977
   42DOPE  H16S 5364   3.412   3.122   4.572  0.1966  1.4249  0.8195
   42DOPE  C217 5365   3.259   2.980   4.511 -0.2416  0.1590  0.2852
   42DOPE  H17R 5366   3.298   2.964   4.408 -1.4281  2.2460 -0.5494
   42DOPE  H17S 5367   3.149   2.984   4.503 -0.3024  0.2260  1.0898
   42DOPE  C218 5368   3.303   2.857   4.591 -0.3745  0.0902 -0.4153
   42DOPE  H18R 5369   3.414   2.863   4.594 -0.3283 -0.6874 -0.4314
   42DOPE  H18S 5370   3.265   2.762   4.549 -0.8348 -0.4086  1.0520
   42DOPE  H18T 5371   3.260   2.862   4.694 -0.0241  0.8280 -0.2967
   42DOPE   C33 5372   2.957   4.123   3.573  0.0737  1.1816  0.5278
   42DOPE   H3X 5373   2.857   4.170   3.557 -0.2911 -0.3335 -2.0991
   42DOPE   H3Y 5374   3.024   4.154   3.490  1.1994 -2.5544 -0.1159
   42DOPE   C34 5375   3.014   4.190   3.697 -0.0838 -0.6403  0.3418
   42DOPE   H4X 5376   2.950   4.172   3.786 -3.6858  1.5495 -1.5612
   42DOPE   H4Y 5377   3.118   4.156   3.720  0.7676  2.3500  1.4156
   42DOPE   C35 5378   3.027   4.341   3.676 -0.0145  0.3939  0.7244
   42DOPE   H5X 5379   2.926   4.386   3.669  0.1851  1.0125  1.7204
   42DOPE   H5Y 5380   3.095   4.364   3.591 -2.3163  1.4200 -0.9573
   42DOPE   C36 5381   3.091   4.416   3.788 -0.2095  0.6572 -0.2608
   42DOPE   H6X 5382   3.100   4.522   3.757  1.6868  0.2484 -1.2828
   42DOPE   H6Y 5383   3.192   4.370   3.799 -0.5445  0.1207  0.7067
   42DOPE   C37 5384   3.015   4.416   3.924  0.1198 -0.4167  1.0351
   42DOPE   H7X 5385   2.915   4.456   3.898  0.9878  1.3759  0.2626
   42DOPE   H7Y 5386   3.011   4.314   3.968 -0.4283  0.3455  2.8589
   42DOPE   C38 5387   3.088   4.509   4.028 -0.2773  0.0087 -0.3164
   42DOPE   H8X 5388   3.088   4.607   3.976  0.5036 -0.8447 -2.0111
   42DOPE   H8Y 5389   3.190   4.465   4.027 -0.3202 -0.0847 -0.8309
   42DOPE   C39 5390   3.024   4.532   4.161  0.5756 -0.0014 -0.3509
   42DOPE   H9X 5391   2.964   4.623   4.174  1.6004  0.8341 -1.2717
   42DOPE  C310 5392   3.038   4.450   4.265 -0.2618  0.1441 -0.1784
   42DOPE  H10X 5393   3.005   4.484   4.364  0.3159  0.2397 -0.0171
   42DOPE  C311 5394   3.103   4.315   4.258  0.1731 -0.1107 -0.0288
   42DOPE  H11X 5395   3.038   4.240   4.306 -0.4014  0.7898  0.6271
   42DOPE  H11Y 5396   3.114   4.271   4.156 -0.8569  1.6843 -0.9564
   42DOPE  C312 5397   3.239   4.303   4.322  0.5917 -0.3333  0.2208
   42DOPE  H12X 5398   3.231   4.321   4.431 -2.3441 -1.7680  0.3689
   42DOPE  H12Y 5399   3.315   4.376   4.288  1.4643 -1.1276  0.4279
   42DOPE  C313 5400   3.302   4.165   4.311 -0.2087 -0.3199 -0.1585
   42DOPE  H13X 5401   3.292   4.131   4.205  0.9612 -1.2745  0.0181
   42DOPE  H13Y 5402   3.409   4.170   4.341  0.6081 -1.8211 -2.5541
   42DOPE  C314 5403   3.238   4.058   4.397  0.3976 -0.8427  0.1418
   42DOPE  H14X 5404   3.144   4.024   4.347 -0.6018  1.2914  0.4207
   42DOPE  H14Y 5405   3.208   4.121   4.484  1.2700  0.7890 -0.6792
   42DOPE  C315 5406   3.321   3.939   4.431 -0.3922 -1.0047 -0.6478
   42DOPE  H15X 5407   3.406   3.980   4.488  0.4220 -2.0690 -1.0622
   42DOPE  H15Y 5408   3.345   3.889   4.335 -0.6401 -2.1482 -0.1394
   42DOPE  C316 5409   3.251   3.841   4.526 -0.1281 -0.1938 -0.3912
   42DOPE  H16X 5410   3.163   3.808   4.467  1.1231 -2.8931 -0.8751
   42DOPE  H16Y 5411   3.213   3.886   4.620  3.1693 -1.3434  1.6955
   42DOPE  C317 5412   3.341   3.723   4.553 -0.2032 -0.0735 -0.3083
   42DOPE  H17X 5413   3.397   3.689   4.463  0.6222 -0.2334  0.2499
   42DOPE  H17Y 5414   3.418   3.749   4.629  0.0021 -1.1480 -0.1320
   42DOPE  C318 5415   3.252   3.604   4.596  0.0231 -0.0232 -0.1326
   42DOPE  H18X 5416   3.196   3.566   4.508 -4.6787  1.3317  1.9236
   42DOPE  H18Y 5417   3.306   3.514   4.635 -2.3192 -0.9353  1.2268
   42DOPE  H18Z 5418   3.180   3.634   4.676  1.0262 -1.0689  1.2131
   43DOPE     N 5419   1.738   2.456   2.863  0.0373 -0.4633  0.2528
   43DOPE   HN1 5420   1.690   2.479   2.773  0.2923 -1.7507 -0.2398
   43DOPE   HN2 5421   1.812   2.384   2.845  2.4098  1.7431  0.6952
   43DOPE   HN3 5422   1.666   2.418   2.928 -0.2405 -0.9049 -0.2997
   43DOPE   C12 5423   1.798   2.581   2.921  0.4450 -0.2299 -0.8230
   43DOPE  H12A 5424   1.866   2.621   2.843 -0.3888  1.8422 -0.5270
   43DOPE  H12B 5425   1.856   2.546   3.009 -1.0845 -1.1658 -0.1368
   43DOPE   C11 5426   1.681   2.683   2.950  0.3495  0.4625 -0.7104
   43DOPE  H11A 5427   1.625   2.702   2.856 -2.1836 -3.1973 -0.1419
   43DOPE  H11B 5428   1.711   2.782   2.988  2.3505  1.3975 -4.2474
   43DOPE     P 5429   1.490   2.688   3.133 -0.0908  0.4982  0.7710
   43DOPE   O13 5430   1.369   2.601   3.141  0.4958 -0.5063  0.2838
   43DOPE   O14 5431   1.467   2.818   3.068  0.1891 -0.2168 -0.4846
   43DOPE   O11 5432   1.558   2.714   3.272 -0.1579 -0.1840 -0.4290
   43DOPE   O12 5433   1.599   2.615   3.045  0.7124  0.3917  0.0232
   43DOPE    C1 5434   1.696   2.720   3.296  0.2793 -0.3652  0.6647
   43DOPE    HA 5435   1.753   2.727   3.201 -2.5035 -0.7452 -1.1601
   43DOPE    HB 5436   1.727   2.626   3.347 -1.0649 -1.7740 -0.9925
   43DOPE    C2 5437   1.729   2.840   3.389  0.1139  0.1868  0.1579
   43DOPE    HS 5438   1.838   2.861   3.393  0.0425  0.3874  1.2510
   43DOPE   O21 5439   1.696   2.804   3.523  1.0184  0.1724 -0.0468
   43DOPE   C21 5440   1.780   2.737   3.594 -0.7007 -0.3270  0.7607
   43DOPE   O22 5441   1.898   2.725   3.562  0.7758  0.2448  0.2144
   43DOPE   C22 5442   1.720   2.680   3.718  0.5580  0.4159  0.2945
   43DOPE   H2R 5443   1.708   2.573   3.691 -1.7822  0.8969 -0.8167
   43DOPE   H2S 5444   1.616   2.713   3.733  0.4474  0.0208  0.4223
   43DOPE    C3 5445   1.662   2.977   3.343  0.4442  0.3830  1.3873
   43DOPE    HX 5446   1.552   2.975   3.356  0.3262  0.2426  0.4296
   43DOPE    HY 5447   1.691   2.987   3.236  0.6694  2.3136  1.5941
   43DOPE   O31 5448   1.725   3.090   3.412  0.3667  0.1432  0.4768
   43DOPE   C31 5449   1.661   3.206   3.392 -0.1737  0.1956  0.1364
   43DOPE   O32 5450   1.568   3.222   3.319  0.0961  0.2065  0.2428
   43DOPE   C32 5451   1.717   3.312   3.487  0.2965 -0.2419 -0.4477
   43DOPE   H2X 5452   1.687   3.409   3.442 -1.2353  0.2132  1.3893
   43DOPE   H2Y 5453   1.661   3.300   3.583  1.0152  1.1521  0.1804
   43DOPE   C23 5454   1.814   2.721   3.840 -0.4800  0.1414 -0.4991
   43DOPE   H3R 5455   1.838   2.829   3.846 -0.6647  0.1197  2.4810
   43DOPE   H3S 5456   1.906   2.662   3.820 -1.3259 -0.9976 -1.1891
   43DOPE   C24 5457   1.754   2.673   3.976  0.0177 -0.2357 -0.1451
   43DOPE   H4R 5458   1.721   2.567   3.971 -0.0159 -0.2927  0.9768
   43DOPE   H4S 5459   1.659   2.726   3.998 -0.6907 -1.6041  0.2102
   43DOPE   C25 5460   1.849   2.702   4.106  0.4533  0.4739  0.8834
   43DOPE   H5R 5461   1.839   2.809   4.131 -0.5454  0.3355  1.1235
   43DOPE   H5S 5462   1.951   2.677   4.070 -0.7309 -1.2323 -1.6122
   43DOPE   C26 5463   1.820   2.609   4.231 -0.0118 -0.2278 -0.1301
   43DOPE   H6R 5464   1.824   2.501   4.208  0.2800 -0.7731  2.1582
   43DOPE   H6S 5465   1.720   2.640   4.269 -0.5670 -1.1265 -0.8386
   43DOPE   C27 5466   1.927   2.641   4.337  0.4318  0.2731  0.2118
   43DOPE   H7R 5467   1.932   2.746   4.375  0.4433  0.3968 -0.1261
   43DOPE   H7S 5468   2.023   2.632   4.281  1.6657  0.2504  2.2111
   43DOPE   C28 5469   1.923   2.564   4.466  0.2129 -0.0582 -0.0692
   43DOPE   H8R 5470   1.908   2.457   4.440 -1.3875 -0.8056  3.3857
   43DOPE   H8S 5471   1.826   2.595   4.511 -0.1001 -0.0159 -0.7607
   43DOPE   C29 5472   2.047   2.583   4.558  0.2999  0.4540 -0.2679
   43DOPE   H9R 5473   2.049   2.669   4.626  0.4993 -1.1001  1.7748
   43DOPE  C210 5474   2.137   2.485   4.579  1.1811  0.2471 -0.1090
   43DOPE  H10R 5475   2.220   2.505   4.648  0.6974 -0.3015  0.6410
   43DOPE  C211 5476   2.135   2.340   4.528 -1.0300  0.0443 -0.1738
   43DOPE  H11R 5477   2.241   2.318   4.504 -0.8596 -1.2700  1.6072
   43DOPE  H11S 5478   2.072   2.326   4.437 -0.3685 -0.9177 -0.4868
   43DOPE  C212 5479   2.076   2.257   4.636  0.6579 -0.3126 -0.6586
   43DOPE  H12R 5480   2.063   2.150   4.609  0.5210 -0.6010  0.5206
   43DOPE  H12S 5481   1.978   2.301   4.662  2.2287  3.2035 -0.1535
   43DOPE  C213 5482   2.146   2.262   4.772  0.6332 -0.5354  0.3487
   43DOPE  H13R 5483   2.131   2.359   4.823  1.8511 -1.5801  2.8676
   43DOPE  H13S 5484   2.252   2.232   4.755  0.5414 -0.8676  0.3490
   43DOPE  C214 5485   2.067   2.165   4.867  0.2682  0.2286  0.5179
   43DOPE  H14R 5486   2.069   2.063   4.824  0.9994  0.0137  1.0370
   43DOPE  H14S 5487   1.958   2.184   4.875  0.0468 -1.2495  1.2410
   43DOPE  C215 5488   2.131   2.159   5.005 -0.0124  0.7462  0.3846
   43DOPE  H15R 5489   2.137   2.264   5.041  0.2098  1.7204 -2.3030
   43DOPE  H15S 5490   2.237   2.125   5.004  0.0554  0.8492  1.5889
   43DOPE  C216 5491   2.049   2.073   5.106  0.1321  0.3340 -0.5757
   43DOPE  H16R 5492   2.031   1.967   5.077 -1.9059  0.8226 -1.2681
   43DOPE  H16S 5493   1.947   2.115   5.099  0.3315  0.7111 -1.3581
   43DOPE  C217 5494   2.106   2.064   5.246 -0.1538  0.3297  0.1695
   43DOPE  H17R 5495   2.116   2.165   5.291  1.7005 -1.2172  3.6067
   43DOPE  H17S 5496   2.211   2.028   5.243 -1.0790 -2.5598 -0.9282
   43DOPE  C218 5497   2.019   1.991   5.352 -0.1362  0.6864 -0.2806
   43DOPE  H18R 5498   2.079   2.000   5.445 -0.5585  1.7968 -0.0912
   43DOPE  H18S 5499   2.010   1.883   5.331  0.4426  0.0033  2.5387
   43DOPE  H18T 5500   1.919   2.039   5.364 -0.3920  0.0521  0.1753
   43DOPE   C33 5501   1.876   3.300   3.514  1.1747 -0.1979 -0.7763
   43DOPE   H3X 5502   1.936   3.308   3.421  1.6723 -1.1311 -0.5392
   43DOPE   H3Y 5503   1.878   3.202   3.565  0.4893 -1.0582 -2.3338
   43DOPE   C34 5504   1.924   3.407   3.611 -0.4405  0.4311  0.0644
   43DOPE   H4X 5505   2.034   3.392   3.615 -0.2273  1.8393 -0.0701
   43DOPE   H4Y 5506   1.908   3.500   3.552  1.1893  0.8729  0.2655
   43DOPE   C35 5507   1.866   3.424   3.750  1.0317  0.2306  0.2817
   43DOPE   H5X 5508   1.755   3.418   3.746  0.9865  0.6670  0.6759
   43DOPE   H5Y 5509   1.899   3.527   3.776 -0.3619  0.6052  0.6541
   43DOPE   C36 5510   1.919   3.323   3.851  0.6892 -0.1215 -0.8771
   43DOPE   H6X 5511   1.931   3.373   3.949  2.0034  2.9472 -2.4463
   43DOPE   H6Y 5512   2.019   3.277   3.830  1.5612  0.6981  1.2272
   43DOPE   C37 5513   1.831   3.195   3.864 -0.2470  0.5157  0.5185
   43DOPE   H7X 5514   1.723   3.221   3.869 -0.0348  1.1831  2.1004
   43DOPE   H7Y 5515   1.847   3.141   3.768 -0.4332  1.8811 -0.3091
   43DOPE   C38 5516   1.858   3.104   3.982  0.0114  0.4929  0.3625
   43DOPE   H8X 5517   1.783   3.022   3.974  1.4930 -1.0311  1.4581
   43DOPE   H8Y 5518   1.823   3.158   4.073 -3.6591  0.2063 -0.7364
   43DOPE   C39 5519   1.988   3.034   3.997 -0.2715 -0.3408 -0.5158
   43DOPE   H9X 5520   1.997   2.933   3.953  0.7020 -0.0593 -0.9762
   43DOPE  C310 5521   2.095   3.067   4.069 -0.2207  0.1960  0.6150
   43DOPE  H10X 5522   2.190   3.017   4.045 -1.1455 -0.9505 -0.8469
   43DOPE  C311 5523   2.107   3.183   4.164  0.6650 -0.9465  0.0259
   43DOPE  H11X 5524   2.188   3.249   4.126 -0.8117 -0.1076 -1.8457
   43DOPE  H11Y 5525   2.012   3.241   4.164  0.7154 -0.8558 -0.8570
   43DOPE  C312 5526   2.144   3.140   4.312  0.2093  0.4004 -0.1972
   43DOPE  H12X 5527   2.189   3.223   4.370 -2.1022  1.5558  0.0232
   43DOPE  H12Y 5528   2.215   3.054   4.313  1.1232  1.1229 -0.6262
   43DOPE  C313 5529   2.018   3.094   4.383 -0.4315 -0.3767  0.0690
   43DOPE  H13X 5530   1.957   3.185   4.402  0.1166  0.4572 -1.8358
   43DOPE  H13Y 5531   1.957   3.032   4.315 -0.1365 -1.5795  0.8759
   43DOPE  C314 5532   2.040   3.021   4.516 -0.4605  0.3096  0.2745
   43DOPE  H14X 5533   2.104   2.935   4.488 -0.6585  0.4474 -0.6551
   43DOPE  H14Y 5534   1.941   2.988   4.555  0.7824  0.3491  3.8149
   43DOPE  C315 5535   2.102   3.101   4.629 -0.0783 -0.3434 -0.2585
   43DOPE  H15X 5536   2.051   3.195   4.659  1.2977  0.1008  0.8074
   43DOPE  H15Y 5537   2.202   3.137   4.595 -0.3155 -0.0529 -0.6500
   43DOPE  C316 5538   2.134   3.018   4.762  0.6482 -0.7730  0.0445
   43DOPE  H16X 5539   2.160   3.095   4.837 -0.8833  0.0704 -0.2593
   43DOPE  H16Y 5540   2.217   2.947   4.737  0.1172 -1.4783  0.2613
   43DOPE  C317 5541   2.013   2.936   4.814  0.3376  0.0209  0.4377
   43DOPE  H17X 5542   1.926   3.002   4.834 -1.0549 -1.3147 -0.8911
   43DOPE  H17Y 5543   1.994   2.869   4.727  0.1136  1.3002 -0.5176
   43DOPE  C318 5544   2.055   2.838   4.925  0.1601 -0.8990  0.2643
   43DOPE  H18X 5545   2.151   2.797   4.887  0.7049  0.0704  0.5584
   43DOPE  H18Y 5546   2.073   2.878   5.027  1.7593 -1.5540  0.2692
   43DOPE  H18Z 5547   1.991   2.747   4.924 -3.1811  1.2778 -1.8475
   44DOPE     N 5548   3.936   2.353   3.466  0.4246  0.2430 -1.3103
   44DOPE   HN1 5549   3.855   2.404   3.426 -0.3573  0.4488  0.4590
   44DOPE   HN2 5550   4.011   2.386   3.402  1.7953  0.3103  0.2648
   44DOPE   HN3 5551   3.912   2.254   3.447  0.1687  0.2369 -0.9546
   44DOPE   C12 5552   3.980   2.384   3.606 -0.5509 -0.5227  0.0312
   44DOPE  H12A 5553   3.899   2.337   3.665 -0.5535 -1.6707 -0.8463
   44DOPE  H12B 5554   3.975   2.494   3.625  1.1075 -0.5791  0.9906
   44DOPE   C11 5555   4.118   2.318   3.620 -0.0496 -0.5072  0.1499
   44DOPE  H11A 5556   4.156   2.332   3.723 -1.3194  2.0393  0.3527
   44DOPE  H11B 5557   4.191   2.374   3.558 -0.6078 -2.0722 -2.0434
   44DOPE     P 5558   4.063   2.062   3.656 -0.0998  0.3318 -0.0903
   44DOPE   O13 5559   4.156   2.036   3.766  0.2187  0.4132 -0.0736
   44DOPE   O14 5560   4.041   1.946   3.566  0.3127  0.3970  0.1884
   44DOPE   O11 5561   3.925   2.114   3.717 -0.2980  0.3940  0.0408
   44DOPE   O12 5562   4.115   2.182   3.569 -0.3992 -0.3405 -0.5805
   44DOPE    C1 5563   3.837   2.023   3.774 -0.0276 -0.2529 -0.7419
   44DOPE    HA 5564   3.888   1.934   3.817  1.4049  0.9791  0.1829
   44DOPE    HB 5565   3.767   1.981   3.699 -0.5030  0.2962 -0.6157
   44DOPE    C2 5566   3.746   2.087   3.884  0.3062 -0.4268 -0.4143
   44DOPE    HS 5567   3.689   2.162   3.826 -1.2446 -2.0589 -1.0765
   44DOPE   O21 5568   3.822   2.138   4.000 -0.5564  0.9485 -0.2996
   44DOPE   C21 5569   3.791   2.258   4.042 -0.2568 -0.4173 -0.4594
   44DOPE   O22 5570   3.715   2.332   3.984  0.4582  0.0281  0.0131
   44DOPE   C22 5571   3.880   2.295   4.163 -0.3513  0.0586 -0.6025
   44DOPE   H2R 5572   3.929   2.386   4.123  0.7187  0.0853  0.6969
   44DOPE   H2S 5573   3.959   2.218   4.176  0.4740  1.2966  2.7140
   44DOPE    C3 5574   3.644   1.980   3.932 -0.0552 -0.0405  0.0231
   44DOPE    HX 5575   3.696   1.909   3.999  1.0419 -0.7733 -1.5692
   44DOPE    HY 5576   3.601   1.922   3.848 -1.1113 -0.7123  0.9863
   44DOPE   O31 5577   3.542   2.041   4.014 -0.4750 -0.5075 -0.2202
   44DOPE   C31 5578   3.439   2.085   3.944  0.4026 -0.0676 -0.3846
   44DOPE   O32 5579   3.414   2.082   3.824  0.1381 -0.2296 -0.3439
   44DOPE   C32 5580   3.345   2.156   4.039 -0.2509 -0.1468 -0.3113
   44DOPE   H2X 5581   3.243   2.166   3.997 -0.8921 -1.4856  0.8734
   44DOPE   H2Y 5582   3.350   2.088   4.126  1.7238 -0.2072 -0.4257
   44DOPE   C23 5583   3.814   2.308   4.299  0.1817 -0.4623 -1.0147
   44DOPE   H3R 5584   3.764   2.211   4.321 -0.4517 -0.5171 -2.6015
   44DOPE   H3S 5585   3.728   2.379   4.298  0.5074 -0.0636 -2.3710
   44DOPE   C24 5586   3.924   2.342   4.400 -0.3258  1.0418 -0.4511
   44DOPE   H4R 5587   4.016   2.329   4.339 -0.3750 -1.3587 -0.1152
   44DOPE   H4S 5588   3.946   2.275   4.486  2.6978  0.5125 -1.4897
   44DOPE   C25 5589   3.927   2.490   4.428 -0.1503 -0.0646 -0.1086
   44DOPE   H5R 5590   3.848   2.538   4.366 -1.1652 -2.0411 -0.4016
   44DOPE   H5S 5591   4.023   2.535   4.397  0.9271 -3.0121 -1.3338
   44DOPE   C26 5592   3.900   2.521   4.579  0.4456 -0.3086 -0.1164
   44DOPE   H6R 5593   3.927   2.627   4.602  0.8807 -0.4137 -0.1334
   44DOPE   H6S 5594   3.958   2.455   4.646  2.1147  1.6509  0.4795
   44DOPE   C27 5595   3.751   2.504   4.610 -0.2529 -0.4056  0.4681
   44DOPE   H7R 5596   3.714   2.399   4.611  0.3400 -0.6247 -0.1786
   44DOPE   H7S 5597   3.694   2.561   4.534 -0.0919  1.0361  1.3888
   44DOPE   C28 5598   3.706   2.556   4.754 -0.1479 -0.0084  0.2912
   44DOPE   H8R 5599   3.597   2.565   4.736  0.0745 -0.8242 -1.7359
   44DOPE   H8S 5600   3.733   2.663   4.771  0.0193  0.0821 -0.4963
   44DOPE   C29 5601   3.742   2.464   4.868  0.3303  0.2608 -0.8753
   44DOPE   H9R 5602   3.671   2.386   4.900  0.0278  0.8725 -0.0308
   44DOPE  C210 5603   3.850   2.473   4.945 -0.3585  0.4331  0.0729
   44DOPE  H10R 5604   3.865   2.400   5.026  1.4753 -2.4314 -2.6029
   44DOPE  C211 5605   3.964   2.563   4.920 -0.1572 -0.2121 -0.2240
   44DOPE  H11R 5606   3.952   2.636   4.838 -1.9382  0.2851  0.4484
   44DOPE  H11S 5607   4.057   2.503   4.903  0.3429  0.3829  0.3538
   44DOPE  C212 5608   3.998   2.648   5.045  0.0565 -0.0961 -0.0449
   44DOPE  H12R 5609   4.089   2.712   5.041  0.4127 -0.4921  1.2513
   44DOPE  H12S 5610   4.023   2.576   5.126 -0.2671 -0.4931 -0.2955
   44DOPE  C213 5611   3.878   2.743   5.076 -0.0781 -0.3829 -0.1855
   44DOPE  H13R 5612   3.793   2.679   5.109 -0.1848 -0.7022 -1.0696
   44DOPE  H13S 5613   3.853   2.800   4.984 -0.7205  1.1620  0.8858
   44DOPE  C214 5614   3.895   2.854   5.183  0.6022  0.6792 -0.4912
   44DOPE  H14R 5615   3.994   2.903   5.177  1.2240 -0.0987  1.9845
   44DOPE  H14S 5616   3.884   2.800   5.280  0.9706  1.0838 -0.2200
   44DOPE  C215 5617   3.784   2.965   5.184  0.1777  0.1930 -0.3991
   44DOPE  H15R 5618   3.685   2.915   5.188  0.2988  0.0407  2.9464
   44DOPE  H15S 5619   3.774   3.018   5.086 -1.1610 -1.1668 -1.0513
   44DOPE  C216 5620   3.776   3.046   5.315  0.6080 -0.0938  0.2981
   44DOPE  H16R 5621   3.875   3.037   5.365  1.8127  1.0603 -1.7299
   44DOPE  H16S 5622   3.690   3.013   5.376 -0.4601  0.3695 -0.9274
   44DOPE  C217 5623   3.756   3.194   5.276  0.6904  0.1183 -0.4235
   44DOPE  H17R 5624   3.668   3.200   5.207  0.4672 -1.0184 -0.2573
   44DOPE  H17S 5625   3.839   3.224   5.209 -0.1208  1.2768 -0.9442
   44DOPE  C218 5626   3.748   3.303   5.387 -0.7751  0.2659  0.4896
   44DOPE  H18R 5627   3.839   3.312   5.450 -1.9910 -1.0488  2.5369
   44DOPE  H18S 5628   3.656   3.281   5.444 -1.6056  1.4134 -0.3423
   44DOPE  H18T 5629   3.739   3.402   5.337 -0.0315  0.3066  0.4228
   44DOPE   C33 5630   3.398   2.290   4.090  0.4523  0.3283 -0.0290
   44DOPE   H3X 5631   3.385   2.377   4.023  1.2255 -1.0378 -2.0571
   44DOPE   H3Y 5632   3.509   2.288   4.089  0.5287 -0.4513 -3.6629
   44DOPE   C34 5633   3.353   2.329   4.228 -0.7032 -0.0945 -0.3951
   44DOPE   H4X 5634   3.246   2.360   4.232 -0.8701 -0.6996 -0.0261
   44DOPE   H4Y 5635   3.364   2.246   4.301  1.3745  0.6330  0.1898
   44DOPE   C35 5636   3.432   2.444   4.295 -0.6120  0.2739 -0.1841
   44DOPE   H5X 5637   3.424   2.530   4.225 -1.7364  0.1464 -0.2304
   44DOPE   H5Y 5638   3.542   2.427   4.301 -0.8628 -1.0177  1.2281
   44DOPE   C36 5639   3.377   2.485   4.429  0.4356 -0.8595 -0.4638
   44DOPE   H6X 5640   3.268   2.500   4.417  0.3759 -0.2961  0.6778
   44DOPE   H6Y 5641   3.437   2.576   4.450 -0.1756 -0.7428  0.8763
   44DOPE   C37 5642   3.402   2.383   4.539  0.5897  0.2724 -0.8123
   44DOPE   H7X 5643   3.360   2.285   4.508 -1.6401  0.9929 -0.2938
   44DOPE   H7Y 5644   3.510   2.358   4.543  0.1183 -2.0575 -0.8846
   44DOPE   C38 5645   3.348   2.418   4.678  0.5239  0.6872 -0.5914
   44DOPE   H8X 5646   3.242   2.446   4.658 -0.7428 -1.9464  1.6726
   44DOPE   H8Y 5647   3.408   2.501   4.720  2.0993 -1.4081  1.6195
   44DOPE   C39 5648   3.359   2.299   4.778  0.5082  0.0474 -0.2037
   44DOPE   H9X 5649   3.413   2.218   4.728  2.1498  2.5341 -2.7262
   44DOPE  C310 5650   3.326   2.309   4.908  0.0360 -0.2710 -0.4140
   44DOPE  H10X 5651   3.326   2.216   4.966 -1.4308  0.3711  0.6501
   44DOPE  C311 5652   3.289   2.437   4.988 -0.0133  0.3723  0.6264
   44DOPE  H11X 5653   3.276   2.523   4.919 -0.0906 -0.9120 -1.0273
   44DOPE  H11Y 5654   3.195   2.427   5.046 -1.4019  3.9474 -0.7594
   44DOPE  C312 5655   3.400   2.463   5.089 -0.1955  0.2373 -0.3248
   44DOPE  H12X 5656   3.501   2.470   5.043 -1.5375  0.9446 -3.3552
   44DOPE  H12Y 5657   3.402   2.382   5.165  0.6012  1.0021  0.4983
   44DOPE  C313 5658   3.377   2.597   5.156 -0.1238  0.3543  0.0462
   44DOPE  H13X 5659   3.334   2.678   5.093  1.2568  0.5486 -0.6745
   44DOPE  H13Y 5660   3.292   2.564   5.220 -1.2581  1.0207 -1.0860
   44DOPE  C314 5661   3.497   2.650   5.244 -0.1894 -0.2671  0.0255
   44DOPE  H14X 5662   3.467   2.754   5.268 -3.9670 -1.1266 -0.3976
   44DOPE  H14Y 5663   3.588   2.650   5.179  0.6386  1.3138  1.1146
   44DOPE  C315 5664   3.530   2.573   5.373 -0.6499 -0.0852  0.7772
   44DOPE  H15X 5665   3.564   2.468   5.359 -2.1172 -0.9182  2.8775
   44DOPE  H15Y 5666   3.435   2.551   5.426  0.2044 -1.9009  1.6391
   44DOPE  C316 5667   3.615   2.658   5.467 -0.1257 -0.4511  0.6362
   44DOPE  H16X 5668   3.563   2.756   5.476  0.8792  0.1497  0.1279
   44DOPE  H16Y 5669   3.716   2.684   5.429 -0.4977  0.5809  0.3171
   44DOPE  C317 5670   3.615   2.618   5.615  0.0903 -0.1345  0.3092
   44DOPE  H17X 5671   3.510   2.621   5.653  0.4700  0.9266  1.3436
   44DOPE  H17Y 5672   3.638   2.509   5.612  0.1403 -0.1054 -1.5841
   44DOPE  C318 5673   3.719   2.686   5.701  0.4042 -0.4159  0.0937
   44DOPE  H18X 5674   3.698   2.795   5.705 -0.9077 -0.5298 -2.2010
   44DOPE  H18Y 5675   3.724   2.652   5.806  0.1292 -0.2760  0.1529
   44DOPE  H18Z 5676   3.818   2.671   5.651 -0.1554 -1.2951 -0.7707
   45DOPE     N 5677   3.912   2.872   3.308  0.2944 -0.0522  0.0449
   45DOPE   HN1 5678   3.837   2.924   3.258 -1.1000 -1.1154  0.9633
   45DOPE   HN2 5679   3.907   2.772   3.281 -2.3780 -0.4707  1.7903
   45DOPE   HN3 5680   3.883   2.875   3.408 -3.8921 -1.3693 -0.9394
   45DOPE   C12 5681   4.049   2.913   3.295 -0.4215 -0.1628  0.3938
   45DOPE  H12A 5682   4.070   3.005   3.354  0.1713  0.2065 -0.3783
   45DOPE  H12B 5683   4.075   2.932   3.189 -1.0314 -0.5767  0.1659
   45DOPE   C11 5684   4.146   2.814   3.345  0.1099 -0.3375 -1.2019
   45DOPE  H11A 5685   4.132   2.802   3.455 -0.3140 -0.2384 -1.2430
   45DOPE  H11B 5686   4.248   2.847   3.317  0.5599  0.9758  1.6453
   45DOPE     P 5687   4.192   2.558   3.301 -0.3596 -0.0983  0.5155
   45DOPE   O13 5688   4.314   2.555   3.216  0.5674 -0.4227 -0.5894
   45DOPE   O14 5689   4.107   2.437   3.294 -0.1095 -0.2134  0.2785
   45DOPE   O11 5690   4.228   2.570   3.452  0.5805  0.5712 -0.0288
   45DOPE   O12 5691   4.115   2.690   3.278  0.2112 -0.5139 -0.3212
   45DOPE    C1 5692   4.359   2.569   3.502 -0.2056 -0.0902  0.3576
   45DOPE    HA 5693   4.420   2.648   3.453 -1.0049 -0.0456 -0.5886
   45DOPE    HB 5694   4.404   2.469   3.485  1.0051  0.1700  1.8266
   45DOPE    C2 5695   4.360   2.581   3.657 -0.8332 -0.3564 -0.2056
   45DOPE    HS 5696   4.302   2.495   3.697  1.3362 -2.1437 -0.7151
   45DOPE   O21 5697   4.308   2.713   3.682  0.0632 -0.2819  0.1576
   45DOPE   C21 5698   4.180   2.727   3.714 -0.0561 -0.6196 -0.0913
   45DOPE   O22 5699   4.097   2.640   3.720  0.2130 -0.0502  0.3042
   45DOPE   C22 5700   4.145   2.872   3.745  0.5579  0.3675  0.7603
   45DOPE   H2R 5701   4.079   2.912   3.665  4.5454  1.8948 -2.0800
   45DOPE   H2S 5702   4.240   2.931   3.739 -0.3678  1.9548  1.1213
   45DOPE    C3 5703   4.501   2.579   3.714 -0.7635  0.2208  0.2871
   45DOPE    HX 5704   4.560   2.655   3.658  0.4480 -0.5985  0.4089
   45DOPE    HY 5705   4.550   2.479   3.719 -1.1002  0.0852  1.0057
   45DOPE   O31 5706   4.491   2.609   3.851 -0.0224 -0.2727  0.3750
   45DOPE   C31 5707   4.528   2.727   3.895  0.6144 -0.1399 -0.0020
   45DOPE   O32 5708   4.558   2.824   3.822 -0.4093  0.3529 -0.8186
   45DOPE   C32 5709   4.574   2.716   4.039 -0.2914  0.5028 -0.0602
   45DOPE   H2X 5710   4.528   2.624   4.082 -0.3567 -0.0332 -1.2486
   45DOPE   H2Y 5711   4.685   2.704   4.043 -0.4934 -1.4361  1.2873
   45DOPE   C23 5712   4.068   2.892   3.879 -0.6334  0.5187  0.0264
   45DOPE   H3R 5713   3.972   2.838   3.893 -0.1004 -0.0580  1.6781
   45DOPE   H3S 5714   4.038   2.999   3.883 -0.7603  0.4522  1.6639
   45DOPE   C24 5715   4.167   2.862   3.995  0.1411  0.0407 -0.2323
   45DOPE   H4R 5716   4.260   2.919   3.978  0.3227  0.4571  1.9188
   45DOPE   H4S 5717   4.194   2.755   3.982  1.2790  0.3883 -0.8521
   45DOPE   C25 5718   4.104   2.881   4.132 -0.3167  0.2029 -0.4276
   45DOPE   H5R 5719   4.014   2.818   4.148  0.9586 -1.7098 -0.3919
   45DOPE   H5S 5720   4.070   2.981   4.163 -3.0806 -1.1157  1.1390
   45DOPE   C26 5721   4.202   2.836   4.242  0.1700 -0.1336 -0.0875
   45DOPE   H6R 5722   4.287   2.906   4.254  0.7804 -0.8109 -0.3484
   45DOPE   H6S 5723   4.243   2.741   4.202  0.3790  0.1802 -0.6271
   45DOPE   C27 5724   4.120   2.820   4.372 -0.8701  0.4442 -0.7002
   45DOPE   H7R 5725   4.029   2.759   4.352 -1.8021  0.5366  2.6463
   45DOPE   H7S 5726   4.084   2.922   4.399  0.5186  1.5159 -2.6708
   45DOPE   C28 5727   4.202   2.755   4.493  0.1131 -0.7970  0.2886
   45DOPE   H8R 5728   4.257   2.673   4.443  0.4202 -1.0621  1.0502
   45DOPE   H8S 5729   4.127   2.708   4.560  0.0248 -1.9725 -0.6058
   45DOPE   C29 5730   4.288   2.856   4.563 -0.7324  0.3030  0.4020
   45DOPE   H9R 5731   4.389   2.877   4.524 -0.4071  2.7129  2.2947
   45DOPE  C210 5732   4.251   2.917   4.678  0.4107 -0.1023  0.7450
   45DOPE  H10R 5733   4.319   2.992   4.722 -0.6825  1.5251 -0.2079
   45DOPE  C211 5734   4.114   2.906   4.734  0.5057 -0.0328 -0.3126
   45DOPE  H11R 5735   4.133   2.870   4.837 -0.4615  1.4297  0.4130
   45DOPE  H11S 5736   4.056   2.824   4.688 -0.5629  0.2638  0.4889
   45DOPE  C212 5737   4.023   3.033   4.715 -0.4013  0.5870 -0.2165
   45DOPE  H12R 5738   3.920   2.992   4.729 -0.1450 -0.2423 -0.6964
   45DOPE  H12S 5739   4.029   3.072   4.611 -2.7024  0.1726 -0.5757
   45DOPE  C213 5740   4.046   3.137   4.831  0.7433 -0.5646  0.3444
   45DOPE  H13R 5741   4.141   3.188   4.807  0.0252  0.3122 -0.7234
   45DOPE  H13S 5742   4.059   3.075   4.923 -0.3536 -0.1375  0.7972
   45DOPE  C214 5743   3.932   3.245   4.840 -0.9309  0.1065 -0.2728
   45DOPE  H14R 5744   3.950   3.315   4.756  2.9345 -0.9060 -0.4521
   45DOPE  H14S 5745   3.945   3.291   4.940 -0.1058  0.9189 -0.7445
   45DOPE  C215 5746   3.785   3.205   4.829  0.5189 -0.2424 -0.5610
   45DOPE  H15R 5747   3.766   3.108   4.880  0.8015 -0.2004 -0.3738
   45DOPE  H15S 5748   3.756   3.191   4.722 -1.0391 -1.3784 -0.0390
   45DOPE  C216 5749   3.687   3.318   4.890 -1.0849  0.5512  0.0313
   45DOPE  H16R 5750   3.722   3.419   4.860  1.5390  0.0760  1.1809
   45DOPE  H16S 5751   3.695   3.307   5.000  0.6021  0.2773 -0.0853
   45DOPE  C217 5752   3.549   3.302   4.838  0.5755  0.7398  0.2225
   45DOPE  H17R 5753   3.569   3.325   4.732  0.7297 -1.7159 -0.3519
   45DOPE  H17S 5754   3.475   3.373   4.881  0.4272  0.1461  0.9891
   45DOPE  C218 5755   3.495   3.157   4.848  0.0206  0.4497  0.1701
   45DOPE  H18R 5756   3.513   3.136   4.955 -0.8727  1.6588  0.5734
   45DOPE  H18S 5757   3.549   3.087   4.780 -0.5801 -2.1375  2.1922
   45DOPE  H18T 5758   3.387   3.141   4.826  0.0918 -2.3102  1.4319
   45DOPE   C33 5759   4.552   2.847   4.113  0.2653  0.9899 -0.0440
   45DOPE   H3X 5760   4.453   2.895   4.097  0.7260  1.4136 -1.8415
   45DOPE   H3Y 5761   4.618   2.913   4.053  0.7898  0.2318 -0.3271
   45DOPE   C34 5762   4.596   2.848   4.252 -0.4342  0.0111 -0.2660
   45DOPE   H4X 5763   4.523   2.790   4.312  0.3074 -1.1359 -0.4459
   45DOPE   H4Y 5764   4.696   2.801   4.258  0.3164  1.3975 -1.3549
   45DOPE   C35 5765   4.593   2.985   4.312 -0.1826 -0.3282  0.4065
   45DOPE   H5X 5766   4.483   3.001   4.322 -0.4531 -0.8969 -1.3590
   45DOPE   H5Y 5767   4.633   3.066   4.247 -0.1393  0.0859  0.9413
   45DOPE   C36 5768   4.669   2.979   4.446  0.3321 -0.0775 -0.0929
   45DOPE   H6X 5769   4.779   2.973   4.435  0.1664 -3.2417 -1.0375
   45DOPE   H6Y 5770   4.633   2.883   4.489 -0.8955  0.5892  0.4179
   45DOPE   C37 5771   4.635   3.099   4.537 -0.6090  0.3051  0.2089
   45DOPE   H7X 5772   4.665   3.193   4.486  0.2561 -0.5175 -0.8354
   45DOPE   H7Y 5773   4.526   3.104   4.561 -0.3762  0.4019  1.3349
   45DOPE   C38 5774   4.698   3.093   4.675 -0.6162 -0.6036  0.3067
   45DOPE   H8X 5775   4.806   3.099   4.648 -0.9196 -0.8847 -1.0573
   45DOPE   H8Y 5776   4.668   3.005   4.735  0.9854 -1.4696 -0.1056
   45DOPE   C39 5777   4.666   3.212   4.762 -0.7286  0.0109  0.5245
   45DOPE   H9X 5778   4.614   3.295   4.712 -1.4709 -1.0762 -0.5447
   45DOPE  C310 5779   4.659   3.204   4.894 -0.2329  0.5901  0.5139
   45DOPE  H10X 5780   4.642   3.299   4.947  0.0550  1.4178 -0.8390
   45DOPE  C311 5781   4.682   3.090   4.985 -0.6463 -0.4533  0.5431
   45DOPE  H11X 5782   4.601   3.065   5.057 -1.8240  0.2881 -0.4788
   45DOPE  H11Y 5783   4.698   2.994   4.930  2.7138  0.4327 -0.2525
   45DOPE  C312 5784   4.814   3.120   5.052  0.0635 -0.0180 -0.1301
   45DOPE  H12X 5785   4.887   3.148   4.973 -1.0646  2.8705 -0.2776
   45DOPE  H12Y 5786   4.846   3.019   5.084 -1.0470 -0.3537 -0.0196
   45DOPE  C313 5787   4.831   3.219   5.171 -0.0171 -0.6894  0.3416
   45DOPE  H13X 5788   4.938   3.247   5.181 -0.2573  0.5725 -0.3754
   45DOPE  H13Y 5789   4.776   3.314   5.151  1.1132 -0.5942 -2.7516
   45DOPE  C314 5790   4.780   3.162   5.296 -0.1969  0.0613 -0.0577
   45DOPE  H14X 5791   4.682   3.112   5.278 -0.4354  0.1473  0.9375
   45DOPE  H14Y 5792   4.763   3.244   5.369 -3.3376  0.2820 -0.8839
   45DOPE  C315 5793   4.858   3.047   5.356  0.7657  0.0158  0.1157
   45DOPE  H15X 5794   4.967   3.067   5.367  1.0034 -0.7521 -0.7792
   45DOPE  H15Y 5795   4.839   2.949   5.307  0.0793 -0.4698  1.3191
   45DOPE  C316 5796   4.815   3.042   5.503  0.0575  0.1487 -0.0804
   45DOPE  H16X 5797   4.705   3.030   5.504  0.0938 -0.2011  0.5301
   45DOPE  H16Y 5798   4.848   3.132   5.559  2.8354 -1.2849  0.7776
   45DOPE  C317 5799   4.878   2.917   5.565 -0.8284  0.0443 -0.8488
   45DOPE  H17X 5800   4.851   2.826   5.507 -0.0236 -1.6203  1.2333
   45DOPE  H17Y 5801   4.988   2.922   5.551 -0.5032  1.0353  1.4986
   45DOPE  C318 5802   4.844   2.903   5.719 -0.1052 -0.2281  0.0574
   45DOPE  H18X 5803   4.882   2.809   5.764  0.1108 -0.7063 -1.0787
   45DOPE  H18Y 5804   4.869   2.984   5.791 -1.2563 -0.2614  0.5218
   45DOPE  H18Z 5805   4.734   2.908   5.737 -0.2889 -0.4932 -0.9387
   46DOPE     N 5806   3.491   0.726   2.873 -0.4074  0.1043 -0.0544
   46DOPE   HN1 5807   3.494   0.728   2.769 -1.0922  1.0208 -0.0669
   46DOPE   HN2 5808   3.572   0.776   2.915 -0.9267  0.6546  0.2990
   46DOPE   HN3 5809   3.501   0.623   2.890 -1.2279 -0.3470 -2.0409
   46DOPE   C12 5810   3.367   0.794   2.929  0.4301  0.3451  0.8167
   46DOPE  H12A 5811   3.298   0.716   2.966  1.2986 -0.5300  0.6229
   46DOPE  H12B 5812   3.317   0.834   2.838  0.2275  0.4627  0.9809
   46DOPE   C11 5813   3.397   0.898   3.034  0.5124 -0.0178 -1.1324
   46DOPE  H11A 5814   3.434   0.841   3.122 -2.6150 -3.8965 -2.0620
   46DOPE  H11B 5815   3.309   0.954   3.072  0.0746 -1.4875  0.1252
   46DOPE     P 5816   3.566   1.093   3.084  0.0885 -0.0812 -0.0594
   46DOPE   O13 5817   3.457   1.180   3.117  0.1896  0.8038  0.5641
   46DOPE   O14 5818   3.683   1.148   3.013 -0.0453  0.2811  0.0171
   46DOPE   O11 5819   3.603   1.009   3.214  0.0145  0.5939  0.1940
   46DOPE   O12 5820   3.504   0.981   2.987  0.4995 -0.6845  0.3642
   46DOPE    C1 5821   3.675   1.079   3.316 -0.5151  0.3816  0.5260
   46DOPE    HA 5822   3.697   1.185   3.292  1.0011 -0.0263  0.0318
   46DOPE    HB 5823   3.773   1.028   3.324  0.4001  1.8442 -0.7104
   46DOPE    C2 5824   3.629   1.074   3.462 -0.2796  0.1842  0.1947
   46DOPE    HS 5825   3.542   1.140   3.476 -1.2916 -1.0782  0.0762
   46DOPE   O21 5826   3.736   1.095   3.550 -0.5683 -0.0814  0.6747
   46DOPE   C21 5827   3.713   1.157   3.662 -0.3561  0.8984 -1.1152
   46DOPE   O22 5828   3.611   1.215   3.691  0.1434  0.1020  0.3053
   46DOPE   C22 5829   3.846   1.152   3.744 -0.3193 -0.2748 -0.0203
   46DOPE   H2R 5830   3.928   1.195   3.682  1.7088 -0.5736  2.3157
   46DOPE   H2S 5831   3.876   1.048   3.769 -0.1068 -0.8913 -2.5611
   46DOPE    C3 5832   3.570   0.930   3.494  0.0384 -0.4484 -0.0182
   46DOPE    HX 5833   3.641   0.849   3.469 -0.3568 -0.7823 -0.0685
   46DOPE    HY 5834   3.485   0.917   3.423  0.3563  1.7046 -0.8898
   46DOPE   O31 5835   3.530   0.916   3.632  0.4205  0.1683 -0.4137
   46DOPE   C31 5836   3.422   0.976   3.673 -0.0894 -0.6608 -1.2588
   46DOPE   O32 5837   3.347   1.049   3.605  0.1038  0.3951 -0.3181
   46DOPE   C32 5838   3.404   0.961   3.826  0.1854 -0.4199  0.3967
   46DOPE   H2X 5839   3.457   1.048   3.871 -1.0819  0.2997  0.5401
   46DOPE   H2Y 5840   3.299   0.974   3.861  0.0720 -1.3344  0.4245
   46DOPE   C23 5841   3.829   1.230   3.879 -0.1869 -0.2901  0.2429
   46DOPE   H3R 5842   3.741   1.189   3.934 -1.5690  1.1838 -0.7779
   46DOPE   H3S 5843   3.812   1.336   3.853 -0.1790 -0.2651  0.3378
   46DOPE   C24 5844   3.951   1.230   3.967 -0.8091 -0.1197  0.2818
   46DOPE   H4R 5845   4.034   1.264   3.902 -1.6431 -0.5152 -1.0326
   46DOPE   H4S 5846   3.975   1.124   3.994 -0.9729 -0.8716 -2.2523
   46DOPE   C25 5847   3.928   1.310   4.098  0.1506 -0.3632  0.1261
   46DOPE   H5R 5848   3.836   1.271   4.147 -0.7262 -0.8906 -1.8528
   46DOPE   H5S 5849   3.909   1.419   4.083 -1.5601 -0.7500 -0.8075
   46DOPE   C26 5850   4.037   1.282   4.196  0.1292 -0.3987  0.4876
   46DOPE   H6R 5851   4.137   1.309   4.157  0.7581 -1.3730  1.3857
   46DOPE   H6S 5852   4.050   1.173   4.211  1.8877 -0.2366  0.3406
   46DOPE   C27 5853   4.022   1.352   4.331  0.1495 -0.1016 -0.0862
   46DOPE   H7R 5854   3.946   1.297   4.390 -0.5902  2.3226  1.3578
   46DOPE   H7S 5855   3.979   1.452   4.312 -0.6644 -0.2305  0.9667
   46DOPE   C28 5856   4.150   1.367   4.403  0.0525  0.1976 -0.5902
   46DOPE   H8R 5857   4.234   1.391   4.335 -0.3713  1.4484 -0.6988
   46DOPE   H8S 5858   4.177   1.268   4.445  1.5765  0.7059 -0.3038
   46DOPE   C29 5859   4.139   1.462   4.523  0.3562 -0.1116  0.0985
   46DOPE   H9R 5860   4.094   1.560   4.503 -0.9834 -0.7396 -0.1396
   46DOPE  C210 5861   4.164   1.430   4.645 -0.9666 -0.8634 -0.0100
   46DOPE  H10R 5862   4.143   1.503   4.725 -0.6070 -2.1772  1.3332
   46DOPE  C211 5863   4.223   1.297   4.692 -0.6693 -0.0043 -0.7884
   46DOPE  H11R 5864   4.298   1.269   4.615 -1.5108 -3.4333 -0.5576
   46DOPE  H11S 5865   4.139   1.225   4.679 -0.4279 -0.7862  1.4714
   46DOPE  C212 5866   4.291   1.275   4.832  0.3137 -0.1643 -0.1908
   46DOPE  H12R 5867   4.377   1.344   4.844  0.0915  0.3277 -1.2412
   46DOPE  H12S 5868   4.328   1.170   4.836 -1.2659 -0.8705 -2.0696
   46DOPE  C213 5869   4.190   1.298   4.942  0.0770 -0.5704 -0.7822
   46DOPE  H13R 5870   4.102   1.234   4.919 -1.0389  0.5337  0.3203
   46DOPE  H13S 5871   4.152   1.402   4.937  0.4039 -0.4194 -0.1642
   46DOPE  C214 5872   4.248   1.253   5.074 -0.4917  0.1085  0.7897
   46DOPE  H14R 5873   4.349   1.299   5.077 -0.4024  0.1561 -1.4216
   46DOPE  H14S 5874   4.268   1.144   5.074  1.2148  0.3835 -0.4973
   46DOPE  C215 5875   4.173   1.301   5.199  0.0553 -0.4607 -0.6678
   46DOPE  H15R 5876   4.067   1.269   5.193  0.2467 -1.5043  0.9002
   46DOPE  H15S 5877   4.188   1.411   5.206 -0.4742 -0.4644  0.8182
   46DOPE  C216 5878   4.236   1.238   5.325 -0.1886 -0.0927  0.7792
   46DOPE  H16R 5879   4.335   1.285   5.345  0.5873 -0.6671 -1.4941
   46DOPE  H16S 5880   4.261   1.132   5.302 -0.0339  0.2292 -0.6211
   46DOPE  C217 5881   4.163   1.263   5.453  1.2497  0.1787  0.1907
   46DOPE  H17R 5882   4.061   1.224   5.436  1.5050 -1.4023  2.0001
   46DOPE  H17S 5883   4.149   1.370   5.480 -0.5508  0.2560 -0.8789
   46DOPE  C218 5884   4.226   1.194   5.576  0.5113 -0.2144 -0.4523
   46DOPE  H18R 5885   4.261   1.090   5.555 -0.9356 -1.1602  1.5044
   46DOPE  H18S 5886   4.156   1.206   5.661 -0.7591  2.1912 -1.7307
   46DOPE  H18T 5887   4.316   1.251   5.606  0.1206  0.1125  0.1216
   46DOPE   C33 5888   3.459   0.824   3.882 -0.3186 -0.1398  0.6285
   46DOPE   H3X 5889   3.545   0.780   3.828 -1.0590 -2.0900  0.9599
   46DOPE   H3Y 5890   3.375   0.752   3.870 -0.5204  0.3000 -0.8260
   46DOPE   C34 5891   3.503   0.832   4.025  0.1346 -0.2881 -0.3831
   46DOPE   H4X 5892   3.432   0.904   4.072  0.8744  0.5699 -0.5588
   46DOPE   H4Y 5893   3.497   0.728   4.064 -1.3419 -0.0423  0.1147
   46DOPE   C35 5894   3.648   0.878   4.031 -0.0542 -0.3963 -0.5819
   46DOPE   H5X 5895   3.666   0.955   3.953 -0.0098  1.0251  0.7619
   46DOPE   H5Y 5896   3.713   0.791   4.010  1.3630  0.4376  0.1480
   46DOPE   C36 5897   3.684   0.928   4.171  0.5598  0.2549  0.2013
   46DOPE   H6X 5898   3.792   0.951   4.185  1.2923 -1.6760 -1.8051
   46DOPE   H6Y 5899   3.652   0.849   4.242  1.0133  0.6833  0.9022
   46DOPE   C37 5900   3.623   1.059   4.197  0.2287 -0.3886 -0.2192
   46DOPE   H7X 5901   3.641   1.122   4.107 -3.1823  0.2356 -0.6203
   46DOPE   H7Y 5902   3.512   1.052   4.191  0.1474 -0.5020  1.0878
   46DOPE   C38 5903   3.674   1.126   4.323  0.4229 -0.2397  0.3106
   46DOPE   H8X 5904   3.679   1.236   4.305  1.7642 -0.2632  0.4574
   46DOPE   H8Y 5905   3.778   1.096   4.344  0.7013  0.4661 -0.0179
   46DOPE   C39 5906   3.576   1.108   4.442 -0.3066  0.7041  0.4554
   46DOPE   H9X 5907   3.468   1.104   4.421 -0.4802  1.1051  1.2431
   46DOPE  C310 5908   3.603   1.057   4.562 -0.5247  0.0042  0.3992
   46DOPE  H10X 5909   3.523   1.063   4.638 -0.1295 -0.6150  0.8677
   46DOPE  C311 5910   3.736   1.008   4.609  0.3737 -0.8244  0.1572
   46DOPE  H11X 5911   3.722   0.907   4.654  0.5560 -0.1336  1.8337
   46DOPE  H11Y 5912   3.811   0.980   4.532 -0.7186 -1.8799 -0.5610
   46DOPE  C312 5913   3.820   1.090   4.708  0.1078 -0.2129 -0.4895
   46DOPE  H12X 5914   3.843   1.187   4.660 -2.9593  0.5653 -0.5744
   46DOPE  H12Y 5915   3.912   1.032   4.734 -0.6407 -0.8795  0.7843
   46DOPE  C313 5916   3.761   1.120   4.848 -0.0351 -0.2904  0.1323
   46DOPE  H13X 5917   3.838   1.166   4.913 -0.0162 -1.3672  0.8909
   46DOPE  H13Y 5918   3.673   1.188   4.842 -0.4373 -0.8571 -0.6199
   46DOPE  C314 5919   3.712   0.989   4.915  0.5365 -0.3985  0.5120
   46DOPE  H14X 5920   3.801   0.923   4.926  0.5193 -0.6776 -0.8630
   46DOPE  H14Y 5921   3.639   0.940   4.846 -0.1412  0.2441  0.7562
   46DOPE  C315 5922   3.650   1.013   5.050 -0.3167  0.8003 -0.1800
   46DOPE  H15X 5923   3.629   0.916   5.099  0.9948  0.7774  0.3774
   46DOPE  H15Y 5924   3.552   1.064   5.036 -1.0116 -0.2540  0.6832
   46DOPE  C316 5925   3.740   1.082   5.157  0.0216 -0.1499  0.1433
   46DOPE  H16X 5926   3.788   1.177   5.125  0.4102 -0.2244  0.5029
   46DOPE  H16Y 5927   3.825   1.014   5.181  1.6071  1.1796 -1.3691
   46DOPE  C317 5928   3.664   1.108   5.293 -0.1254  0.3462  0.1980
   46DOPE  H17X 5929   3.577   1.175   5.275  0.9513  1.2875 -1.8283
   46DOPE  H17Y 5930   3.631   1.005   5.319 -0.0622  0.6645  1.6112
   46DOPE  C318 5931   3.751   1.166   5.398 -0.0274  0.8885 -0.2550
   46DOPE  H18X 5932   3.830   1.104   5.445 -0.3404  0.4774 -0.2672
   46DOPE  H18Y 5933   3.796   1.265   5.374 -0.3938  0.9335 -0.7773
   46DOPE  H18Z 5934   3.684   1.184   5.485  1.0190  2.5008  0.2535
   47DOPE     N 5935   2.738   5.010   2.821 -0.1587  0.1968  0.5751
   47DOPE   HN1 5936   2.780   5.080   2.757 -0.0204  0.5821  1.0805
   47DOPE   HN2 5937   2.763   4.922   2.773 -0.2553  0.2728  0.3837
   47DOPE   HN3 5938   2.635   5.010   2.808 -0.2793 -0.7773  1.4539
   47DOPE   C12 5939   2.773   5.021   2.969 -0.2229 -0.1952 -0.3765
   47DOPE  H12A 5940   2.711   4.940   3.013 -2.2301  0.6075 -1.5834
   47DOPE  H12B 5941   2.739   5.122   3.000  1.3980  0.4060 -0.4539
   47DOPE   C11 5942   2.928   5.000   2.988 -0.8147 -0.1379 -0.3500
   47DOPE  H11A 5943   2.960   5.017   3.093  2.1454 -0.5250 -1.1000
   47DOPE  H11B 5944   2.971   5.086   2.932  1.3652 -2.1395 -1.9633
   47DOPE     P 5945   2.922   4.743   2.960 -0.3090 -0.1368  0.1429
   47DOPE   O13 5946   3.022   4.634   2.944 -1.1042 -0.0634  0.1745
   47DOPE   O14 5947   2.797   4.733   2.878 -0.4739 -0.5164 -0.0759
   47DOPE   O11 5948   2.876   4.741   3.114 -0.0539 -0.0190 -0.5786
   47DOPE   O12 5949   2.983   4.888   2.932 -0.2601  0.0569 -0.1725
   47DOPE    C1 5950   2.977   4.698   3.208  0.4268  0.0833 -0.7146
   47DOPE    HA 5951   3.070   4.760   3.206  0.3362  0.2006 -1.4367
   47DOPE    HB 5952   3.011   4.595   3.187  1.6355  0.3719 -0.3218
   47DOPE    C2 5953   2.916   4.684   3.362 -0.2242 -0.6015  1.2024
   47DOPE    HS 5954   2.989   4.631   3.426 -0.2353 -1.4859  0.5113
   47DOPE   O21 5955   2.793   4.621   3.354 -0.4474 -0.0073  0.0093
   47DOPE   C21 5956   2.785   4.488   3.352 -0.1319 -0.3450  0.0484
   47DOPE   O22 5957   2.879   4.411   3.355  0.0991 -0.3762 -0.0262
   47DOPE   C22 5958   2.639   4.450   3.352  0.2751  0.4071  0.5771
   47DOPE   H2R 5959   2.642   4.359   3.289  0.2627  1.0745 -0.4186
   47DOPE   H2S 5960   2.589   4.539   3.308  0.2594  0.9523  1.6617
   47DOPE    C3 5961   2.896   4.827   3.417 -0.7529 -0.4984 -0.7853
   47DOPE    HX 5962   2.841   4.881   3.338 -2.8313  0.5312  1.2205
   47DOPE    HY 5963   3.000   4.865   3.427 -0.7279 -0.6889 -0.2578
   47DOPE   O31 5964   2.819   4.842   3.543 -0.1194 -0.4700  0.3764
   47DOPE   C31 5965   2.888   4.838   3.658 -0.8620  0.1938  0.5890
   47DOPE   O32 5966   3.008   4.810   3.665 -0.2042 -0.0001 -0.9454
   47DOPE   C32 5967   2.790   4.849   3.782 -0.4367 -0.2801 -0.1137
   47DOPE   H2X 5968   2.734   4.944   3.776 -0.8551 -0.2831  2.5046
   47DOPE   H2Y 5969   2.707   4.776   3.766 -1.9284  1.1294  0.8925
   47DOPE   C23 5970   2.585   4.421   3.492  0.4942  0.2300 -0.2174
   47DOPE   H3R 5971   2.646   4.363   3.564  1.8049  2.2477  0.3733
   47DOPE   H3S 5972   2.486   4.372   3.484  0.3308  0.2876  1.2896
   47DOPE   C24 5973   2.554   4.552   3.569 -0.6518 -0.3154  0.2236
   47DOPE   H4R 5974   2.510   4.611   3.486 -0.8678 -2.2647 -1.1250
   47DOPE   H4S 5975   2.653   4.594   3.596 -0.1892 -1.4942  0.4377
   47DOPE   C25 5976   2.462   4.542   3.685 -0.4820  0.2364 -0.0591
   47DOPE   H5R 5977   2.368   4.488   3.662  0.3064 -1.1283 -0.1875
   47DOPE   H5S 5978   2.431   4.641   3.725 -2.1949 -0.4925  0.5063
   47DOPE   C26 5979   2.537   4.466   3.799  0.6339 -0.0574 -0.9273
   47DOPE   H6R 5980   2.648   4.471   3.794  0.7072  2.8843  0.9279
   47DOPE   H6S 5981   2.500   4.362   3.795 -1.7937  0.6740  0.6477
   47DOPE   C27 5982   2.504   4.524   3.937  0.2748 -0.3560 -0.1158
   47DOPE   H7R 5983   2.410   4.580   3.924  1.5175  1.2383 -3.2588
   47DOPE   H7S 5984   2.573   4.607   3.961  1.0008 -0.5859 -1.3065
   47DOPE   C28 5985   2.499   4.426   4.058 -0.3381  0.5619 -0.5038
   47DOPE   H8R 5986   2.444   4.333   4.031  0.7484 -1.3428  3.1856
   47DOPE   H8S 5987   2.436   4.475   4.135 -0.4179  0.5031 -0.5310
   47DOPE   C29 5988   2.640   4.391   4.103  0.1071  0.3206 -0.1778
   47DOPE   H9R 5989   2.711   4.362   4.024  0.1842  1.0184 -0.3708
   47DOPE  C210 5990   2.694   4.400   4.227 -0.1151 -0.3012 -0.3746
   47DOPE  H10R 5991   2.792   4.354   4.246  0.4942  0.8945 -0.5108
   47DOPE  C211 5992   2.618   4.453   4.346  0.2546 -0.1526  0.2990
   47DOPE  H11R 5993   2.538   4.519   4.307 -0.5648 -1.9010 -1.0948
   47DOPE  H11S 5994   2.683   4.517   4.410 -0.6508  1.3517 -0.2191
   47DOPE  C212 5995   2.555   4.348   4.444 -0.1774  0.0400  0.7624
   47DOPE  H12R 5996   2.489   4.282   4.385  1.5624 -0.0183 -1.2286
   47DOPE  H12S 5997   2.483   4.389   4.519  0.8165  1.1155  1.1699
   47DOPE  C213 5998   2.665   4.276   4.518 -0.1820  0.3330 -0.8339
   47DOPE  H13R 5999   2.718   4.349   4.583 -0.1352  0.6162 -1.1916
   47DOPE  H13S 6000   2.739   4.228   4.451 -1.4303 -2.3571 -0.4146
   47DOPE  C214 6001   2.611   4.172   4.619  0.1020 -0.1197  0.5430
   47DOPE  H14R 6002   2.565   4.090   4.559  1.0140 -0.2756  0.0437
   47DOPE  H14S 6003   2.526   4.215   4.677 -0.1498 -1.7223  1.4460
   47DOPE  C215 6004   2.713   4.116   4.711 -0.1213 -0.0143  0.0312
   47DOPE  H15R 6005   2.757   4.196   4.775 -0.1788  0.2343 -0.2396
   47DOPE  H15S 6006   2.787   4.066   4.646 -0.5691 -0.0505 -0.4616
   47DOPE  C216 6007   2.647   4.009   4.806 -0.7356 -0.0841  0.7062
   47DOPE  H16R 6008   2.564   4.060   4.859 -1.3399  0.1847 -0.4502
   47DOPE  H16S 6009   2.719   3.969   4.881 -3.3486 -3.9553  1.4519
   47DOPE  C217 6010   2.594   3.880   4.744 -0.7229 -0.2071  0.7878
   47DOPE  H17R 6011   2.674   3.825   4.690 -2.4928 -1.5442 -0.5825
   47DOPE  H17S 6012   2.527   3.897   4.658  1.6061  2.5735 -0.6472
   47DOPE  C218 6013   2.535   3.785   4.849  0.1622  0.6388  0.3473
   47DOPE  H18R 6014   2.488   3.704   4.790  1.4666  0.6963 -0.8395
   47DOPE  H18S 6015   2.457   3.845   4.900  1.0383  3.9945 -1.9133
   47DOPE  H18T 6016   2.616   3.743   4.912 -0.2486 -1.3129 -0.3432
   47DOPE   C33 6017   2.858   4.846   3.918  0.2089  0.7134 -0.4324
   47DOPE   H3X 6018   2.933   4.928   3.920 -1.4502  2.3170 -1.3329
   47DOPE   H3Y 6019   2.898   4.744   3.936 -1.0052 -0.1120 -2.1342
   47DOPE   C34 6020   2.754   4.878   4.024  0.9329  0.2566  0.0731
   47DOPE   H4X 6021   2.700   4.967   3.987 -0.3540 -0.4412  0.2351
   47DOPE   H4Y 6022   2.675   4.801   4.024  0.0332  1.0917  2.4082
   47DOPE   C35 6023   2.816   4.914   4.156  0.0618  0.1640  0.3283
   47DOPE   H5X 6024   2.870   5.010   4.149  0.4982  0.0133  1.3845
   47DOPE   H5Y 6025   2.899   4.842   4.172 -0.0626  0.0963  0.6931
   47DOPE   C36 6026   2.708   4.879   4.272 -0.1646 -0.5108 -0.0469
   47DOPE   H6X 6027   2.698   4.768   4.273  0.4514 -0.5870  1.9057
   47DOPE   H6Y 6028   2.605   4.914   4.248 -0.1926  0.5011  1.4274
   47DOPE   C37 6029   2.756   4.935   4.408  1.2208 -1.2105 -0.2334
   47DOPE   H7X 6030   2.857   4.892   4.429  1.4278 -0.1002  1.2456
   47DOPE   H7Y 6031   2.776   5.042   4.388  0.9174 -1.2552 -0.7764
   47DOPE   C38 6032   2.648   4.916   4.529 -0.1756  0.0486 -0.1444
   47DOPE   H8X 6033   2.562   4.973   4.488  0.6450  2.1497  0.8801
   47DOPE   H8Y 6034   2.684   4.971   4.618 -0.0046 -0.5108  0.1328
   47DOPE   C39 6035   2.615   4.779   4.563  0.0053  0.7131  0.1490
   47DOPE   H9X 6036   2.513   4.747   4.536  1.2291 -3.3689 -0.3671
   47DOPE  C310 6037   2.695   4.678   4.613 -0.3784  0.5762 -0.8206
   47DOPE  H10X 6038   2.650   4.579   4.629  2.4938 -0.4384  2.2394
   47DOPE  C311 6039   2.837   4.683   4.654  0.1344  0.1374 -0.3245
   47DOPE  H11X 6040   2.892   4.588   4.635  1.2722  0.9888 -1.5274
   47DOPE  H11Y 6041   2.899   4.757   4.600  1.4421 -0.8706 -0.2571
   47DOPE  C312 6042   2.856   4.715   4.801  0.9742 -0.5235 -0.0097
   47DOPE  H12X 6043   2.828   4.622   4.856 -2.7435  0.3248 -0.1932
   47DOPE  H12Y 6044   2.800   4.805   4.835  0.9692 -0.6065  0.2053
   47DOPE  C313 6045   3.006   4.735   4.838 -0.3390  0.7158  0.1003
   47DOPE  H13X 6046   3.057   4.654   4.781 -0.2270  0.0563  1.1266
   47DOPE  H13Y 6047   3.047   4.826   4.789 -1.0075  0.6342 -0.6342
   47DOPE  C314 6048   3.037   4.728   4.993  0.3060  0.7421 -0.4493
   47DOPE  H14X 6049   2.992   4.638   5.040 -0.9373  0.8850 -1.3131
   47DOPE  H14Y 6050   2.981   4.814   5.035 -1.7211  0.7676 -2.9918
   47DOPE  C315 6051   3.190   4.737   5.019 -1.0116 -0.1190 -0.7927
   47DOPE  H15X 6052   3.222   4.826   4.961  0.8072 -1.1004 -1.3682
   47DOPE  H15Y 6053   3.241   4.645   4.984  0.6034  0.1965  0.6260
   47DOPE  C316 6054   3.216   4.750   5.170 -0.0696 -0.6390 -0.3201
   47DOPE  H16X 6055   3.125   4.744   5.234  0.1331  1.4198  0.2225
   47DOPE  H16Y 6056   3.255   4.853   5.182  0.6987 -1.1941  2.6415
   47DOPE  C317 6057   3.301   4.642   5.236  0.1738 -0.0478  0.3202
   47DOPE  H17X 6058   3.399   4.650   5.185 -0.9909  0.3113 -1.9702
   47DOPE  H17Y 6059   3.305   4.681   5.340 -1.6022  1.4132 -0.0993
   47DOPE  C318 6060   3.248   4.502   5.235 -0.0519  0.1990 -0.2976
   47DOPE  H18X 6061   3.263   4.465   5.131 -0.5044 -2.4437  0.4814
   47DOPE  H18Y 6062   3.319   4.441   5.296  0.2218  1.2291  0.4263
   47DOPE  H18Z 6063   3.145   4.480   5.268 -0.3970  1.0801 -0.7642
   48DOPE     N 6064   6.186   1.101   3.658  0.4733 -0.4716 -0.5437
   48DOPE   HN1 6065   6.240   1.188   3.680 -0.7879  0.9997 -2.8550
   48DOPE   HN2 6066   6.166   1.106   3.556 -1.9301 -1.1946 -0.1828
   48DOPE   HN3 6067   6.091   1.102   3.702  0.8483  1.4912  0.3578
   48DOPE   C12 6068   6.258   0.976   3.710  0.6286 -0.0978  0.1067
   48DOPE  H12A 6069   6.179   0.920   3.764  0.6109 -0.2270 -0.0519
   48DOPE  H12B 6070   6.344   1.002   3.775  0.5232 -1.9269  1.0441
   48DOPE   C11 6071   6.296   0.888   3.592  0.2224 -0.6083 -0.2362
   48DOPE  H11A 6072   6.203   0.860   3.539 -1.0885  2.2862  0.3547
   48DOPE  H11B 6073   6.348   0.792   3.614 -1.9080 -1.8205 -0.2208
   48DOPE     P 6074   6.530   0.960   3.491 -0.2702 -0.0514 -0.6438
   48DOPE   O13 6075   6.552   1.090   3.423 -0.2825  0.1426 -0.1044
   48DOPE   O14 6076   6.564   0.836   3.418 -0.5184 -0.4375 -0.3816
   48DOPE   O11 6077   6.568   0.951   3.646  0.4879 -0.1428  0.2092
   48DOPE   O12 6078   6.373   0.966   3.501 -0.3154  0.0567  0.3539
   48DOPE    C1 6079   6.648   1.065   3.695  0.3377 -0.3292 -0.1765
   48DOPE    HA 6080   6.588   1.155   3.669 -1.7464 -1.9173 -1.1888
   48DOPE    HB 6081   6.747   1.080   3.646  0.0446  2.6789 -0.0031
   48DOPE    C2 6082   6.661   1.068   3.852  0.9226  0.5326  0.1880
   48DOPE    HS 6083   6.762   1.106   3.877  0.8535 -0.1276  1.5714
   48DOPE   O21 6084   6.652   0.930   3.903  0.5019 -0.2479  0.2874
   48DOPE   C21 6085   6.727   0.835   3.861  1.4403 -0.1363 -0.0665
   48DOPE   O22 6086   6.822   0.843   3.785 -0.2605  0.4638 -0.6336
   48DOPE   C22 6087   6.679   0.706   3.938 -0.8428  0.3195  0.3854
   48DOPE   H2R 6088   6.584   0.671   3.894 -0.7793  0.8721 -0.1996
   48DOPE   H2S 6089   6.663   0.748   4.040  1.5403  0.9822  0.5465
   48DOPE    C3 6090   6.548   1.149   3.923  0.2496 -0.1929  0.0916
   48DOPE    HX 6091   6.457   1.085   3.922  0.6001 -0.6975 -0.0376
   48DOPE    HY 6092   6.520   1.232   3.855  0.4757 -1.5981 -1.7995
   48DOPE   O31 6093   6.589   1.202   4.052 -0.5222 -0.2486 -0.2920
   48DOPE   C31 6094   6.516   1.154   4.154 -0.5329  0.9542 -0.4986
   48DOPE   O32 6095   6.436   1.060   4.149  0.3583  0.3292  0.2122
   48DOPE   C32 6096   6.559   1.221   4.281  0.2303 -0.1347 -0.8559
   48DOPE   H2X 6097   6.670   1.212   4.282  0.3425  1.0397  0.0111
   48DOPE   H2Y 6098   6.554   1.330   4.262 -0.8069 -0.4159 -2.3498
   48DOPE   C23 6099   6.775   0.591   3.925  0.4170  0.5026 -0.0559
   48DOPE   H3R 6100   6.870   0.612   3.978  0.9445 -0.9171 -0.3743
   48DOPE   H3S 6101   6.811   0.581   3.820  3.3799 -1.4078  1.0144
   48DOPE   C24 6102   6.717   0.462   3.981 -0.2598  0.3621 -0.7124
   48DOPE   H4R 6103   6.792   0.380   3.971 -0.9360 -0.4903  0.8258
   48DOPE   H4S 6104   6.623   0.435   3.929 -1.9140  2.7593  0.8214
   48DOPE   C25 6105   6.675   0.460   4.126  1.0515 -0.1462  0.3103
   48DOPE   H5R 6106   6.596   0.534   4.149 -0.5838 -1.2258 -1.5358
   48DOPE   H5S 6107   6.761   0.486   4.192  0.3311 -1.1024  1.6483
   48DOPE   C26 6108   6.630   0.323   4.177  0.0576 -0.0620 -0.2821
   48DOPE   H6R 6109   6.705   0.246   4.149 -1.1895 -1.1142 -0.8397
   48DOPE   H6S 6110   6.539   0.283   4.126  0.2999  0.3984 -1.0894
   48DOPE   C27 6111   6.600   0.323   4.335  0.2904  0.2831 -0.2578
   48DOPE   H7R 6112   6.532   0.410   4.341 -0.5481 -0.2700 -1.3089
   48DOPE   H7S 6113   6.690   0.343   4.397 -1.1693 -1.0716  2.4789
   48DOPE   C28 6114   6.538   0.191   4.383  0.7857  0.0904 -0.8867
   48DOPE   H8R 6115   6.606   0.107   4.363  0.2765 -0.4415 -0.4323
   48DOPE   H8S 6116   6.440   0.180   4.331  0.4028 -0.5197 -0.0533
   48DOPE   C29 6117   6.497   0.194   4.527 -0.1895  0.2907  0.3590
   48DOPE   H9R 6118   6.391   0.221   4.535 -1.1970 -2.6324 -1.4034
   48DOPE  C210 6119   6.569   0.159   4.629  0.0533 -0.0550 -0.5215
   48DOPE  H10R 6120   6.516   0.150   4.725  0.1404  0.3702 -0.4364
   48DOPE  C211 6121   6.712   0.103   4.643  0.1337  0.2028  0.0968
   48DOPE  H11R 6122   6.780   0.169   4.701 -1.0787 -0.8670  2.8559
   48DOPE  H11S 6123   6.764   0.103   4.544  0.5135  0.5088  0.2904
   48DOPE  C212 6124   6.714  -0.037   4.698 -0.0021 -0.4391 -0.1296
   48DOPE  H12R 6125   6.668  -0.048   4.799  0.0708  0.4378  0.0023
   48DOPE  H12S 6126   6.817  -0.077   4.716 -0.4137 -1.0820  0.9069
   48DOPE  C213 6127   6.646  -0.146   4.611 -0.0772  0.4173 -0.2677
   48DOPE  H13R 6128   6.540  -0.123   4.588  0.3178  0.7075 -1.9300
   48DOPE  H13S 6129   6.657  -0.235   4.677 -0.4175 -0.5257 -1.4485
   48DOPE  C214 6130   6.717  -0.177   4.479  0.4748  0.4400 -0.2212
   48DOPE  H14R 6131   6.813  -0.227   4.502 -0.0411 -0.9828 -1.0535
   48DOPE  H14S 6132   6.740  -0.084   4.423  0.6486 -0.2719 -1.3609
   48DOPE  C215 6133   6.627  -0.262   4.389  0.0862  0.3251  0.1378
   48DOPE  H15R 6134   6.541  -0.306   4.444  1.7100 -2.1421  0.8793
   48DOPE  H15S 6135   6.691  -0.347   4.357  1.2676  0.2501  2.5443
   48DOPE  C216 6136   6.588  -0.190   4.254  0.4054 -0.1221 -1.0064
   48DOPE  H16R 6137   6.509  -0.114   4.275  1.1594  0.2638  0.6014
   48DOPE  H16S 6138   6.541  -0.267   4.190 -1.0613  0.3289 -0.5357
   48DOPE  C217 6139   6.704  -0.135   4.172  0.8787 -0.6760 -0.3666
   48DOPE  H17R 6140   6.800  -0.171   4.215  0.8873 -0.5732 -0.3022
   48DOPE  H17S 6141   6.685  -0.026   4.183 -2.7616 -1.0071 -2.0460
   48DOPE  C218 6142   6.690  -0.162   4.030  0.3806 -0.0764 -0.2966
   48DOPE  H18R 6143   6.692  -0.272   4.011  1.1924  0.1515 -1.6863
   48DOPE  H18S 6144   6.768  -0.116   3.965 -1.2760 -0.2966 -2.5399
   48DOPE  H18T 6145   6.599  -0.118   3.984  0.3704  2.7063  2.1413
   48DOPE   C33 6146   6.499   1.179   4.415  0.2867 -1.2029 -0.6181
   48DOPE   H3X 6147   6.488   1.069   4.426 -0.4434 -1.2206 -1.3794
   48DOPE   H3Y 6148   6.395   1.220   4.416  1.0180  0.7737  0.5596
   48DOPE   C34 6149   6.579   1.233   4.528 -0.1667 -0.3257  0.4476
   48DOPE   H4X 6150   6.683   1.199   4.506  0.2460 -1.1962  3.2706
   48DOPE   H4Y 6151   6.585   1.344   4.522 -0.4950 -0.3724 -0.9677
   48DOPE   C35 6152   6.547   1.190   4.665  0.0271  1.0295 -0.0780
   48DOPE   H5X 6153   6.453   1.133   4.649  0.8852  0.1155 -2.3441
   48DOPE   H5Y 6154   6.542   1.269   4.743 -3.7275  2.4405 -1.5224
   48DOPE   C36 6155   6.653   1.092   4.725 -0.5557 -0.6005 -0.3465
   48DOPE   H6X 6156   6.739   1.157   4.751  0.4146 -1.4342 -1.3873
   48DOPE   H6Y 6157   6.673   1.018   4.645  0.2964  1.1011 -1.7741
   48DOPE   C37 6158   6.616   1.021   4.855  0.4419  0.1540 -0.1610
   48DOPE   H7X 6159   6.623   1.086   4.945  1.6562 -1.7974  1.2444
   48DOPE   H7Y 6160   6.509   0.990   4.848  0.2092 -0.0228  2.6863
   48DOPE   C38 6161   6.714   0.901   4.894 -0.3601  0.1479 -0.0470
   48DOPE   H8X 6162   6.818   0.942   4.892  0.2231 -0.9748  2.5292
   48DOPE   H8Y 6163   6.702   0.827   4.813  0.7644 -0.6768  0.5019
   48DOPE   C39 6164   6.695   0.831   5.023 -0.2079 -0.7616  0.7532
   48DOPE   H9X 6165   6.600   0.779   5.041 -1.1253  0.3987 -0.5103
   48DOPE  C310 6166   6.767   0.830   5.134  0.5799 -0.4302 -0.6733
   48DOPE  H10X 6167   6.731   0.781   5.226  0.5472 -0.9537 -0.9613
   48DOPE  C311 6168   6.906   0.879   5.141 -0.2047  0.1953 -0.7972
   48DOPE  H11X 6169   6.945   0.895   5.039 -0.2998  0.5492 -0.7817
   48DOPE  H11Y 6170   6.905   0.981   5.185  2.8687 -0.4852  1.1684
   48DOPE  C312 6171   7.001   0.793   5.224 -0.8638  0.4291  0.5895
   48DOPE  H12X 6172   7.093   0.850   5.200 -0.4951 -0.4159 -0.0727
   48DOPE  H12Y 6173   7.013   0.689   5.186  1.9475 -0.1157  2.6495
   48DOPE  C313 6174   7.010   0.792   5.380 -0.0987 -0.1318 -0.0292
   48DOPE  H13X 6175   6.988   0.893   5.421  0.0292  0.2014 -0.7720
   48DOPE  H13Y 6176   6.924   0.727   5.407 -0.2922  0.3841  0.6169
   48DOPE  C314 6177   7.142   0.738   5.438  0.0037 -0.2339  0.5371
   48DOPE  H14X 6178   7.218   0.812   5.405  0.3837 -1.2460 -0.9383
   48DOPE  H14Y 6179   7.166   0.638   5.396  0.8641  0.5132 -0.8132
   48DOPE  C315 6180   7.154   0.730   5.591  0.3931  0.4401 -0.5304
   48DOPE  H15X 6181   7.255   0.687   5.610 -0.5075 -2.5942 -2.0060
   48DOPE  H15Y 6182   7.075   0.658   5.621  1.4070 -0.7288 -0.5530
   48DOPE  C316 6183   7.131   0.863   5.668  0.3665 -0.5916 -0.4175
   48DOPE  H16X 6184   7.029   0.905   5.654 -0.5442 -2.5309 -0.0380
   48DOPE  H16Y 6185   7.206   0.933   5.625  0.7954  1.1981  2.9346
   48DOPE  C317 6186   7.155   0.855   5.821 -0.0033 -0.1467 -0.1753
   48DOPE  H17X 6187   7.086   0.793   5.882 -2.0025  0.9468 -1.2426
   48DOPE  H17Y 6188   7.253   0.802   5.827 -0.3247 -0.6793  0.6107
   48DOPE  C318 6189   7.166   0.990   5.872 -0.4993  0.3225 -0.2655
   48DOPE  H18X 6190   7.079   1.051   5.841  0.8277  1.6793 -1.4530
   48DOPE  H18Y 6191   7.171   1.005   5.982 -1.1800 -1.0011 -0.0277
   48DOPE  H18Z 6192   7.249   1.055   5.837  0.8108  0.5136  2.8445
   49DOPE     N 6193   2.013   5.436   2.827 -0.2636 -0.2405  0.0367
   49DOPE   HN1 6194   1.918   5.440   2.868 -0.5528  0.9968 -0.7167
   49DOPE   HN2 6195   2.020   5.475   2.731  0.0540 -0.0715  0.1266
   49DOPE   HN3 6196   2.055   5.341   2.815  1.6548  0.3764  1.3412
   49DOPE   C12 6197   2.107   5.516   2.912  0.1087  0.1331 -0.3752
   49DOPE  H12A 6198   2.102   5.462   3.009  1.6441 -0.9061 -0.8372
   49DOPE  H12B 6199   2.069   5.619   2.927 -1.7823 -0.6866  0.9444
   49DOPE   C11 6200   2.247   5.497   2.847  0.2045 -0.5773 -0.6213
   49DOPE  H11A 6201   2.318   5.545   2.917 -0.4073 -1.5055  0.6840
   49DOPE  H11B 6202   2.267   5.552   2.753  2.4230  0.3131  0.3112
   49DOPE     P 6203   2.366   5.263   2.927  0.3660 -0.3566  0.2049
   49DOPE   O13 6204   2.513   5.293   2.920  0.5184 -0.0342  0.4251
   49DOPE   O14 6205   2.329   5.123   2.906 -0.0758  0.1656 -0.1708
   49DOPE   O11 6206   2.305   5.311   3.067  0.3255 -0.2302 -0.3929
   49DOPE   O12 6207   2.276   5.358   2.832 -0.8735  0.4591  0.2200
   49DOPE    C1 6208   2.365   5.391   3.159  0.1588 -0.9354 -0.3026
   49DOPE    HA 6209   2.288   5.468   3.182  1.4514  0.7768 -1.4653
   49DOPE    HB 6210   2.451   5.443   3.112 -1.0551 -0.9327 -2.6845
   49DOPE    C2 6211   2.410   5.302   3.278  0.1736  0.8795 -0.0561
   49DOPE    HS 6212   2.488   5.236   3.233 -0.6686  1.5710 -2.7024
   49DOPE   O21 6213   2.298   5.225   3.334 -0.6674  0.3663  0.5317
   49DOPE   C21 6214   2.331   5.129   3.415  0.2715 -0.2352 -0.0279
   49DOPE   O22 6215   2.438   5.077   3.425  0.0479  0.3303  0.3601
   49DOPE   C22 6216   2.200   5.088   3.491  0.3647  0.2040 -0.4172
   49DOPE   H2R 6217   2.182   4.979   3.477 -1.4675  0.8406 -4.2800
   49DOPE   H2S 6218   2.114   5.146   3.452  1.7671  2.7287 -0.0009
   49DOPE    C3 6219   2.475   5.396   3.387 -0.7313  0.2891 -0.0396
   49DOPE    HX 6220   2.566   5.438   3.339 -0.5873  0.3242  0.2616
   49DOPE    HY 6221   2.517   5.337   3.471  0.0682  2.5891  1.2632
   49DOPE   O31 6222   2.387   5.504   3.414 -0.1289  0.3142 -0.0362
   49DOPE   C31 6223   2.323   5.501   3.534  0.3435  0.3093  0.1306
   49DOPE   O32 6224   2.349   5.423   3.625  0.4646  0.9294  0.1721
   49DOPE   C32 6225   2.240   5.630   3.550 -0.1401 -0.2943 -0.0762
   49DOPE   H2X 6226   2.257   5.701   3.467 -0.8245  0.0608  0.0772
   49DOPE   H2Y 6227   2.133   5.601   3.548  0.0734 -1.0922 -0.3890
   49DOPE   C23 6228   2.217   5.114   3.641 -0.3179 -0.4082 -0.3218
   49DOPE   H3R 6229   2.217   5.225   3.647  1.2881 -0.2055 -2.7561
   49DOPE   H3S 6230   2.310   5.073   3.687 -0.9786  0.8785  2.3299
   49DOPE   C24 6231   2.100   5.073   3.729  0.4114  0.1111 -0.2068
   49DOPE   H4R 6232   2.104   4.963   3.743 -2.2768 -0.0420 -0.0276
   49DOPE   H4S 6233   2.000   5.090   3.683  0.7174 -0.0801 -0.9602
   49DOPE   C25 6234   2.107   5.140   3.866  0.3060 -0.6550  0.4686
   49DOPE   H5R 6235   2.210   5.145   3.908  0.7795  1.8148 -0.7904
   49DOPE   H5S 6236   2.051   5.091   3.948  1.6604 -3.5668 -0.2143
   49DOPE   C26 6237   2.045   5.285   3.861  0.7500  0.6431  0.1475
   49DOPE   H6R 6238   1.942   5.278   3.818  1.4155 -0.4053 -1.3575
   49DOPE   H6S 6239   2.109   5.352   3.800 -1.7977  2.6996 -0.4853
   49DOPE   C27 6240   2.027   5.354   3.994  0.9108 -0.6700 -0.0791
   49DOPE   H7R 6241   1.966   5.284   4.054 -1.6992 -0.4275 -2.2819
   49DOPE   H7S 6242   1.980   5.454   3.990 -1.3023 -1.7114 -2.7366
   49DOPE   C28 6243   2.156   5.357   4.071  0.2112 -1.2233 -0.2787
   49DOPE   H8R 6244   2.230   5.411   4.008 -0.4536  0.1598  0.0853
   49DOPE   H8S 6245   2.187   5.251   4.088 -0.0897 -1.4422 -1.0480
   49DOPE   C29 6246   2.143   5.436   4.200  0.1757  0.3773 -0.2895
   49DOPE   H9R 6247   2.146   5.546   4.195  2.1718  0.3926  0.1416
   49DOPE  C210 6248   2.132   5.377   4.326  0.0873  0.1278  0.1161
   49DOPE  H10R 6249   2.121   5.448   4.410  3.5907  1.9969 -0.7764
   49DOPE  C211 6250   2.119   5.232   4.357 -0.1830 -0.5355 -0.0771
   49DOPE  H11R 6251   2.103   5.169   4.267  1.2622 -0.2997 -0.5226
   49DOPE  H11S 6252   2.027   5.206   4.414  0.1746 -2.5249 -0.3234
   49DOPE  C212 6253   2.230   5.172   4.426 -0.6084  0.4491  0.0839
   49DOPE  H12R 6254   2.323   5.197   4.371  0.5240 -0.9888  1.2781
   49DOPE  H12S 6255   2.211   5.063   4.428 -1.3340  0.4980  3.8348
   49DOPE  C213 6256   2.247   5.222   4.575  0.0850 -0.7609  0.9509
   49DOPE  H13R 6257   2.160   5.169   4.619 -0.1956 -0.3750  0.8658
   49DOPE  H13S 6258   2.227   5.331   4.585 -1.9296 -0.7254 -2.1811
   49DOPE  C214 6259   2.378   5.172   4.643  0.7890 -0.0497 -1.0324
   49DOPE  H14R 6260   2.461   5.234   4.602  1.8383 -0.3619  0.5261
   49DOPE  H14S 6261   2.404   5.069   4.611  0.4876 -1.3483  2.4448
   49DOPE  C215 6262   2.373   5.171   4.799 -0.1719 -1.0140 -0.1890
   49DOPE  H15R 6263   2.301   5.095   4.837  0.6933 -0.9820  1.6289
   49DOPE  H15S 6264   2.338   5.273   4.825  3.6451 -0.0547  1.9290
   49DOPE  C216 6265   2.516   5.148   4.862  0.4619  0.2680  0.3450
   49DOPE  H16R 6266   2.589   5.208   4.805 -0.9828  0.7319 -1.0965
   49DOPE  H16S 6267   2.533   5.039   4.854  2.2385  0.6293 -1.3425
   49DOPE  C217 6268   2.524   5.193   5.005 -0.0404 -0.1050 -0.2910
   49DOPE  H17R 6269   2.433   5.163   5.062 -0.0785  0.8657  0.1780
   49DOPE  H17S 6270   2.526   5.304   5.000  0.4084 -0.1649 -1.8062
   49DOPE  C218 6271   2.652   5.146   5.074 -0.1123 -0.3416  0.4450
   49DOPE  H18R 6272   2.732   5.163   4.999  0.9318  0.9412  1.8020
   49DOPE  H18S 6273   2.632   5.039   5.097 -2.1167 -0.2241 -0.5416
   49DOPE  H18T 6274   2.683   5.204   5.163  1.5880 -0.4587 -0.0437
   49DOPE   C33 6275   2.270   5.707   3.684 -0.2373 -0.4934  0.0773
   49DOPE   H3X 6276   2.214   5.801   3.666  1.1012 -0.2220 -3.3439
   49DOPE   H3Y 6277   2.377   5.733   3.693 -0.1955 -0.9095  0.8880
   49DOPE   C34 6278   2.216   5.643   3.808  0.3558  0.3076  0.6274
   49DOPE   H4X 6279   2.124   5.584   3.786  1.1994 -1.7865  2.3656
   49DOPE   H4Y 6280   2.295   5.567   3.823  0.5663  0.3227 -0.2880
   49DOPE   C35 6281   2.200   5.726   3.937 -0.5439  0.5743  0.2341
   49DOPE   H5X 6282   2.126   5.677   4.004 -1.0380 -0.4186 -0.9832
   49DOPE   H5Y 6283   2.156   5.824   3.909 -2.3003  0.3390  1.9364
   49DOPE   C36 6284   2.327   5.754   4.021  0.3089 -0.0156  0.8053
   49DOPE   H6X 6285   2.406   5.815   3.971 -1.2545  1.5282  0.1205
   49DOPE   H6Y 6286   2.368   5.651   4.027 -1.6540 -0.8109  1.3537
   49DOPE   C37 6287   2.290   5.822   4.154  0.8890 -0.7268 -0.6785
   49DOPE   H7X 6288   2.248   5.919   4.119 -0.0995 -1.0789 -0.5011
   49DOPE   H7Y 6289   2.207   5.761   4.197  0.9026  0.5251  1.1890
   49DOPE   C38 6290   2.412   5.836   4.252  0.4444 -0.1869  0.4797
   49DOPE   H8X 6291   2.491   5.880   4.188  0.0571 -0.3244 -0.1015
   49DOPE   H8Y 6292   2.449   5.733   4.270 -1.9927 -0.8906  1.8949
   49DOPE   C39 6293   2.377   5.907   4.380 -0.1485 -0.3966  0.1050
   49DOPE   H9X 6294   2.283   5.965   4.384 -0.6126 -1.2114  1.2853
   49DOPE  C310 6295   2.460   5.896   4.489 -0.2344  0.3804 -0.4101
   49DOPE  H10X 6296   2.431   5.961   4.573 -0.6470  0.4112 -0.5734
   49DOPE  C311 6297   2.583   5.810   4.496  0.4352 -0.0586 -0.0734
   49DOPE  H11X 6298   2.570   5.705   4.531  0.0611 -0.9699 -2.7199
   49DOPE  H11Y 6299   2.627   5.799   4.394  1.3393  1.6459  0.0995
   49DOPE  C312 6300   2.694   5.874   4.589 -0.0238 -0.8788 -0.2176
   49DOPE  H12X 6301   2.711   5.979   4.555 -1.1354 -0.9462 -1.0115
   49DOPE  H12Y 6302   2.791   5.820   4.587  0.7584  0.4852 -1.4754
   49DOPE  C313 6303   2.652   5.879   4.732  0.0858  0.3162 -0.1994
   49DOPE  H13X 6304   2.712   5.954   4.787  1.0559  1.0026 -2.0754
   49DOPE  H13Y 6305   2.545   5.898   4.751  0.3658  0.4750  1.2642
   49DOPE  C314 6306   2.683   5.748   4.811  0.0487 -0.1313  0.6942
   49DOPE  H14X 6307   2.789   5.718   4.799 -0.6478 -2.9724  1.0289
   49DOPE  H14Y 6308   2.627   5.670   4.754  1.6484 -0.6402 -0.2418
   49DOPE  C315 6309   2.639   5.758   4.954 -0.0287 -0.7493  0.1506
   49DOPE  H15X 6310   2.536   5.797   4.967  0.4969  0.8333 -0.2555
   49DOPE  H15Y 6311   2.697   5.841   4.999 -0.1395  0.5225 -1.9395
   49DOPE  C316 6312   2.660   5.628   5.037 -0.2063 -0.1550 -0.0141
   49DOPE  H16X 6313   2.604   5.550   4.982  1.0263 -0.4195 -0.9360
   49DOPE  H16Y 6314   2.623   5.641   5.141 -0.4450 -1.2687  0.0441
   49DOPE  C317 6315   2.814   5.582   5.049 -0.1638 -0.6877 -0.3513
   49DOPE  H17X 6316   2.812   5.475   5.080  2.9974 -0.7290  0.0146
   49DOPE  H17Y 6317   2.859   5.579   4.948 -0.4051 -0.1335 -0.4753
   49DOPE  C318 6318   2.884   5.677   5.146  1.0086  0.1985 -0.1656
   49DOPE  H18X 6319   2.860   5.650   5.251 -0.5832 -1.9552 -1.0129
   49DOPE  H18Y 6320   2.993   5.660   5.132  0.6065 -3.5303  0.0298
   49DOPE  H18Z 6321   2.856   5.780   5.117  1.4128  0.4486  0.3292
   50DOPE     N 6322   0.963   5.413   2.609 -0.2448 -0.4284  0.2665
   50DOPE   HN1 6323   0.969   5.506   2.564 -0.8799 -0.2292  0.5873
   50DOPE   HN2 6324   1.054   5.367   2.629 -1.0427 -1.4320  1.8815
   50DOPE   HN3 6325   0.914   5.351   2.541 -0.6716 -0.8349  0.9259
   50DOPE   C12 6326   0.883   5.414   2.733 -0.0660 -0.0327 -0.5648
   50DOPE  H12A 6327   0.775   5.425   2.708  0.1058  0.5280 -1.0789
   50DOPE  H12B 6328   0.911   5.490   2.808 -2.8060  0.1210  0.4191
   50DOPE   C11 6329   0.918   5.274   2.788 -0.4363  0.2542 -0.5419
   50DOPE  H11A 6330   0.872   5.201   2.719 -1.0985 -0.6436  0.8205
   50DOPE  H11B 6331   0.869   5.268   2.888  0.7230 -0.4445  0.0013
   50DOPE     P 6332   1.138   5.296   2.927 -0.1426  0.1171  0.0041
   50DOPE   O13 6333   1.103   5.437   2.951  0.1037 -0.5592 -0.1460
   50DOPE   O14 6334   1.284   5.261   2.912 -0.5158 -0.6172 -0.6993
   50DOPE   O11 6335   1.069   5.204   3.027  0.4636 -0.7335 -0.3945
   50DOPE   O12 6336   1.058   5.246   2.797  0.1925  0.4306  0.0253
   50DOPE    C1 6337   1.083   5.066   3.025  0.5452  0.2308  0.3272
   50DOPE    HA 6338   1.124   5.028   2.929 -0.6384  1.2752 -0.6263
   50DOPE    HB 6339   0.978   5.032   3.041  1.0546 -0.9726  1.2073
   50DOPE    C2 6340   1.169   5.007   3.140  0.0159 -0.9437  0.8866
   50DOPE    HS 6341   1.274   5.019   3.106 -0.6312  1.5830 -0.5188
   50DOPE   O21 6342   1.133   4.869   3.140 -0.4126  0.2189 -0.3810
   50DOPE   C21 6343   1.229   4.787   3.182  0.2470 -0.0042  0.4400
   50DOPE   O22 6344   1.346   4.813   3.204  0.2341 -0.2246  0.1859
   50DOPE   C22 6345   1.159   4.661   3.223 -0.3667 -0.0279  0.6649
   50DOPE   H2R 6346   1.211   4.578   3.171 -1.8112  0.5164 -1.7716
   50DOPE   H2S 6347   1.050   4.655   3.206 -0.2929  1.8189 -0.7029
   50DOPE    C3 6348   1.134   5.077   3.277  0.3837 -0.0536  0.4156
   50DOPE    HX 6349   1.023   5.080   3.279  0.3574 -0.4750 -0.1299
   50DOPE    HY 6350   1.174   5.180   3.267  0.7089 -0.1983  0.2318
   50DOPE   O31 6351   1.167   5.008   3.396 -0.1229  0.0414 -0.3008
   50DOPE   C31 6352   1.296   5.029   3.426 -0.2075 -0.1283  0.4919
   50DOPE   O32 6353   1.374   5.085   3.352 -1.0466 -0.2644  0.4251
   50DOPE   C32 6354   1.328   4.970   3.560 -0.2742 -0.3008  0.3857
   50DOPE   H2X 6355   1.401   4.892   3.531  0.3949  0.5101 -0.1565
   50DOPE   H2Y 6356   1.391   5.050   3.606  0.6830  0.2536 -1.7598
   50DOPE   C23 6357   1.178   4.645   3.374 -0.2316  0.6609 -0.0503
   50DOPE   H3R 6358   1.123   4.730   3.420 -1.1024  0.5278 -0.8159
   50DOPE   H3S 6359   1.285   4.645   3.405  0.0376  0.1195 -0.9440
   50DOPE   C24 6360   1.118   4.514   3.439 -0.4399  0.2406 -0.3104
   50DOPE   H4R 6361   1.138   4.429   3.370  1.8789  0.5770 -0.1060
   50DOPE   H4S 6362   1.008   4.527   3.453 -0.2524  0.8955  0.6817
   50DOPE   C25 6363   1.180   4.499   3.584 -0.4184 -0.2232 -0.0738
   50DOPE   H5R 6364   1.160   4.589   3.646 -1.3304 -0.0599 -0.5801
   50DOPE   H5S 6365   1.288   4.476   3.573 -0.3459  0.2826 -0.4544
   50DOPE   C26 6366   1.109   4.381   3.657  0.6591  0.0140 -0.5825
   50DOPE   H6R 6367   1.124   4.286   3.603  1.2154 -0.4077  0.2878
   50DOPE   H6S 6368   1.001   4.400   3.677  0.1859 -4.3099  2.2047
   50DOPE   C27 6369   1.176   4.363   3.794  0.0666  0.3939 -0.7974
   50DOPE   H7R 6370   1.283   4.389   3.779  0.0253  0.4284 -1.0406
   50DOPE   H7S 6371   1.171   4.256   3.823 -3.2895  0.0204 -2.1860
   50DOPE   C28 6372   1.116   4.453   3.907 -0.1099  0.4449  0.2765
   50DOPE   H8R 6373   1.022   4.404   3.941 -0.1222  0.3791  0.1489
   50DOPE   H8S 6374   1.087   4.546   3.854 -0.4352 -0.4633 -1.2214
   50DOPE   C29 6375   1.217   4.486   4.012  0.5355  0.0587  0.0171
   50DOPE   H9R 6376   1.313   4.515   3.968  0.5716 -0.0668  0.0154
   50DOPE  C210 6377   1.194   4.493   4.145  0.2668 -0.3869 -0.3775
   50DOPE  H10R 6378   1.278   4.527   4.207 -0.8723  1.8068  0.0730
   50DOPE  C211 6379   1.061   4.467   4.219 -0.8447 -0.3286 -0.8203
   50DOPE  H11R 6380   0.979   4.445   4.148  0.1254  0.5833 -2.2824
   50DOPE  H11S 6381   1.028   4.562   4.266 -0.7527 -0.3200 -0.7728
   50DOPE  C212 6382   1.050   4.357   4.333  0.2057  0.1965  0.0755
   50DOPE  H12R 6383   1.107   4.392   4.422  1.7246  0.1963 -0.8578
   50DOPE  H12S 6384   1.105   4.270   4.291  2.7032 -0.1625  3.6484
   50DOPE  C213 6385   0.904   4.319   4.359  0.4185 -0.3080 -0.2222
   50DOPE  H13R 6386   0.876   4.280   4.259  0.1232  1.6593 -0.9341
   50DOPE  H13S 6387   0.839   4.406   4.382  0.1384  0.2840 -2.9686
   50DOPE  C214 6388   0.879   4.225   4.470  0.5390 -0.0010 -0.0647
   50DOPE  H14R 6389   0.769   4.212   4.472  0.7569 -2.7065 -0.6150
   50DOPE  H14S 6390   0.918   4.275   4.561  2.3051  0.3134 -0.9560
   50DOPE  C215 6391   0.949   4.088   4.451  0.1485 -0.1008 -0.3025
   50DOPE  H15R 6392   1.057   4.114   4.452  0.0294  1.0176 -3.5250
   50DOPE  H15S 6393   0.934   4.037   4.353  1.1614  0.1664 -0.6058
   50DOPE  C216 6394   0.907   3.991   4.563 -0.5045  0.1893  0.6566
   50DOPE  H16R 6395   0.805   3.954   4.542 -0.7297 -0.1997  2.3103
   50DOPE  H16S 6396   0.919   4.039   4.663 -1.5412 -0.6681  1.2102
   50DOPE  C217 6397   0.988   3.861   4.569  0.7717 -0.5932  0.3799
   50DOPE  H17R 6398   0.951   3.799   4.653  0.0025 -1.2799 -0.4517
   50DOPE  H17S 6399   1.094   3.890   4.590 -0.2977  2.2264  2.5217
   50DOPE  C218 6400   0.982   3.782   4.437 -0.1800 -0.1281  0.1620
   50DOPE  H18R 6401   0.879   3.781   4.395  0.8429 -0.9998 -2.5881
   50DOPE  H18S 6402   1.013   3.676   4.452 -0.0475 -0.0579  0.3840
   50DOPE  H18T 6403   1.041   3.834   4.359  0.7996 -0.2142  0.8267
   50DOPE   C33 6404   1.216   4.920   3.660  0.1242 -0.0914 -0.6822
   50DOPE   H3X 6405   1.185   4.819   3.628  0.2794 -0.4949  0.4191
   50DOPE   H3Y 6406   1.121   4.977   3.660 -0.1011 -0.4092  1.0314
   50DOPE   C34 6407   1.251   4.923   3.809 -0.1357 -0.3924 -0.3399
   50DOPE   H4X 6408   1.186   4.855   3.869  0.0602  1.2705  1.8732
   50DOPE   H4Y 6409   1.358   4.906   3.833  0.0411 -0.1004 -0.9069
   50DOPE   C35 6410   1.196   5.061   3.871 -0.0216  0.3607 -0.5771
   50DOPE   H5X 6411   1.087   5.067   3.850 -0.3414 -2.4871 -0.2196
   50DOPE   H5Y 6412   1.239   5.143   3.810 -0.3773 -0.1437 -1.5400
   50DOPE   C36 6413   1.236   5.095   4.012  0.6418  0.1078 -0.2259
   50DOPE   H6X 6414   1.208   5.201   4.033  2.3735  0.2218  1.9051
   50DOPE   H6Y 6415   1.345   5.087   4.033  1.0639  0.3509 -2.1856
   50DOPE   C37 6416   1.161   5.012   4.117 -0.1083  0.5322 -0.1735
   50DOPE   H7X 6417   1.054   5.016   4.088 -0.4662  0.1469  1.0245
   50DOPE   H7Y 6418   1.202   4.909   4.121 -2.3907 -0.3988  1.9885
   50DOPE   C38 6419   1.173   5.072   4.250 -0.5230 -0.3750  0.3019
   50DOPE   H8X 6420   1.280   5.085   4.278 -0.5835  0.8176  0.0284
   50DOPE   H8Y 6421   1.133   4.987   4.310 -0.6008  0.1949  1.0655
   50DOPE   C39 6422   1.081   5.187   4.269 -0.2100 -0.3562 -0.4588
   50DOPE   H9X 6423   1.069   5.250   4.179 -3.2402 -2.0434 -1.3799
   50DOPE  C310 6424   0.992   5.202   4.372  0.4873 -0.0625 -0.4496
   50DOPE  H10X 6425   0.933   5.295   4.368 -1.2176 -1.0490  0.5739
   50DOPE  C311 6426   0.998   5.119   4.500 -1.1366  0.2828 -0.7808
   50DOPE  H11X 6427   0.894   5.121   4.539 -0.6634 -0.8489  0.6306
   50DOPE  H11Y 6428   1.016   5.011   4.484 -0.8097  0.5094 -1.9969
   50DOPE  C312 6429   1.092   5.167   4.605 -0.3356  0.1131 -0.1676
   50DOPE  H12X 6430   1.103   5.088   4.681  2.0352  0.5174 -0.0267
   50DOPE  H12Y 6431   1.042   5.255   4.651  0.8362  0.9336 -0.4289
   50DOPE  C313 6432   1.236   5.203   4.557  0.0619  0.8194  0.6782
   50DOPE  H13X 6433   1.275   5.116   4.500 -2.0558 -0.6124  1.2942
   50DOPE  H13Y 6434   1.228   5.286   4.485 -1.3217 -1.2683 -1.7619
   50DOPE  C314 6435   1.333   5.245   4.674  0.6407  0.3459  0.9510
   50DOPE  H14X 6436   1.318   5.179   4.762 -2.6228 -1.0857 -0.5138
   50DOPE  H14Y 6437   1.298   5.346   4.706  2.0447  0.7114  1.3674
   50DOPE  C315 6438   1.479   5.254   4.623 -0.0440 -0.1283 -0.4919
   50DOPE  H15X 6439   1.475   5.353   4.571  1.2939  0.6196  0.7551
   50DOPE  H15Y 6440   1.495   5.169   4.554  0.3775 -0.7050  0.3086
   50DOPE  C316 6441   1.582   5.251   4.737 -0.5018  0.2215 -0.2122
   50DOPE  H16X 6442   1.566   5.171   4.812  1.3925 -0.4085 -0.4318
   50DOPE  H16Y 6443   1.554   5.346   4.787 -1.2462  0.0699 -0.3148
   50DOPE  C317 6444   1.726   5.241   4.688  0.1137 -0.4689  0.3312
   50DOPE  H17X 6445   1.746   5.137   4.656  0.6558 -0.1897 -0.2660
   50DOPE  H17Y 6446   1.745   5.311   4.604 -0.9346 -2.5213 -1.7071
   50DOPE  C318 6447   1.832   5.275   4.787 -0.1844 -0.5233 -0.5144
   50DOPE  H18X 6448   1.835   5.212   4.878  2.2158 -0.1297 -0.2407
   50DOPE  H18Y 6449   1.928   5.263   4.732 -1.7813 -0.9615 -3.4071
   50DOPE  H18Z 6450   1.820   5.382   4.816  0.9487 -0.3117 -0.7427
   51DOPE     N 6451   3.980   0.507   2.880 -0.0595 -0.1727 -0.1226
   51DOPE   HN1 6452   4.059   0.444   2.858  0.2181  0.5594 -1.3576
   51DOPE   HN2 6453   3.912   0.504   2.801 -0.3049  0.6385  0.0528
   51DOPE   HN3 6454   4.005   0.607   2.891 -0.8912  0.0836 -0.4493
   51DOPE   C12 6455   3.916   0.470   3.008 -0.2176  0.5377 -0.8365
   51DOPE  H12A 6456   3.853   0.379   2.998 -2.1342  1.3079  2.6745
   51DOPE  H12B 6457   3.847   0.554   3.032  0.4642  0.1507  3.0775
   51DOPE   C11 6458   4.026   0.462   3.117  0.1008  0.3286 -0.5569
   51DOPE  H11A 6459   4.084   0.375   3.079 -0.6222  0.3686 -1.7984
   51DOPE  H11B 6460   3.977   0.432   3.213  2.6721  0.1004  0.7857
   51DOPE     P 6461   4.068   0.699   3.191  0.2409 -0.1169  0.0862
   51DOPE   O13 6462   3.973   0.763   3.096  0.5241  0.2228 -0.0806
   51DOPE   O14 6463   4.184   0.779   3.238  0.2367  0.1318 -0.6047
   51DOPE   O11 6464   3.981   0.648   3.302  0.2116  0.4701 -0.8031
   51DOPE   O12 6465   4.118   0.569   3.130 -0.2214 -0.2140  0.3693
   51DOPE    C1 6466   3.932   0.737   3.396 -0.1275  0.7640 -1.1773
   51DOPE    HA 6467   3.860   0.809   3.352 -2.4209  0.6750  2.1129
   51DOPE    HB 6468   4.020   0.788   3.441 -0.4069 -0.2062  0.5332
   51DOPE    C2 6469   3.844   0.652   3.502 -0.2604 -0.3274  0.2194
   51DOPE    HS 6470   3.785   0.727   3.559  0.3796 -0.1996  0.7300
   51DOPE   O21 6471   3.916   0.554   3.582  0.5060 -0.2228  0.5513
   51DOPE   C21 6472   3.987   0.607   3.674  0.4107 -0.1224 -0.5367
   51DOPE   O22 6473   4.007   0.729   3.689  0.0042 -0.0186  0.3043
   51DOPE   C22 6474   4.053   0.502   3.754  0.0342  0.6398  0.0923
   51DOPE   H2R 6475   4.084   0.554   3.848  0.0384  0.0996  0.3929
   51DOPE   H2S 6476   4.135   0.467   3.688 -2.2123 -0.4575 -2.2596
   51DOPE    C3 6477   3.737   0.581   3.418  0.0697  0.0384  0.0923
   51DOPE    HX 6478   3.770   0.479   3.391 -0.8671  0.1223 -1.4847
   51DOPE    HY 6479   3.716   0.642   3.327  2.6199 -1.0109 -1.2749
   51DOPE   O31 6480   3.610   0.577   3.495  0.0714 -0.7222 -0.0398
   51DOPE   C31 6481   3.577   0.463   3.545 -0.3520 -0.3896  0.0666
   51DOPE   O32 6482   3.622   0.351   3.519  0.0954 -0.0598 -0.1713
   51DOPE   C32 6483   3.464   0.489   3.646  0.1257 -0.0612  0.6454
   51DOPE   H2X 6484   3.487   0.572   3.716  3.5322  0.1570 -0.5766
   51DOPE   H2Y 6485   3.379   0.528   3.585  0.9922 -0.7837 -1.1034
   51DOPE   C23 6486   3.970   0.379   3.792 -0.0901 -0.2147  0.1767
   51DOPE   H3R 6487   4.045   0.307   3.830  1.1002  0.9002 -0.0227
   51DOPE   H3S 6488   3.934   0.318   3.706 -1.4482 -1.1406  1.3583
   51DOPE   C24 6489   3.860   0.408   3.889  0.4041 -0.1968 -0.3028
   51DOPE   H4R 6490   3.824   0.308   3.923  0.7585 -0.7861 -1.5860
   51DOPE   H4S 6491   3.779   0.460   3.833  0.5666  0.3223 -0.0558
   51DOPE   C25 6492   3.899   0.487   4.018  0.2413  0.0967  0.2204
   51DOPE   H5R 6493   3.925   0.589   3.985 -0.8591 -0.6344 -3.3510
   51DOPE   H5S 6494   3.988   0.429   4.052  0.7046  1.1817  0.8990
   51DOPE   C26 6495   3.793   0.481   4.132 -0.1714  0.3571 -0.4070
   51DOPE   H6R 6496   3.773   0.377   4.167 -0.0943 -0.0279 -1.4673
   51DOPE   H6S 6497   3.699   0.515   4.084 -1.0706  0.3408  1.2506
   51DOPE   C27 6498   3.816   0.574   4.248  0.4019 -0.6499 -0.3045
   51DOPE   H7R 6499   3.824   0.672   4.195  0.4407 -0.3853  0.1814
   51DOPE   H7S 6500   3.916   0.555   4.290  0.4497  2.2279  1.1207
   51DOPE   C28 6501   3.706   0.599   4.354 -0.9567 -0.0546 -0.0465
   51DOPE   H8R 6502   3.610   0.609   4.300 -0.7148  1.2728 -0.2727
   51DOPE   H8S 6503   3.737   0.693   4.406  0.9987 -1.1205  0.8029
   51DOPE   C29 6504   3.701   0.479   4.451 -0.0507 -0.3114  0.4151
   51DOPE   H9R 6505   3.677   0.383   4.404 -1.0636  0.0974  0.0557
   51DOPE  C210 6506   3.725   0.480   4.583 -0.4018 -0.2295 -0.4748
   51DOPE  H10R 6507   3.703   0.390   4.642 -1.6245  0.5278  0.2738
   51DOPE  C211 6508   3.763   0.594   4.678  0.2043 -0.4192  0.0843
   51DOPE  H11R 6509   3.671   0.647   4.711  0.5035  0.3196 -0.2401
   51DOPE  H11S 6510   3.815   0.673   4.620 -0.3752  0.0636  0.2094
   51DOPE  C212 6511   3.843   0.549   4.800 -0.0734 -0.7693 -0.7515
   51DOPE  H12R 6512   3.943   0.510   4.770  0.0426 -2.2399  1.3486
   51DOPE  H12S 6513   3.796   0.471   4.865  0.6936  0.1667  0.9918
   51DOPE  C213 6514   3.871   0.671   4.897 -0.1418  0.6408 -0.6106
   51DOPE  H13R 6515   3.770   0.699   4.933  0.5795  0.6132  1.5610
   51DOPE  H13S 6516   3.913   0.751   4.832 -0.0855 -1.8088 -3.8609
   51DOPE  C214 6517   3.961   0.630   5.024  0.2080 -0.7325  1.0423
   51DOPE  H14R 6518   4.057   0.628   4.969 -0.0022  3.7111  0.1646
   51DOPE  H14S 6519   3.935   0.526   5.054  1.8210 -1.1645  1.0103
   51DOPE  C215 6520   3.970   0.737   5.138 -0.1617 -0.4485 -0.2376
   51DOPE  H15R 6521   3.971   0.843   5.106 -1.4836  0.1426  1.5286
   51DOPE  H15S 6522   4.064   0.710   5.191  1.1708 -1.3525 -2.8741
   51DOPE  C216 6523   3.850   0.733   5.229 -0.1135  0.7985 -0.4701
   51DOPE  H16R 6524   3.752   0.740   5.176 -0.7404 -1.8990  0.1637
   51DOPE  H16S 6525   3.836   0.812   5.306 -2.2679 -1.7178  1.9871
   51DOPE  C217 6526   3.842   0.604   5.313 -0.2854 -1.1542 -0.3180
   51DOPE  H17R 6527   3.946   0.602   5.352 -0.1197  2.0078 -0.3335
   51DOPE  H17S 6528   3.810   0.515   5.254 -1.2460 -2.1186  1.5578
   51DOPE  C218 6529   3.753   0.616   5.438  0.8865  0.4685  0.1768
   51DOPE  H18R 6530   3.648   0.630   5.402  1.0768  1.3392 -0.0763
   51DOPE  H18S 6531   3.771   0.708   5.497 -1.7748  2.0283 -1.2300
   51DOPE  H18T 6532   3.767   0.526   5.500 -0.1656  0.8944  1.0707
   51DOPE   C33 6533   3.415   0.356   3.718 -0.4038  0.1193  0.0373
   51DOPE   H3X 6534   3.507   0.308   3.758 -0.3144 -0.6566 -1.0486
   51DOPE   H3Y 6535   3.381   0.287   3.638  1.5706 -1.4074  0.4295
   51DOPE   C34 6536   3.319   0.374   3.838  0.0161 -0.1353  0.1680
   51DOPE   H4X 6537   3.355   0.448   3.913 -2.9729  1.2427  0.3942
   51DOPE   H4Y 6538   3.222   0.420   3.807 -0.8753 -2.2121 -0.2734
   51DOPE   C35 6539   3.301   0.245   3.922 -0.4403  0.4329 -0.5196
   51DOPE   H5X 6540   3.276   0.157   3.859  0.4388 -0.0946 -0.1508
   51DOPE   H5Y 6541   3.218   0.264   3.994 -0.0542 -1.2996  0.4259
   51DOPE   C36 6542   3.428   0.222   4.008 -0.2309 -0.0220 -0.2167
   51DOPE   H6X 6543   3.468   0.320   4.042 -1.3385  0.7418 -1.0366
   51DOPE   H6Y 6544   3.506   0.170   3.948  1.5161 -0.9324  2.6202
   51DOPE   C37 6545   3.394   0.121   4.115  0.3858  0.2347  0.0590
   51DOPE   H7X 6546   3.492   0.110   4.167  0.5887  4.0227  0.7677
   51DOPE   H7Y 6547   3.319   0.167   4.183 -0.6672 -0.8862 -0.3243
   51DOPE   C38 6548   3.338  -0.023   4.078 -0.5035  0.0922  0.5473
   51DOPE   H8X 6549   3.248  -0.029   4.014 -1.2744 -1.6982  1.7152
   51DOPE   H8Y 6550   3.307  -0.064   4.176  0.2428  0.2339  0.8556
   51DOPE   C39 6551   3.447  -0.106   4.008  0.0229  0.2046  0.7310
   51DOPE   H9X 6552   3.527  -0.042   3.968 -1.1841  1.9702  0.9959
   51DOPE  C310 6553   3.454  -0.242   4.016  0.2747  0.4580 -0.4238
   51DOPE  H10X 6554   3.534  -0.298   3.965  0.0653 -0.0860 -0.1659
   51DOPE  C311 6555   3.361  -0.330   4.095  0.6553 -0.1311 -0.2347
   51DOPE  H11X 6556   3.268  -0.276   4.121  0.0845 -2.0002  1.9427
   51DOPE  H11Y 6557   3.330  -0.413   4.028  0.3447 -1.1805  1.1504
   51DOPE  C312 6558   3.406  -0.402   4.230  0.1603  0.4324 -0.4547
   51DOPE  H12X 6559   3.436  -0.317   4.294  3.1436  0.1973 -1.3737
   51DOPE  H12Y 6560   3.499  -0.458   4.207 -0.2913  0.4008 -2.3926
   51DOPE  C313 6561   3.306  -0.508   4.286  0.2836 -0.1361  0.4199
   51DOPE  H13X 6562   3.289  -0.586   4.209 -0.6005 -2.5570  2.8993
   51DOPE  H13Y 6563   3.352  -0.558   4.374  1.0666 -0.1770 -0.0077
   51DOPE  C314 6564   3.168  -0.462   4.315  0.6170 -0.3140 -0.4931
   51DOPE  H14X 6565   3.106  -0.471   4.223  0.4263  0.3177 -0.4306
   51DOPE  H14Y 6566   3.169  -0.356   4.345  0.0491 -0.2363 -0.7409
   51DOPE  C315 6567   3.098  -0.552   4.420 -0.4696 -0.5599 -0.2506
   51DOPE  H15X 6568   3.152  -0.545   4.517  0.6708 -1.0647 -0.8342
   51DOPE  H15Y 6569   3.106  -0.657   4.385 -1.2442 -0.7514  0.1331
   51DOPE  C316 6570   2.945  -0.526   4.437 -0.5099 -0.3633 -0.7979
   51DOPE  H16X 6571   2.920  -0.419   4.444  2.4017  0.5056 -1.8748
   51DOPE  H16Y 6572   2.904  -0.565   4.532 -0.1826  1.8029  0.2895
   51DOPE  C317 6573   2.866  -0.585   4.314  0.0368  0.0802  0.2769
   51DOPE  H17X 6574   2.899  -0.522   4.229  1.5855 -0.3656  0.5096
   51DOPE  H17Y 6575   2.894  -0.691   4.293  1.3473  0.9995 -3.3725
   51DOPE  C318 6576   2.715  -0.578   4.338  0.1226  0.5475 -0.1037
   51DOPE  H18X 6577   2.680  -0.631   4.429  1.3232  1.1830  0.7473
   51DOPE  H18Y 6578   2.686  -0.471   4.337 -0.4877  0.4149  1.2451
   51DOPE  H18Z 6579   2.664  -0.629   4.253  1.6342 -0.0614 -0.6815
   52DOPE     N 6580   7.021   4.010   2.222  0.8119  0.4343 -0.0424
   52DOPE   HN1 6581   7.058   3.948   2.296 -0.7584  1.3683  1.6184
   52DOPE   HN2 6582   6.917   4.009   2.233  0.8069  0.8037 -0.0169
   52DOPE   HN3 6583   7.043   3.986   2.123 -0.6668  1.3078 -0.6215
   52DOPE   C12 6584   7.067   4.149   2.255 -0.8633 -0.6623 -0.1780
   52DOPE  H12A 6585   7.014   4.201   2.337 -0.2506  1.6483 -1.1527
   52DOPE  H12B 6586   7.057   4.217   2.167 -2.5791  1.7762  1.7829
   52DOPE   C11 6587   7.222   4.145   2.276  0.2955 -0.9125  0.3223
   52DOPE  H11A 6588   7.249   4.251   2.296 -2.2274 -0.4095  1.3626
   52DOPE  H11B 6589   7.252   4.104   2.177 -1.5345  1.0291 -1.1096
   52DOPE     P 6590   7.414   4.059   2.424  0.2522  0.0676 -0.0756
   52DOPE   O13 6591   7.502   4.073   2.310 -0.0479 -1.0108  0.0564
   52DOPE   O14 6592   7.437   3.933   2.492 -0.3677  0.2164 -0.1357
   52DOPE   O11 6593   7.428   4.165   2.541 -0.1591  0.0904  0.0241
   52DOPE   O12 6594   7.262   4.065   2.381 -0.1761  0.2690 -0.6508
   52DOPE    C1 6595   7.323   4.182   2.631  0.6807 -0.2094  0.0337
   52DOPE    HA 6596   7.268   4.087   2.651 -1.0120  0.1547 -2.5025
   52DOPE    HB 6597   7.249   4.253   2.588 -0.7786 -1.0351  1.0838
   52DOPE    C2 6598   7.373   4.231   2.771  0.0366  0.2005  0.6230
   52DOPE    HS 6599   7.438   4.318   2.745  0.5877 -0.5256 -0.4973
   52DOPE   O21 6600   7.432   4.125   2.835 -0.0541  0.8185 -0.0203
   52DOPE   C21 6601   7.553   4.084   2.802 -0.7993  0.2546  0.3646
   52DOPE   O22 6602   7.639   4.149   2.744  0.3025  0.6186 -0.0354
   52DOPE   C22 6603   7.570   3.939   2.850 -0.0518  0.2191 -0.2969
   52DOPE   H2R 6604   7.592   3.880   2.758 -0.2302  0.8532 -0.7559
   52DOPE   H2S 6605   7.480   3.901   2.903  0.7626 -0.7624  0.4334
   52DOPE    C3 6606   7.267   4.303   2.871 -0.0683 -0.4134  0.5737
   52DOPE    HX 6607   7.196   4.219   2.885 -1.0170  0.2262 -0.2805
   52DOPE    HY 6608   7.222   4.391   2.821  0.5602 -0.3051  0.1866
   52DOPE   O31 6609   7.319   4.339   2.997  0.3673 -0.4320 -0.9283
   52DOPE   C31 6610   7.368   4.459   3.016  0.5907 -0.4217  0.4617
   52DOPE   O32 6611   7.391   4.537   2.926  0.4337 -0.4286 -0.0583
   52DOPE   C32 6612   7.382   4.499   3.163  0.6761 -1.0303 -0.4010
   52DOPE   H2X 6613   7.283   4.515   3.211  1.7240 -0.4168  1.6831
   52DOPE   H2Y 6614   7.432   4.417   3.218  1.4293  0.9757  2.1438
   52DOPE   C23 6615   7.696   3.929   2.942  0.0170 -0.0982 -0.7658
   52DOPE   H3R 6616   7.774   3.941   2.864 -1.1472  1.3946 -1.7535
   52DOPE   H3S 6617   7.700   3.825   2.981 -1.6631 -0.4140 -1.3408
   52DOPE   C24 6618   7.707   4.028   3.060  0.3621  0.3777  0.8157
   52DOPE   H4R 6619   7.715   4.132   3.023  0.7610  0.4956  1.2323
   52DOPE   H4S 6620   7.800   4.012   3.117  0.0488  2.4607  2.0316
   52DOPE   C25 6621   7.588   4.018   3.160  0.1779  0.4923  0.3414
   52DOPE   H5R 6622   7.495   3.962   3.134 -0.6604  2.1742 -0.4372
   52DOPE   H5S 6623   7.556   4.123   3.177 -1.3844  0.3410 -1.3045
   52DOPE   C26 6624   7.635   3.963   3.296 -0.6495  0.1200  0.3064
   52DOPE   H6R 6625   7.699   3.874   3.279 -1.2618 -0.7498  2.2700
   52DOPE   H6S 6626   7.558   3.936   3.372 -0.4255  1.0520  0.8901
   52DOPE   C27 6627   7.712   4.067   3.375 -0.2185 -0.3526  0.1776
   52DOPE   H7R 6628   7.644   4.147   3.409  0.2523  0.0260  0.2444
   52DOPE   H7S 6629   7.796   4.106   3.312  1.7337 -0.9641  2.2688
   52DOPE   C28 6630   7.780   4.018   3.499 -0.2678  0.0510  0.3599
   52DOPE   H8R 6631   7.857   3.939   3.479  0.7697  0.6428  1.8255
   52DOPE   H8S 6632   7.705   3.963   3.560 -0.4245  1.4856  1.5058
   52DOPE   C29 6633   7.837   4.126   3.585 -0.4710 -0.2947 -0.5969
   52DOPE   H9R 6634   7.780   4.220   3.574 -2.4904 -1.6454 -2.5703
   52DOPE  C210 6635   7.955   4.115   3.655 -0.3282 -0.6152  0.8505
   52DOPE  H10R 6636   7.997   4.206   3.702  0.9568 -1.7936  2.0716
   52DOPE  C211 6637   8.043   3.996   3.663  0.2518  0.0224 -0.6783
   52DOPE  H11R 6638   8.147   4.022   3.693  0.1928 -0.4339 -0.0605
   52DOPE  H11S 6639   8.049   3.936   3.569  0.8682 -0.0692 -0.5858
   52DOPE  C212 6640   7.990   3.904   3.773 -0.1223 -0.2714  0.4457
   52DOPE  H12R 6641   8.053   3.813   3.767  0.9609  0.5144 -0.4788
   52DOPE  H12S 6642   7.889   3.878   3.734  0.1821  1.2925 -1.6067
   52DOPE  C213 6643   7.988   3.961   3.916  0.0631 -0.4338  0.6367
   52DOPE  H13R 6644   7.916   4.045   3.914  0.5647  0.0655  2.2944
   52DOPE  H13S 6645   8.089   3.998   3.945  0.8935 -0.9435 -1.4200
   52DOPE  C214 6646   7.952   3.863   4.026  0.0214  0.2654 -0.0494
   52DOPE  H14R 6647   8.020   3.778   4.002 -1.9775 -0.9454 -1.8551
   52DOPE  H14S 6648   7.846   3.831   4.011  0.3224 -0.8282  0.0573
   52DOPE  C215 6649   7.971   3.929   4.164  0.4863 -0.5134  0.6846
   52DOPE  H15R 6650   7.883   3.996   4.173  0.8489  0.1814 -0.6437
   52DOPE  H15S 6651   8.066   3.982   4.181  0.0897  0.1874  0.7410
   52DOPE  C216 6652   7.972   3.838   4.286  0.3928 -0.2833 -0.5927
   52DOPE  H16R 6653   8.046   3.757   4.268  1.0337  0.2589 -0.4511
   52DOPE  H16S 6654   7.872   3.791   4.295  0.5372 -1.0478 -2.4228
   52DOPE  C217 6655   8.006   3.905   4.418  0.1846 -0.6578  0.2767
   52DOPE  H17R 6656   7.952   3.848   4.497 -0.6552  0.9971  0.9483
   52DOPE  H17S 6657   7.979   4.012   4.402  1.7412 -0.3277 -0.3704
   52DOPE  C218 6658   8.155   3.894   4.443  0.1695  0.5343  0.5582
   52DOPE  H18R 6659   8.182   3.943   4.539 -0.4246  0.5175  0.7373
   52DOPE  H18S 6660   8.171   3.787   4.467 -1.9058 -0.3848 -1.8223
   52DOPE  H18T 6661   8.236   3.918   4.370  1.7824 -2.5729  1.1678
   52DOPE   C33 6662   7.464   4.627   3.184 -0.1492 -0.4008  0.9192
   52DOPE   H3X 6663   7.414   4.712   3.132  2.1455 -0.4905 -1.6608
   52DOPE   H3Y 6664   7.558   4.610   3.128 -0.7410 -0.8482  0.0297
   52DOPE   C34 6665   7.498   4.662   3.332  0.2316  0.4152  0.6983
   52DOPE   H4X 6666   7.515   4.770   3.347 -1.2296  0.8046 -0.2366
   52DOPE   H4Y 6667   7.401   4.646   3.385  0.5182  1.0310  1.4111
   52DOPE   C35 6668   7.612   4.575   3.396 -0.0360 -0.3730 -0.6978
   52DOPE   H5X 6669   7.687   4.572   3.314 -0.0528  1.1145 -0.7899
   52DOPE   H5Y 6670   7.583   4.470   3.419 -0.0675 -0.3405 -0.5886
   52DOPE   C36 6671   7.669   4.649   3.519  0.2933 -0.4927  0.8712
   52DOPE   H6X 6672   7.601   4.635   3.605  1.1387 -1.3071  1.4225
   52DOPE   H6Y 6673   7.684   4.756   3.491  1.4179 -0.3997  1.7658
   52DOPE   C37 6674   7.810   4.597   3.554 -0.6384  0.4669 -0.1707
   52DOPE   H7X 6675   7.817   4.490   3.583  1.2190  0.1050 -1.7775
   52DOPE   H7Y 6676   7.873   4.605   3.463 -0.2321 -1.2996 -0.0877
   52DOPE   C38 6677   7.879   4.671   3.671  0.2031  0.0307 -0.6657
   52DOPE   H8X 6678   7.878   4.777   3.635  1.0305  0.1841 -0.2494
   52DOPE   H8Y 6679   7.981   4.628   3.673 -0.7886 -2.8144  3.9892
   52DOPE   C39 6680   7.798   4.655   3.804 -0.6592 -0.2786 -0.4045
   52DOPE   H9X 6681   7.688   4.645   3.795 -1.3645  3.7216  1.5903
   52DOPE  C310 6682   7.852   4.628   3.928  0.0268  0.3682  0.1285
   52DOPE  H10X 6683   7.781   4.617   4.011 -2.2975  0.0069 -1.7947
   52DOPE  C311 6684   8.003   4.620   3.968  0.2448 -0.5894 -0.5265
   52DOPE  H11X 6685   8.061   4.670   3.888 -1.1925 -1.1997 -2.0278
   52DOPE  H11Y 6686   8.017   4.666   4.068 -1.4281 -0.0331 -0.5220
   52DOPE  C312 6687   8.055   4.475   3.977 -0.2601 -0.3011 -0.6433
   52DOPE  H12X 6688   8.165   4.476   3.989 -0.0840  1.4673 -2.0046
   52DOPE  H12Y 6689   8.031   4.415   3.886 -0.1835 -1.9298  0.3671
   52DOPE  C313 6690   7.989   4.399   4.096  0.3129  0.2844 -0.0892
   52DOPE  H13X 6691   7.884   4.433   4.112 -0.2172 -0.7210 -1.2737
   52DOPE  H13Y 6692   7.990   4.292   4.066  1.3201  1.0880 -3.3008
   52DOPE  C314 6693   8.062   4.410   4.228  0.3951  0.4095  0.2604
   52DOPE  H14X 6694   8.106   4.511   4.244  0.7531  0.4852 -1.0988
   52DOPE  H14Y 6695   8.149   4.342   4.233 -1.9901 -2.8018  3.2211
   52DOPE  C315 6696   7.964   4.386   4.346  0.5352 -0.0905  0.1446
   52DOPE  H15X 6697   7.927   4.283   4.331 -2.8714  0.7436  1.7768
   52DOPE  H15Y 6698   7.878   4.456   4.334  1.6480  1.6093  1.5115
   52DOPE  C316 6699   8.032   4.404   4.483  0.2273  0.3062 -0.5578
   52DOPE  H16X 6700   7.952   4.412   4.559 -0.0249  0.8641 -0.8751
   52DOPE  H16Y 6701   8.077   4.505   4.487 -1.2488  0.9991 -0.9409
   52DOPE  C317 6702   8.131   4.278   4.511  0.6414 -0.9064 -0.2215
   52DOPE  H17X 6703   8.066   4.188   4.509  0.3993 -0.7925  1.4414
   52DOPE  H17Y 6704   8.200   4.267   4.424  0.3350 -0.7363 -0.4909
   52DOPE  C318 6705   8.216   4.272   4.639 -0.6255  0.2528  0.2276
   52DOPE  H18X 6706   8.281   4.182   4.641  0.7961  1.2497  1.5286
   52DOPE  H18Y 6707   8.282   4.358   4.663 -0.3570 -0.0489  0.5995
   52DOPE  H18Z 6708   8.141   4.263   4.721 -1.9128 -2.6331 -1.1249
   53DOPE     N 6709   5.763   0.168   3.251 -0.1089  0.0930  0.0881
   53DOPE   HN1 6710   5.771   0.068   3.223  0.7064  0.1726 -0.0013
   53DOPE   HN2 6711   5.824   0.239   3.206 -0.0126 -0.8103 -1.2712
   53DOPE   HN3 6712   5.780   0.170   3.354 -1.8707  1.2726  0.3922
   53DOPE   C12 6713   5.628   0.233   3.225  0.6727 -0.0892 -0.3391
   53DOPE  H12A 6714   5.607   0.241   3.117  3.4155  0.3364 -0.9264
   53DOPE  H12B 6715   5.626   0.334   3.270 -2.5670 -0.1768 -0.0541
   53DOPE   C11 6716   5.511   0.154   3.308 -0.3447 -0.4938 -0.6331
   53DOPE  H11A 6717   5.534   0.158   3.417  3.7010  1.2430 -1.3766
   53DOPE  H11B 6718   5.509   0.046   3.282 -0.3164 -0.7323  0.3059
   53DOPE     P 6719   5.321   0.317   3.375  0.2929 -0.0156  0.0153
   53DOPE   O13 6720   5.180   0.349   3.335 -0.3410 -0.6608 -0.1793
   53DOPE   O14 6721   5.413   0.432   3.389 -0.3236 -0.1307  0.2685
   53DOPE   O11 6722   5.319   0.225   3.510 -0.2744 -0.6931  0.2656
   53DOPE   O12 6723   5.380   0.205   3.279  0.5657  0.2834 -0.4974
   53DOPE    C1 6724   5.206   0.131   3.514  0.2352 -0.5307  0.4242
   53DOPE    HA 6725   5.218   0.051   3.438 -0.1636  0.2775 -0.5015
   53DOPE    HB 6726   5.111   0.187   3.505  0.1078 -0.4726  1.8369
   53DOPE    C2 6727   5.192   0.057   3.652 -0.2558  0.0489  0.4802
   53DOPE    HS 6728   5.106  -0.013   3.645 -0.0584 -0.2885  1.2273
   53DOPE   O21 6729   5.175   0.164   3.749 -0.1506  0.2972  0.2135
   53DOPE   C21 6730   5.058   0.183   3.803 -0.4336  0.2457  0.1561
   53DOPE   O22 6731   4.961   0.116   3.784  0.2691  0.5793  0.2129
   53DOPE   C22 6732   5.063   0.299   3.903  0.4119 -0.0871  0.3060
   53DOPE   H2R 6733   5.006   0.383   3.857  2.5080  0.8987 -0.6697
   53DOPE   H2S 6734   5.168   0.336   3.911  0.4389  0.9767 -3.3746
   53DOPE    C3 6735   5.320  -0.026   3.694 -0.0933 -0.0454  0.3998
   53DOPE    HX 6736   5.399   0.052   3.699 -0.9469  0.8375  0.4914
   53DOPE    HY 6737   5.339  -0.103   3.616  0.7236  1.1930 -0.6807
   53DOPE   O31 6738   5.307  -0.090   3.827  0.2181 -0.6005 -0.3904
   53DOPE   C31 6739   5.258  -0.208   3.837 -0.3988 -0.8336  0.7893
   53DOPE   O32 6740   5.217  -0.282   3.748 -0.6131  0.0606 -0.0328
   53DOPE   C32 6741   5.246  -0.258   3.985 -0.0150  0.0082 -1.2091
   53DOPE   H2X 6742   5.160  -0.328   3.985  1.5006 -1.9539 -0.2402
   53DOPE   H2Y 6743   5.339  -0.315   4.005 -0.5236 -0.5174 -0.2565
   53DOPE   C23 6744   4.996   0.278   4.041  0.5103  0.6131  0.6654
   53DOPE   H3R 6745   5.057   0.221   4.114 -0.2285 -0.1351  0.7121
   53DOPE   H3S 6746   4.900   0.227   4.020  0.5718  0.2758  1.1849
   53DOPE   C24 6747   4.960   0.413   4.115 -0.2689  0.0517  1.3082
   53DOPE   H4R 6748   4.924   0.496   4.049 -0.7807 -1.7284 -0.7791
   53DOPE   H4S 6749   5.060   0.437   4.156  0.3134  0.0370 -0.0473
   53DOPE   C25 6750   4.849   0.409   4.226  0.0520  0.3567  0.2113
   53DOPE   H5R 6751   4.865   0.328   4.300  0.3695  0.5913  0.4016
   53DOPE   H5S 6752   4.746   0.396   4.185 -1.2929  2.6169  2.5290
   53DOPE   C26 6753   4.854   0.540   4.310 -0.0094  0.4364 -0.0452
   53DOPE   H6R 6754   4.865   0.622   4.235 -1.6709  0.0919 -0.7110
   53DOPE   H6S 6755   4.943   0.531   4.376 -0.7868  1.5686  1.2185
   53DOPE   C27 6756   4.734   0.563   4.404  0.3276  0.4495  0.5664
   53DOPE   H7R 6757   4.723   0.480   4.477 -2.2440  1.4302  1.4133
   53DOPE   H7S 6758   4.652   0.563   4.329  0.4336  1.6781  0.4308
   53DOPE   C28 6759   4.739   0.696   4.483  0.1416  0.2408 -0.2687
   53DOPE   H8R 6760   4.760   0.769   4.402  0.8840 -2.0126 -2.2392
   53DOPE   H8S 6761   4.823   0.692   4.555  0.1282 -2.8888 -0.2993
   53DOPE   C29 6762   4.611   0.722   4.563  0.0852  0.8419  0.5316
   53DOPE   H9R 6763   4.571   0.628   4.604  0.1691  0.6399  0.1586
   53DOPE  C210 6764   4.525   0.828   4.559  0.0805 -0.1561 -0.1352
   53DOPE  H10R 6765   4.429   0.828   4.613 -0.6932 -1.5509 -1.4284
   53DOPE  C211 6766   4.559   0.954   4.484  0.4311 -0.2660  0.3570
   53DOPE  H11R 6767   4.493   0.968   4.395  1.6930 -0.0329 -0.5786
   53DOPE  H11S 6768   4.655   0.945   4.430 -1.0360  1.9218 -2.9934
   53DOPE  C212 6769   4.563   1.083   4.575  0.4857 -0.4664 -0.5239
   53DOPE  H12R 6770   4.466   1.085   4.629 -0.5798 -5.6692 -1.7101
   53DOPE  H12S 6771   4.571   1.174   4.511 -0.5241  0.9994  1.3215
   53DOPE  C213 6772   4.675   1.076   4.684  0.5826 -0.2801 -0.0518
   53DOPE  H13R 6773   4.768   1.048   4.628  1.1021  0.2947  0.5045
   53DOPE  H13S 6774   4.652   0.988   4.747 -0.2803  0.1764  0.2740
   53DOPE  C214 6775   4.699   1.191   4.783  0.2163 -0.0919  0.4014
   53DOPE  H14R 6776   4.605   1.238   4.820  0.4853 -0.8667  2.1758
   53DOPE  H14S 6777   4.766   1.261   4.729 -2.1452  2.4408  0.5103
   53DOPE  C215 6778   4.779   1.162   4.917  0.4815 -0.2626  0.1712
   53DOPE  H15R 6779   4.828   1.259   4.942  1.5338  0.0988 -2.8831
   53DOPE  H15S 6780   4.865   1.097   4.891 -0.2589 -0.6970 -1.2743
   53DOPE  C216 6781   4.695   1.112   5.034 -1.2705  0.0097  0.1436
   53DOPE  H16R 6782   4.687   1.001   5.034 -0.1938 -0.1108  1.9521
   53DOPE  H16S 6783   4.592   1.154   5.035 -1.5355 -0.4498  3.2623
   53DOPE  C217 6784   4.769   1.152   5.166  0.1391 -0.0575 -0.0865
   53DOPE  H17R 6785   4.711   1.110   5.251  0.7153  1.6158  1.1743
   53DOPE  H17S 6786   4.788   1.261   5.171  1.4045 -0.1289 -2.1343
   53DOPE  C218 6787   4.908   1.080   5.174  0.4946  0.6900 -0.1966
   53DOPE  H18R 6788   4.957   1.117   5.266  1.0566  0.9534 -0.5903
   53DOPE  H18S 6789   4.973   1.122   5.094  1.2333 -0.2634 -0.1216
   53DOPE  H18T 6790   4.908   0.968   5.170  0.3646  0.7075 -0.8356
   53DOPE   C33 6791   5.217  -0.146   4.079 -0.7790 -0.2372  0.0926
   53DOPE   H3X 6792   5.121  -0.099   4.047 -0.7219  0.8864  1.5055
   53DOPE   H3Y 6793   5.294  -0.066   4.078 -1.5100  0.4952  0.9056
   53DOPE   C34 6794   5.196  -0.183   4.228  0.0607  0.4617 -0.0461
   53DOPE   H4X 6795   5.101  -0.239   4.238  0.4009  0.1016  1.4831
   53DOPE   H4Y 6796   5.276  -0.248   4.269 -0.6843  0.3120  1.2402
   53DOPE   C35 6797   5.172  -0.067   4.329  0.1057  0.8206  0.1790
   53DOPE   H5X 6798   5.089  -0.004   4.289 -1.0254 -0.6211  0.1460
   53DOPE   H5Y 6799   5.262  -0.003   4.328  0.2909  0.6234  1.8094
   53DOPE   C36 6800   5.138  -0.114   4.470  0.6838  0.8697  0.7959
   53DOPE   H6X 6801   5.175  -0.218   4.482  2.2306  0.9056 -2.6066
   53DOPE   H6Y 6802   5.027  -0.110   4.473  0.3672 -2.1256 -1.5778
   53DOPE   C37 6803   5.187  -0.023   4.579 -0.2275 -1.2406 -0.0809
   53DOPE   H7X 6804   5.298  -0.034   4.575  0.1666  1.3045  1.1969
   53DOPE   H7Y 6805   5.159   0.083   4.557  0.6285 -1.0502 -0.3212
   53DOPE   C38 6806   5.139  -0.075   4.717 -0.1351  0.1594  0.0377
   53DOPE   H8X 6807   5.182  -0.172   4.748 -2.9411 -1.0149  0.5339
   53DOPE   H8Y 6808   5.028  -0.085   4.709 -0.4688  0.4734  3.0148
   53DOPE   C39 6809   5.157   0.026   4.827 -0.0196 -0.1311 -0.2389
   53DOPE   H9X 6810   5.260   0.063   4.831 -0.5264  1.4280 -0.6148
   53DOPE  C310 6811   5.068   0.099   4.902  0.2195 -0.3790  0.4404
   53DOPE  H10X 6812   5.107   0.166   4.980  0.4240  1.0597 -0.8777
   53DOPE  C311 6813   4.915   0.099   4.894  0.3639  1.4487 -0.1932
   53DOPE  H11X 6814   4.879   0.009   4.840  0.9575 -0.7854  2.8810
   53DOPE  H11Y 6815   4.866   0.091   4.993  1.8057 -1.1308  0.4093
   53DOPE  C312 6816   4.858   0.230   4.827 -0.2758 -0.6617 -0.0176
   53DOPE  H12X 6817   4.926   0.317   4.834  0.5735 -1.3007 -0.1547
   53DOPE  H12Y 6818   4.764   0.264   4.877  0.9921  2.4358  0.4812
   53DOPE  C313 6819   4.842   0.218   4.673 -0.9818  0.6853 -0.0916
   53DOPE  H13X 6820   4.833   0.318   4.625  2.2509  1.1697  0.0796
   53DOPE  H13Y 6821   4.934   0.169   4.633 -0.8737  0.7770  0.0435
   53DOPE  C314 6822   4.734   0.126   4.622 -0.1703 -0.4988  0.3322
   53DOPE  H14X 6823   4.642   0.162   4.672 -1.3422 -0.1704 -1.9088
   53DOPE  H14Y 6824   4.767   0.023   4.646  0.2654 -0.5844 -0.5854
   53DOPE  C315 6825   4.723   0.136   4.467 -0.2509 -0.6659 -0.3349
   53DOPE  H15X 6826   4.824   0.131   4.421  0.7271  1.2009  1.4654
   53DOPE  H15Y 6827   4.689   0.238   4.440 -0.9780 -0.6054  0.7517
   53DOPE  C316 6828   4.629   0.030   4.411 -0.1819  0.4574  0.0223
   53DOPE  H16X 6829   4.530   0.009   4.457 -0.6748  1.0077 -0.7531
   53DOPE  H16Y 6830   4.690  -0.062   4.422 -0.2083  0.6166  1.8152
   53DOPE  C317 6831   4.608   0.034   4.256  0.8021 -0.1720  0.4460
   53DOPE  H17X 6832   4.569  -0.064   4.219 -0.1054  0.3174  0.0828
   53DOPE  H17Y 6833   4.519   0.098   4.241 -0.6923 -1.8378  1.7132
   53DOPE  C318 6834   4.721   0.074   4.162 -0.1714 -0.6829  0.7672
   53DOPE  H18X 6835   4.767   0.169   4.198  0.6824  0.0201 -1.9116
   53DOPE  H18Y 6836   4.799  -0.005   4.164  0.3327 -0.2043  0.4668
   53DOPE  H18Z 6837   4.684   0.093   4.059 -1.1564 -2.8730  0.6677
   54DOPE     N 6838   0.125   2.578   2.610  0.3846  0.3080 -0.7434
   54DOPE   HN1 6839   0.102   2.601   2.511 -0.5719  0.2086 -0.5525
   54DOPE   HN2 6840   0.067   2.640   2.670 -0.9257  0.6705 -2.3066
   54DOPE   HN3 6841   0.225   2.608   2.614  0.5331 -0.2040 -0.5212
   54DOPE   C12 6842   0.122   2.433   2.651 -0.5318  0.3238 -0.5034
   54DOPE  H12A 6843   0.214   2.387   2.608 -0.2716 -1.5525  1.8387
   54DOPE  H12B 6844   0.034   2.384   2.604 -0.3091  0.0624 -0.6488
   54DOPE   C11 6845   0.107   2.417   2.805 -0.9014 -0.3334  0.0553
   54DOPE  H11A 6846   0.188   2.471   2.859 -0.8116 -1.3936  1.0271
   54DOPE  H11B 6847   0.132   2.311   2.830 -2.9202 -0.6833  0.8256
   54DOPE     P 6848  -0.072   2.595   2.901 -0.0124  0.0060 -0.1179
   54DOPE   O13 6849  -0.209   2.576   2.947  0.1527  0.2806  0.4305
   54DOPE   O14 6850  -0.042   2.697   2.799 -1.1021 -0.4272 -0.1429
   54DOPE   O11 6851   0.016   2.619   3.030 -0.7978  0.3879 -0.1690
   54DOPE   O12 6852  -0.024   2.449   2.852 -0.6606  0.0902 -0.6354
   54DOPE    C1 6853   0.041   2.526   3.138 -0.6356  0.4612 -0.4735
   54DOPE    HA 6854   0.151   2.520   3.155 -0.7885 -1.1187  0.0769
   54DOPE    HB 6855   0.013   2.421   3.117 -0.6061  0.0145  1.5094
   54DOPE    C2 6856   0.001   2.579   3.280 -0.5138 -0.9786 -0.0661
   54DOPE    HS 6857  -0.110   2.574   3.288 -0.4585 -0.6834  1.0503
   54DOPE   O21 6858   0.048   2.714   3.291  0.0225  0.0317 -0.2320
   54DOPE   C21 6859  -0.038   2.804   3.349 -0.2353 -0.2056  0.7083
   54DOPE   O22 6860  -0.150   2.779   3.385 -0.5369 -0.1437  0.5173
   54DOPE   C22 6861   0.034   2.940   3.355  0.5385  0.8990  0.7750
   54DOPE   H2R 6862  -0.049   3.014   3.357 -2.7550 -2.3333 -1.3506
   54DOPE   H2S 6863   0.097   2.953   3.264  1.5339  0.9267  1.4584
   54DOPE    C3 6864   0.065   2.491   3.389  0.8321 -0.2393 -0.1015
   54DOPE    HX 6865   0.174   2.511   3.378  1.1096 -0.5456  1.8809
   54DOPE    HY 6866   0.041   2.389   3.352 -0.6208  0.1444 -0.2652
   54DOPE   O31 6867   0.012   2.532   3.515  0.0074  0.4756 -0.1246
   54DOPE   C31 6868  -0.069   2.447   3.571 -0.4131 -0.5179  0.2051
   54DOPE   O32 6869  -0.109   2.343   3.522  0.1131 -0.3744 -0.0485
   54DOPE   C32 6870  -0.106   2.501   3.711  1.0633 -0.2976 -0.2290
   54DOPE   H2X 6871  -0.116   2.611   3.697  1.1391 -0.4029 -1.2191
   54DOPE   H2Y 6872  -0.210   2.465   3.729 -0.1246  2.3538 -1.2528
   54DOPE   C23 6873   0.112   2.952   3.489  0.4207 -0.0020 -0.1785
   54DOPE   H3R 6874   0.204   2.891   3.476  0.7204  0.7905 -2.0437
   54DOPE   H3S 6875   0.041   2.910   3.564  0.5809 -0.6064 -0.3580
   54DOPE   C24 6876   0.152   3.098   3.521  0.0730  0.4039  0.9995
   54DOPE   H4R 6877   0.065   3.166   3.522  0.8126  1.3716  1.0629
   54DOPE   H4S 6878   0.220   3.135   3.441  1.7481  0.8299  2.5425
   54DOPE   C25 6879   0.231   3.112   3.652  0.9463  1.0210 -0.2890
   54DOPE   H5R 6880   0.326   3.057   3.636  0.2243 -0.4518  0.2328
   54DOPE   H5S 6881   0.180   3.059   3.735 -0.1703  1.5206 -0.6351
   54DOPE   C26 6882   0.258   3.249   3.693  0.2632  0.4700 -0.1767
   54DOPE   H6R 6883   0.161   3.301   3.704  0.1165  0.0488  0.5889
   54DOPE   H6S 6884   0.293   3.310   3.606 -0.4017  1.3390  0.1503
   54DOPE   C27 6885   0.336   3.270   3.826  0.4602 -0.3146 -0.0010
   54DOPE   H7R 6886   0.432   3.214   3.818  0.8207  0.2972  0.0408
   54DOPE   H7S 6887   0.283   3.219   3.909  1.2137 -0.8621  0.1571
   54DOPE   C28 6888   0.366   3.420   3.851 -0.6197 -0.3745  0.5856
   54DOPE   H8R 6889   0.276   3.480   3.875  1.1478  1.9124  1.8958
   54DOPE   H8S 6890   0.403   3.462   3.755 -1.2209 -3.4345 -1.1114
   54DOPE   C29 6891   0.477   3.446   3.955  0.3080  0.0024 -0.0798
   54DOPE   H9R 6892   0.572   3.479   3.911  0.3277 -0.7481 -0.6197
   54DOPE  C210 6893   0.455   3.429   4.089  0.0840  0.2191  0.4157
   54DOPE  H10R 6894   0.545   3.427   4.152  0.2847 -1.7249  0.1360
   54DOPE  C211 6895   0.331   3.372   4.151  0.2007 -0.0988 -0.0116
   54DOPE  H11R 6896   0.361   3.274   4.195  1.0425 -0.2244 -0.8284
   54DOPE  H11S 6897   0.259   3.344   4.071 -1.5081  0.6963  1.1813
   54DOPE  C212 6898   0.266   3.467   4.253  0.0747 -0.7818 -0.2387
   54DOPE  H12R 6899   0.158   3.445   4.245  0.3764 -2.1373 -0.7835
   54DOPE  H12S 6900   0.284   3.570   4.213  0.2950 -0.6619  0.1534
   54DOPE  C213 6901   0.313   3.468   4.393 -0.0394  0.1122 -0.5344
   54DOPE  H13R 6902   0.279   3.556   4.452 -1.0073 -0.9153  0.4878
   54DOPE  H13S 6903   0.422   3.483   4.381  0.0250 -0.1881 -0.3384
   54DOPE  C214 6904   0.284   3.340   4.476 -0.0429  0.8469  0.3658
   54DOPE  H14R 6905   0.339   3.335   4.573 -2.9366  0.2200  2.1022
   54DOPE  H14S 6906   0.319   3.250   4.423 -1.1728 -1.8008  3.7218
   54DOPE  C215 6907   0.129   3.318   4.510 -0.8594 -0.8931  0.5350
   54DOPE  H15R 6908   0.127   3.209   4.531  1.9505 -1.0435  0.3888
   54DOPE  H15S 6909   0.074   3.345   4.417 -0.7349  1.1001  0.9759
   54DOPE  C216 6910   0.084   3.393   4.635 -0.2180 -0.1234 -0.1533
   54DOPE  H16R 6911   0.025   3.484   4.615  2.2939  2.5894  3.4964
   54DOPE  H16S 6912   0.163   3.413   4.711 -0.2105  0.5170 -0.3318
   54DOPE  C217 6913  -0.011   3.296   4.710  0.1871 -0.0417  0.7312
   54DOPE  H17R 6914  -0.096   3.264   4.645  1.5327  0.5806 -1.4036
   54DOPE  H17S 6915  -0.067   3.345   4.793  1.3176 -0.0088  1.4912
   54DOPE  C218 6916   0.063   3.175   4.776  0.1282  0.1308  0.9171
   54DOPE  H18R 6917   0.138   3.207   4.852  0.5980 -0.2005  0.5948
   54DOPE  H18S 6918   0.097   3.113   4.691 -2.3295 -0.9272  0.6303
   54DOPE  H18T 6919  -0.010   3.114   4.833  0.5079 -0.8985  0.3135
   54DOPE   C33 6920  -0.014   2.458   3.823 -0.2538  0.5751  0.2816
   54DOPE   H3X 6921   0.087   2.481   3.786 -0.0446 -0.4163  0.2040
   54DOPE   H3Y 6922  -0.014   2.347   3.833  3.0424  0.2901 -1.6687
   54DOPE   C34 6923  -0.044   2.524   3.960 -0.8132 -0.3645 -0.2102
   54DOPE   H4X 6924   0.022   2.478   4.036 -0.4993  3.4957  2.1336
   54DOPE   H4Y 6925  -0.009   2.630   3.959 -0.4180 -0.4630  1.4170
   54DOPE   C35 6926  -0.181   2.504   4.009  0.1787  0.2504 -0.8058
   54DOPE   H5X 6927  -0.222   2.401   3.999 -0.5721  0.2509  1.6921
   54DOPE   H5Y 6928  -0.258   2.571   3.965  0.1588  0.6732 -0.1480
   54DOPE   C36 6929  -0.195   2.551   4.158  0.5831  0.3535  0.2461
   54DOPE   H6X 6930  -0.162   2.654   4.180  1.9100  0.0364 -0.1990
   54DOPE   H6Y 6931  -0.136   2.480   4.220  0.4705 -1.3853 -1.5392
   54DOPE   C37 6932  -0.346   2.534   4.203  0.4915  0.4718 -0.1556
   54DOPE   H7X 6933  -0.408   2.588   4.129  0.4199 -2.4608 -2.4382
   54DOPE   H7Y 6934  -0.367   2.425   4.202 -0.3221  0.6196 -0.0065
   54DOPE   C38 6935  -0.391   2.594   4.339  0.3826  0.0897 -0.0694
   54DOPE   H8X 6936  -0.501   2.577   4.335  0.7491 -3.0637  0.3895
   54DOPE   H8Y 6937  -0.363   2.701   4.343  1.3376 -0.1456 -0.1569
   54DOPE   C39 6938  -0.322   2.530   4.463  0.8309 -0.2945 -0.4636
   54DOPE   H9X 6939  -0.214   2.546   4.471  0.7672  0.1419 -0.4968
   54DOPE  C310 6940  -0.384   2.467   4.566 -0.4058 -0.5493 -0.4432
   54DOPE  H10X 6941  -0.309   2.423   4.632  1.5762  0.3420 -1.9717
   54DOPE  C311 6942  -0.532   2.434   4.583 -0.4639 -0.3284  0.2378
   54DOPE  H11X 6943  -0.585   2.489   4.663 -1.5837  1.2224 -1.4868
   54DOPE  H11Y 6944  -0.590   2.457   4.491 -1.1721 -0.6450  0.5959
   54DOPE  C312 6945  -0.547   2.284   4.606  0.3019  0.3129 -0.3909
   54DOPE  H12X 6946  -0.522   2.211   4.526 -1.7013 -0.2251 -0.5790
   54DOPE  H12Y 6947  -0.657   2.277   4.615  0.1665 -2.0587 -2.7522
   54DOPE  C313 6948  -0.482   2.243   4.744 -0.5726  0.1876 -0.0173
   54DOPE  H13X 6949  -0.371   2.238   4.742 -0.5570 -1.2318  1.7013
   54DOPE  H13Y 6950  -0.503   2.319   4.823  1.1273 -1.4796  2.1879
   54DOPE  C314 6951  -0.531   2.111   4.794 -0.8300 -0.0348  0.2084
   54DOPE  H14X 6952  -0.494   2.033   4.723 -1.1703  1.7205 -2.0042
   54DOPE  H14Y 6953  -0.642   2.117   4.795 -0.7839  2.1848 -1.4116
   54DOPE  C315 6954  -0.488   2.073   4.938 -0.8407 -0.1387  0.2641
   54DOPE  H15X 6955  -0.529   2.143   5.014  0.8901  0.7803  0.3793
   54DOPE  H15Y 6956  -0.378   2.075   4.947 -0.9314 -0.4516  1.7065
   54DOPE  C316 6957  -0.547   1.935   4.984  0.2065  0.0215 -0.0764
   54DOPE  H16X 6958  -0.526   1.922   5.092 -2.1850  0.1082  0.4402
   54DOPE  H16Y 6959  -0.510   1.854   4.917 -1.0570  0.0832 -0.8767
   54DOPE  C317 6960  -0.702   1.923   4.987 -1.0859  0.0644 -0.6503
   54DOPE  H17X 6961  -0.747   1.935   4.886 -0.2901  1.3372 -0.8681
   54DOPE  H17Y 6962  -0.707   1.818   5.023  3.0127  0.5085  1.7884
   54DOPE  C318 6963  -0.780   2.015   5.082 -0.1512 -0.1186  0.1783
   54DOPE  H18X 6964  -0.730   2.025   5.181 -0.4166 -2.7934  0.6784
   54DOPE  H18Y 6965  -0.781   2.117   5.038 -1.1857 -0.7713 -1.3909
   54DOPE  H18Z 6966  -0.886   1.986   5.092 -0.2224 -1.1282 -2.6192
   55DOPE     N 6967   0.831   6.406   2.459  0.7095  0.4045 -0.2580
   55DOPE   HN1 6968   0.814   6.303   2.459  1.8154  0.2100 -0.2590
   55DOPE   HN2 6969   0.766   6.467   2.406 -1.6155  0.8425  2.8182
   55DOPE   HN3 6970   0.923   6.424   2.415  0.5676  1.4712 -0.1313
   55DOPE   C12 6971   0.824   6.456   2.598 -0.4504  0.3130 -0.0134
   55DOPE  H12A 6972   0.717   6.469   2.623 -0.3735  1.4719 -0.2440
   55DOPE  H12B 6973   0.876   6.554   2.602  0.1028  0.1390 -1.7770
   55DOPE   C11 6974   0.883   6.353   2.700 -0.1650  0.6885 -0.0247
   55DOPE  H11A 6975   0.845   6.248   2.694 -0.2379  0.3976  3.5335
   55DOPE  H11B 6976   0.856   6.382   2.804  2.6161 -1.7517  1.5187
   55DOPE     P 6977   1.122   6.250   2.743 -0.6387  0.0094 -0.1373
   55DOPE   O13 6978   1.235   6.313   2.817  0.3842 -0.0546 -0.2865
   55DOPE   O14 6979   1.167   6.164   2.629  0.0853  0.2243  0.0430
   55DOPE   O11 6980   1.034   6.149   2.826 -0.0630 -0.6825  0.2562
   55DOPE   O12 6981   1.023   6.360   2.693 -0.1949 -0.3842 -0.0088
   55DOPE    C1 6982   1.085   6.094   2.947 -0.2744 -0.0223  0.3638
   55DOPE    HA 6983   1.195   6.099   2.941 -0.3304  1.3058  0.2251
   55DOPE    HB 6984   1.056   5.987   2.958 -0.4620 -0.1299 -1.0026
   55DOPE    C2 6985   1.037   6.183   3.070 -0.3118  0.3694  0.1455
   55DOPE    HS 6986   1.076   6.285   3.050 -0.1031  0.6153  1.7242
   55DOPE   O21 6987   1.083   6.138   3.202  0.1060  0.6192 -0.4269
   55DOPE   C21 6988   1.203   6.181   3.239  0.2895 -0.1195  0.1931
   55DOPE   O22 6989   1.268   6.256   3.167 -0.2506 -0.6610  0.1662
   55DOPE   C22 6990   1.230   6.131   3.378  0.2867  0.1443  0.2711
   55DOPE   H2R 6991   1.233   6.020   3.378 -1.1830  0.0820  0.8711
   55DOPE   H2S 6992   1.145   6.157   3.445  0.1526 -1.0968  0.6012
   55DOPE    C3 6993   0.881   6.192   3.071 -0.2304  0.2937  0.1112
   55DOPE    HX 6994   0.846   6.087   3.071  0.0686  0.1837 -0.8381
   55DOPE    HY 6995   0.844   6.251   2.984 -1.3160 -0.4317  0.0604
   55DOPE   O31 6996   0.835   6.257   3.193 -0.2746 -0.1872  0.9855
   55DOPE   C31 6997   0.699   6.265   3.184  0.7492  0.3389 -0.9062
   55DOPE   O32 6998   0.628   6.221   3.096  0.0297 -0.0127  0.0205
   55DOPE   C32 6999   0.659   6.352   3.304 -0.3993 -0.3911 -1.2532
   55DOPE   H2X 7000   0.685   6.296   3.397 -0.1599  1.0294 -0.4266
   55DOPE   H2Y 7001   0.712   6.449   3.292  0.0484 -0.0551  2.3376
   55DOPE   C23 7002   1.370   6.192   3.432 -0.2467  0.7561 -0.7145
   55DOPE   H3R 7003   1.362   6.302   3.444 -1.3775  0.7407 -1.1762
   55DOPE   H3S 7004   1.445   6.172   3.353  1.1948 -0.1379  0.8213
   55DOPE   C24 7005   1.397   6.119   3.564  0.4956 -0.4240 -0.0040
   55DOPE   H4R 7006   1.491   6.155   3.611 -0.1891 -0.1914  1.2323
   55DOPE   H4S 7007   1.417   6.011   3.547  1.4124 -0.1357 -0.8224
   55DOPE   C25 7008   1.273   6.141   3.661  0.4376  0.2937  0.1520
   55DOPE   H5R 7009   1.196   6.066   3.635  1.3259 -0.3387 -0.7375
   55DOPE   H5S 7010   1.231   6.243   3.648 -0.3324 -0.0564 -0.1720
   55DOPE   C26 7011   1.301   6.139   3.810 -0.2621  0.5210  0.3661
   55DOPE   H6R 7012   1.214   6.182   3.864 -0.2795  2.6019 -1.2160
   55DOPE   H6S 7013   1.396   6.194   3.825  0.9898 -1.2822 -0.5710
   55DOPE   C27 7014   1.333   5.988   3.853 -0.0637 -0.3811  0.2030
   55DOPE   H7R 7015   1.416   5.967   3.782 -0.6934 -3.1878  0.1989
   55DOPE   H7S 7016   1.256   5.912   3.828 -0.1422 -1.1055  2.4342
   55DOPE   C28 7017   1.371   5.975   4.001 -0.3494  0.0550 -1.0170
   55DOPE   H8R 7018   1.275   5.979   4.055  0.5260 -3.5659  1.2012
   55DOPE   H8S 7019   1.446   6.051   4.032 -0.2601 -0.7768  0.9328
   55DOPE   C29 7020   1.429   5.836   4.039 -0.0885  0.2955  0.4918
   55DOPE   H9R 7021   1.380   5.751   3.988 -1.9127  1.8173 -0.4527
   55DOPE  C210 7022   1.528   5.798   4.122 -0.2075 -0.4132  0.0402
   55DOPE  H10R 7023   1.542   5.689   4.127  1.1444 -0.2913 -0.7029
   55DOPE  C211 7024   1.601   5.881   4.224 -0.0066 -0.0484  0.4165
   55DOPE  H11R 7025   1.607   5.836   4.325  0.9713 -0.1488  0.3242
   55DOPE  H11S 7026   1.565   5.985   4.240 -1.2446 -0.2192 -1.0193
   55DOPE  C212 7027   1.748   5.880   4.178  0.2264  0.0872 -0.2826
   55DOPE  H12R 7028   1.762   5.929   4.079 -2.9190 -0.3006 -1.0072
   55DOPE  H12S 7029   1.790   5.778   4.182 -0.6823 -0.3967 -1.9585
   55DOPE  C213 7030   1.834   5.971   4.269  0.3450 -0.5470  0.8120
   55DOPE  H13R 7031   1.811   5.926   4.368  0.0573 -0.8151  0.6254
   55DOPE  H13S 7032   1.785   6.071   4.271  1.1667 -0.1459  1.5421
   55DOPE  C214 7033   1.988   5.985   4.250  0.8686 -0.3455 -0.3510
   55DOPE  H14R 7034   2.011   6.011   4.144 -1.5072 -1.7748 -1.2773
   55DOPE  H14S 7035   2.029   5.883   4.265 -2.0758 -1.4825  0.5500
   55DOPE  C215 7036   2.051   6.092   4.350  0.1063 -0.2415  0.6354
   55DOPE  H15R 7037   1.996   6.188   4.336 -0.4397 -0.7772 -1.2064
   55DOPE  H15S 7038   2.150   6.118   4.306 -1.3111  2.5326 -1.2416
   55DOPE  C216 7039   2.061   6.057   4.498 -0.1589 -0.1040 -0.5304
   55DOPE  H16R 7040   2.113   5.960   4.513  0.0375 -0.2956 -2.2506
   55DOPE  H16S 7041   1.953   6.041   4.519 -0.8779  3.1645 -1.1596
   55DOPE  C217 7042   2.125   6.166   4.586  0.2830  0.2270  0.3510
   55DOPE  H17R 7043   2.045   6.240   4.607  0.2587  0.3563 -0.2043
   55DOPE  H17S 7044   2.215   6.219   4.548 -0.4180  0.2811 -1.2644
   55DOPE  C218 7045   2.165   6.106   4.725 -0.2288 -0.0844 -0.6255
   55DOPE  H18R 7046   2.208   6.179   4.797  0.3860 -0.9238 -0.1096
   55DOPE  H18S 7047   2.246   6.030   4.717  1.8944  1.9070  0.7299
   55DOPE  H18T 7048   2.075   6.060   4.770  0.3178 -2.1903 -1.5480
   55DOPE   C33 7049   0.509   6.383   3.315  0.3360  0.7378  0.2130
   55DOPE   H3X 7050   0.483   6.437   3.221  0.1412  1.7581  0.8316
   55DOPE   H3Y 7051   0.492   6.456   3.397  0.6892  1.1863 -0.1048
   55DOPE   C34 7052   0.419   6.258   3.332 -0.4955 -0.0921  0.1097
   55DOPE   H4X 7053   0.439   6.173   3.262 -0.3116 -0.0488  0.1092
   55DOPE   H4Y 7054   0.435   6.223   3.436 -0.2727 -0.0216  0.1009
   55DOPE   C35 7055   0.271   6.292   3.312 -0.0289 -0.0658 -0.5417
   55DOPE   H5X 7056   0.210   6.204   3.282  1.5552 -0.5591 -2.5538
   55DOPE   H5Y 7057   0.265   6.354   3.220  1.3470 -1.8371 -1.9018
   55DOPE   C36 7058   0.218   6.363   3.443  0.3892 -0.1258  0.0536
   55DOPE   H6X 7059   0.282   6.449   3.469 -0.3261  0.0468  1.3370
   55DOPE   H6Y 7060   0.219   6.288   3.525  2.7677  2.1762  2.2989
   55DOPE   C37 7061   0.061   6.407   3.437  0.1178 -0.5093  0.2843
   55DOPE   H7X 7062   0.041   6.470   3.348 -1.3715 -2.0886 -0.5549
   55DOPE   H7Y 7063   0.009   6.311   3.421  0.8082 -1.3293  2.6050
   55DOPE   C38 7064   0.007   6.473   3.566  0.0718  0.0617 -0.1834
   55DOPE   H8X 7065   0.032   6.412   3.655 -1.9729  0.0990  0.4612
   55DOPE   H8Y 7066  -0.102   6.452   3.558  0.3841 -1.8861  0.2411
   55DOPE   C39 7067   0.053   6.619   3.574  0.1533  0.5014 -0.3220
   55DOPE   H9X 7068   0.057   6.670   3.476 -1.2250  1.5538  0.1223
   55DOPE  C310 7069   0.113   6.678   3.682  0.2121  0.5802 -0.2199
   55DOPE  H10X 7070   0.162   6.774   3.663  0.9846 -0.2169 -2.5665
   55DOPE  C311 7071   0.140   6.619   3.815  0.8370  0.5267 -0.0630
   55DOPE  H11X 7072   0.052   6.555   3.840  0.5220  1.7150  2.1534
   55DOPE  H11Y 7073   0.224   6.547   3.806  0.6813  0.5650 -2.4760
   55DOPE  C312 7074   0.143   6.730   3.920 -0.3673  0.5918 -0.1466
   55DOPE  H12X 7075   0.058   6.801   3.915  0.2182  1.2775 -0.7177
   55DOPE  H12Y 7076   0.240   6.783   3.918 -0.0344  0.1002  1.5446
   55DOPE  C313 7077   0.140   6.660   4.054  0.2367  0.2617 -0.3809
   55DOPE  H13X 7078   0.035   6.632   4.075  0.6372 -0.9517  0.1651
   55DOPE  H13Y 7079   0.182   6.557   4.047  2.9208  1.3519 -2.1567
   55DOPE  C314 7080   0.199   6.733   4.177  0.3755  0.6806  0.5091
   55DOPE  H14X 7081   0.179   6.842   4.188 -0.9596  0.7637 -2.0317
   55DOPE  H14Y 7082   0.308   6.736   4.156  0.3377  0.0473  0.1960
   55DOPE  C315 7083   0.172   6.673   4.318 -0.0587  0.3025 -0.2448
   55DOPE  H15X 7084   0.170   6.562   4.321 -2.1529  0.2070 -2.5272
   55DOPE  H15Y 7085   0.071   6.704   4.350 -0.1842 -0.6649  0.3289
   55DOPE  C316 7086   0.282   6.719   4.418 -0.8535 -0.4037 -0.2357
   55DOPE  H16X 7087   0.309   6.826   4.418 -3.4592  0.3404 -0.8011
   55DOPE  H16Y 7088   0.374   6.673   4.376 -0.2080  0.2914  0.3965
   55DOPE  C317 7089   0.252   6.682   4.569 -0.0579  0.1799 -0.7203
   55DOPE  H17X 7090   0.292   6.580   4.588  3.3512  0.6558 -3.9810
   55DOPE  H17Y 7091   0.304   6.749   4.640 -0.3607  1.8167 -1.9968
   55DOPE  C318 7092   0.101   6.699   4.611 -0.9097 -0.8762 -0.3894
   55DOPE  H18X 7093   0.107   6.676   4.720  2.4155  2.3990  0.3254
   55DOPE  H18Y 7094   0.068   6.802   4.587  1.2532  0.7802  2.9632
   55DOPE  H18Z 7095   0.036   6.624   4.562  1.4378 -2.4558 -1.2919
   56DOPE     N 7096   1.460   6.292   2.955  0.2858 -0.1662 -0.1268
   56DOPE   HN1 7097   1.522   6.291   2.872 -0.7962 -2.2366 -0.9745
   56DOPE   HN2 7098   1.429   6.198   2.988 -2.4973  1.0786  1.0943
   56DOPE   HN3 7099   1.372   6.341   2.934  0.9214  1.2461  0.3741
   56DOPE   C12 7100   1.539   6.363   3.061  0.6952 -0.0132 -0.4191
   56DOPE  H12A 7101   1.515   6.316   3.159 -0.0025  1.2591  0.0416
   56DOPE  H12B 7102   1.527   6.474   3.057 -0.2607 -0.0860  0.0661
   56DOPE   C11 7103   1.689   6.334   3.037  0.5158  0.2090 -1.3724
   56DOPE  H11A 7104   1.739   6.374   3.128  1.6272 -0.9321 -1.4406
   56DOPE  H11B 7105   1.714   6.395   2.948 -0.1179 -0.4190 -1.9800
   56DOPE     P 7106   1.792   6.102   3.121  0.3633 -0.1079 -0.1801
   56DOPE   O13 7107   1.915   6.071   3.051  0.1772 -0.6485  0.1700
   56DOPE   O14 7108   1.695   5.995   3.163  0.0553  0.3037  0.2565
   56DOPE   O11 7109   1.820   6.201   3.245 -0.1228 -0.1224  0.0914
   56DOPE   O12 7110   1.715   6.198   3.017  0.1637 -0.1276 -0.6042
   56DOPE    C1 7111   1.759   6.179   3.369  0.3528  0.0633 -0.2850
   56DOPE    HA 7112   1.666   6.118   3.362  0.7378 -0.6056  0.2892
   56DOPE    HB 7113   1.724   6.277   3.407  1.4686  0.7647 -1.0083
   56DOPE    C2 7114   1.861   6.119   3.468 -0.1872 -0.0541 -0.4262
   56DOPE    HS 7115   1.922   6.039   3.422 -0.9374 -1.3835  0.8046
   56DOPE   O21 7116   1.793   6.064   3.582  0.7132  0.0257 -0.3797
   56DOPE   C21 7117   1.755   5.943   3.568  0.5068 -0.0002 -0.2138
   56DOPE   O22 7118   1.785   5.869   3.476 -0.2250  0.4908  0.3818
   56DOPE   C22 7119   1.673   5.886   3.694  0.4188  0.4622  0.5864
   56DOPE   H2R 7120   1.603   5.813   3.649  1.2006 -1.0687  1.7539
   56DOPE   H2S 7121   1.627   5.977   3.739  0.8919 -0.8764  4.0733
   56DOPE    C3 7122   1.975   6.222   3.520 -0.1974  0.0452  0.1093
   56DOPE    HX 7123   1.928   6.297   3.586 -1.4768 -0.1723 -0.5174
   56DOPE    HY 7124   2.032   6.273   3.439 -0.2556  0.9362  0.6240
   56DOPE   O31 7125   2.077   6.149   3.601  0.4351  0.0832  0.0603
   56DOPE   C31 7126   2.184   6.220   3.639 -0.1890  0.0039 -0.3809
   56DOPE   O32 7127   2.204   6.336   3.600  0.3466  0.1093 -0.0113
   56DOPE   C32 7128   2.261   6.137   3.742  0.6493  0.5180 -0.5252
   56DOPE   H2X 7129   2.211   6.151   3.840 -0.0647 -0.4646 -0.7359
   56DOPE   H2Y 7130   2.261   6.028   3.720  2.7306  0.5496 -0.9249
   56DOPE   C23 7131   1.775   5.820   3.791  0.4528  0.7000 -0.3009
   56DOPE   H3R 7132   1.714   5.790   3.879  0.9765  0.3018 -0.0647
   56DOPE   H3S 7133   1.855   5.890   3.824  0.6687 -0.1156  1.0035
   56DOPE   C24 7134   1.839   5.692   3.732  0.2846  0.2429  0.9292
   56DOPE   H4R 7135   1.908   5.643   3.804  1.3323 -0.2530 -0.3741
   56DOPE   H4S 7136   1.898   5.726   3.644  1.6857 -2.8433  0.5655
   56DOPE   C25 7137   1.738   5.582   3.691  0.4280 -0.6657  0.2673
   56DOPE   H5R 7138   1.774   5.484   3.652  1.0761 -0.8400  1.2847
   56DOPE   H5S 7139   1.672   5.629   3.615  0.0830 -0.4597  0.6884
   56DOPE   C26 7140   1.652   5.527   3.813  0.1264  0.2348 -0.1971
   56DOPE   H6R 7141   1.593   5.603   3.868 -2.7191 -0.8558 -1.5288
   56DOPE   H6S 7142   1.730   5.477   3.875  1.1663  0.8397 -0.9790
   56DOPE   C27 7143   1.546   5.427   3.769 -0.2393 -0.1310  0.6215
   56DOPE   H7R 7144   1.593   5.360   3.694 -0.2761 -0.2451  0.7003
   56DOPE   H7S 7145   1.461   5.483   3.723 -1.6313 -0.9244  2.1425
   56DOPE   C28 7146   1.488   5.338   3.875 -0.7486  0.2750  0.4397
   56DOPE   H8R 7147   1.393   5.299   3.831 -2.7616  2.7024  2.3509
   56DOPE   H8S 7148   1.448   5.405   3.954 -1.8462 -1.0154  1.0230
   56DOPE   C29 7149   1.573   5.224   3.925  0.2519 -0.3340 -0.0573
   56DOPE   H9R 7150   1.605   5.153   3.847 -1.2591 -0.4361 -0.6278
   56DOPE  C210 7151   1.615   5.199   4.054  0.2530 -0.0140 -0.1993
   56DOPE  H10R 7152   1.692   5.122   4.065 -0.2932 -0.7315 -1.2387
   56DOPE  C211 7153   1.592   5.280   4.180 -0.2981  0.3082 -0.2497
   56DOPE  H11R 7154   1.584   5.210   4.267  0.6746 -0.6373 -0.8918
   56DOPE  H11S 7155   1.496   5.335   4.184  1.4255  3.4914  2.3670
   56DOPE  C212 7156   1.697   5.385   4.214 -0.0984 -0.1888 -0.3367
   56DOPE  H12R 7157   1.727   5.442   4.123  1.3374 -0.9394 -0.3674
   56DOPE  H12S 7158   1.793   5.333   4.237 -0.2938 -0.7996 -0.8604
   56DOPE  C213 7159   1.665   5.475   4.339  0.3293  0.4848  0.2037
   56DOPE  H13R 7160   1.637   5.411   4.425  1.7491  1.0661  1.1367
   56DOPE  H13S 7161   1.590   5.554   4.320 -2.8271 -1.7315  2.4055
   56DOPE  C214 7162   1.787   5.554   4.380  0.0828 -0.0985  0.1669
   56DOPE  H14R 7163   1.797   5.625   4.295  1.6129  0.4163  0.7476
   56DOPE  H14S 7164   1.880   5.494   4.379 -0.0977 -0.5713  2.7657
   56DOPE  C215 7165   1.753   5.626   4.511  0.1884 -0.1262 -0.0752
   56DOPE  H15R 7166   1.741   5.544   4.585  0.4050 -1.1502 -1.1510
   56DOPE  H15S 7167   1.666   5.694   4.503  0.8124  0.6424 -0.4017
   56DOPE  C216 7168   1.869   5.708   4.570  0.1322 -0.2800  1.2348
   56DOPE  H16R 7169   1.914   5.763   4.484  1.6708  0.0222  2.1933
   56DOPE  H16S 7170   1.959   5.651   4.601  2.5924  3.3118  1.3559
   56DOPE  C217 7171   1.825   5.814   4.670  0.3489 -0.3018 -0.3147
   56DOPE  H17R 7172   1.775   5.901   4.623  0.8229  0.1611  0.0208
   56DOPE  H17S 7173   1.911   5.859   4.725 -1.1884  1.3305  0.8752
   56DOPE  C218 7174   1.725   5.757   4.780  0.8167 -0.0444  0.1273
   56DOPE  H18R 7175   1.640   5.692   4.748  0.6475  0.5550 -0.6741
   56DOPE  H18S 7176   1.671   5.837   4.835 -2.2216 -1.3236 -0.7616
   56DOPE  H18T 7177   1.788   5.701   4.852  1.7235  0.6879 -0.0807
   56DOPE   C33 7178   2.407   6.184   3.757 -0.1590 -0.1302 -0.2238
   56DOPE   H3X 7179   2.419   6.294   3.757  1.1013 -0.2170  1.3591
   56DOPE   H3Y 7180   2.476   6.125   3.693 -0.7146 -2.3626  1.1197
   56DOPE   C34 7181   2.453   6.139   3.902 -0.1501  0.1400  0.3329
   56DOPE   H4X 7182   2.388   6.167   3.988 -0.5738 -0.8972  0.3632
   56DOPE   H4Y 7183   2.455   6.028   3.902 -0.4739  0.1056  2.3126
   56DOPE   C35 7184   2.588   6.198   3.931 -0.0203  0.6245 -0.4715
   56DOPE   H5X 7185   2.585   6.309   3.922 -0.8576  0.6569  0.0874
   56DOPE   H5Y 7186   2.659   6.154   3.858 -1.0926 -1.1526 -0.5069
   56DOPE   C36 7187   2.630   6.164   4.076  0.3475  0.0821  0.4302
   56DOPE   H6X 7188   2.630   6.053   4.081 -1.2362 -0.0055 -0.6729
   56DOPE   H6Y 7189   2.555   6.189   4.154  0.5094 -1.5233  1.1240
   56DOPE   C37 7190   2.763   6.237   4.120 -0.5030 -0.8655  0.5964
   56DOPE   H7X 7191   2.843   6.229   4.043  2.2048 -2.5168  3.3047
   56DOPE   H7Y 7192   2.740   6.344   4.138 -0.8063 -0.8314  0.0189
   56DOPE   C38 7193   2.829   6.177   4.251 -0.2237 -0.0437 -0.2026
   56DOPE   H8X 7194   2.861   6.074   4.224  1.9864  0.1454  1.4574
   56DOPE   H8Y 7195   2.753   6.177   4.332  1.0375  0.5274  1.0240
   56DOPE   C39 7196   2.958   6.239   4.298  1.0574 -0.0766  0.5833
   56DOPE   H9X 7197   3.046   6.177   4.321  2.2030  1.6450  1.1095
   56DOPE  C310 7198   2.975   6.362   4.339  0.6827  0.4969 -0.4712
   56DOPE  H10X 7199   3.077   6.397   4.360  0.3916  0.4418  1.2084
   56DOPE  C311 7200   2.876   6.471   4.345  0.1768 -0.5525  0.3063
   56DOPE  H11X 7201   2.773   6.437   4.320 -0.2266 -0.7035  2.0816
   56DOPE  H11Y 7202   2.867   6.507   4.449 -1.1247  0.8036 -0.2377
   56DOPE  C312 7203   2.903   6.594   4.253  0.1568  0.1065 -0.1044
   56DOPE  H12X 7204   3.013   6.610   4.245  0.0545  0.2281 -1.4290
   56DOPE  H12Y 7205   2.856   6.690   4.282  0.3665  0.1023  0.2648
   56DOPE  C313 7206   2.854   6.564   4.110 -0.2226  0.8025  0.4664
   56DOPE  H13X 7207   2.907   6.477   4.066 -2.3372  0.5915 -1.9012
   56DOPE  H13Y 7208   2.744   6.553   4.108 -0.4806  2.8793  0.5621
   56DOPE  C314 7209   2.895   6.680   4.011  0.4158  0.0381 -0.3715
   56DOPE  H14X 7210   3.000   6.712   4.030  0.5596 -0.8960  0.4892
   56DOPE  H14Y 7211   2.822   6.759   4.040  1.3609  1.2032 -1.0636
   56DOPE  C315 7212   2.861   6.658   3.863  0.5195 -0.0153  0.1626
   56DOPE  H15X 7213   2.867   6.760   3.819 -1.6652  0.2340  0.3569
   56DOPE  H15Y 7214   2.757   6.625   3.841  0.9278  0.2964 -2.5703
   56DOPE  C316 7215   2.962   6.551   3.803  0.7997 -0.1846  0.3132
   56DOPE  H16X 7216   2.942   6.450   3.843 -0.4320  0.0279  0.2737
   56DOPE  H16Y 7217   3.061   6.583   3.842  2.0230 -0.8494 -2.0575
   56DOPE  C317 7218   2.968   6.559   3.654 -0.2092  0.5949  0.0711
   56DOPE  H17X 7219   2.974   6.664   3.620 -0.3902 -0.1575 -2.4583
   56DOPE  H17Y 7220   3.061   6.511   3.616  0.2074 -0.0794  1.7975
   56DOPE  C318 7221   2.850   6.488   3.580  0.0303 -0.2801 -0.2265
   56DOPE  H18X 7222   2.753   6.518   3.625  0.7652  1.1022  0.5208
   56DOPE  H18Y 7223   2.850   6.522   3.474 -0.0275 -0.9148 -0.4304
   56DOPE  H18Z 7224   2.847   6.378   3.593  0.0760 -0.4595 -1.5738
   57DOPE     N 7225   0.701   2.587   2.856  0.3492 -0.3203 -0.2602
   57DOPE   HN1 7226   0.654   2.495   2.866  1.2671 -0.7485  0.1831
   57DOPE   HN2 7227   0.692   2.634   2.948  1.0765 -2.5472  1.0121
   57DOPE   HN3 7228   0.657   2.643   2.780  0.8904 -0.8774 -1.0038
   57DOPE   C12 7229   0.841   2.573   2.811  0.3373  0.4081 -0.5766
   57DOPE  H12A 7230   0.896   2.667   2.788  0.1794  0.2849 -1.4730
   57DOPE  H12B 7231   0.831   2.517   2.716 -0.9860  1.1460 -0.8970
   57DOPE   C11 7232   0.932   2.504   2.909 -0.7784  0.0784  0.2589
   57DOPE  H11A 7233   0.961   2.557   3.002 -0.3728 -0.2115  0.3023
   57DOPE  H11B 7234   1.024   2.482   2.850 -1.6929  1.1350 -1.6400
   57DOPE     P 7235   0.945   2.270   3.032  0.0418  0.2876  0.2712
   57DOPE   O13 7236   1.080   2.320   3.058 -0.1470  0.1487 -0.2956
   57DOPE   O14 7237   0.927   2.130   2.982 -0.3703  0.4146  0.4482
   57DOPE   O11 7238   0.860   2.275   3.164  0.2748  0.1647 -0.2703
   57DOPE   O12 7239   0.873   2.375   2.936  0.8090 -0.1724  0.2605
   57DOPE    C1 7240   0.742   2.357   3.187 -0.1624  0.5396  0.3440
   57DOPE    HA 7241   0.650   2.317   3.139  0.3021  0.0706 -0.1773
   57DOPE    HB 7242   0.771   2.458   3.151 -1.0961 -0.1568 -2.6279
   57DOPE    C2 7243   0.709   2.378   3.341 -0.2470  0.2163  0.6170
   57DOPE    HS 7244   0.630   2.454   3.357 -1.8429 -1.8883  3.6631
   57DOPE   O21 7245   0.830   2.418   3.415 -0.1469 -0.3723  0.1155
   57DOPE   C21 7246   0.854   2.547   3.404 -0.2391  0.3857 -0.3470
   57DOPE   O22 7247   0.798   2.626   3.328  0.4616  0.0375  0.0075
   57DOPE   C22 7248   0.973   2.571   3.503  0.4445 -0.8690 -0.4322
   57DOPE   H2R 7249   1.051   2.629   3.448  1.1822  1.1341  2.4916
   57DOPE   H2S 7250   1.002   2.472   3.544 -1.8455 -0.9809  1.0659
   57DOPE    C3 7251   0.652   2.247   3.395  0.7356  0.1664 -0.2991
   57DOPE    HX 7252   0.726   2.167   3.374  0.2725  0.3358 -2.9148
   57DOPE    HY 7253   0.556   2.218   3.347  1.0115 -0.2880 -0.5859
   57DOPE   O31 7254   0.634   2.274   3.534  0.3989 -0.1707 -0.4307
   57DOPE   C31 7255   0.643   2.174   3.620  0.2768  0.2315 -0.2525
   57DOPE   O32 7256   0.672   2.059   3.590 -0.3427  0.3986  0.1226
   57DOPE   C32 7257   0.610   2.216   3.767  0.3527  0.0422 -0.2886
   57DOPE   H2X 7258   0.525   2.287   3.758  0.1090 -0.3825 -1.5193
   57DOPE   H2Y 7259   0.575   2.130   3.829  1.0795  0.4688  0.7370
   57DOPE   C23 7260   0.935   2.675   3.609 -0.3786  0.6819 -0.1561
   57DOPE   H3R 7261   0.842   2.647   3.664  0.8168 -0.5324  1.3371
   57DOPE   H3S 7262   0.914   2.769   3.554 -1.4475  0.4807 -0.1240
   57DOPE   C24 7263   1.049   2.725   3.698  0.2287  1.1186 -0.5119
   57DOPE   H4R 7264   1.068   2.650   3.778 -0.9283  1.1252 -0.2032
   57DOPE   H4S 7265   1.016   2.808   3.764 -3.8809  0.8614 -1.9477
   57DOPE   C25 7266   1.176   2.763   3.629 -0.5987 -0.5297 -0.0542
   57DOPE   H5R 7267   1.148   2.824   3.540  0.0634  1.6443  1.1474
   57DOPE   H5S 7268   1.242   2.676   3.606 -0.7730 -0.4916 -0.7069
   57DOPE   C26 7269   1.260   2.854   3.719  0.6745 -0.4779  0.0387
   57DOPE   H6R 7270   1.304   2.801   3.807  0.7180  0.7989  0.8115
   57DOPE   H6S 7271   1.198   2.938   3.755  2.6786  1.6463 -1.2042
   57DOPE   C27 7272   1.373   2.922   3.645  0.3967  0.0688 -0.3988
   57DOPE   H7R 7273   1.326   2.975   3.559 -0.1056 -2.2114 -1.6252
   57DOPE   H7S 7274   1.434   2.853   3.582  1.4712  2.4247 -2.1319
   57DOPE   C28 7275   1.469   3.008   3.721  0.7377  0.2432  0.5220
   57DOPE   H8R 7276   1.549   3.033   3.647 -0.4249 -1.6817 -1.4955
   57DOPE   H8S 7277   1.504   2.938   3.799 -0.9732 -0.9509  0.2649
   57DOPE   C29 7278   1.420   3.131   3.800  0.1653 -0.7274  0.4859
   57DOPE   H9R 7279   1.402   3.213   3.729  1.5014 -0.1983  0.7262
   57DOPE  C210 7280   1.374   3.144   3.931 -0.1026  0.2617  0.5681
   57DOPE  H10R 7281   1.333   3.234   3.978 -3.6516 -0.3030 -1.0870
   57DOPE  C211 7282   1.376   3.036   4.038  0.1853 -0.3877 -0.5402
   57DOPE  H11R 7283   1.400   2.940   3.989  1.4710 -1.3492  1.8228
   57DOPE  H11S 7284   1.279   3.030   4.092 -0.2798  0.2495 -1.2796
   57DOPE  C212 7285   1.488   3.057   4.133 -0.2946 -0.3969 -0.0721
   57DOPE  H12R 7286   1.578   3.103   4.087  0.9652 -1.0139  1.6602
   57DOPE  H12S 7287   1.517   2.964   4.186  0.5033 -0.1137  0.0076
   57DOPE  C213 7288   1.456   3.151   4.255 -0.8215  0.9294 -0.0114
   57DOPE  H13R 7289   1.363   3.105   4.297 -0.4070 -0.7971 -0.8981
   57DOPE  H13S 7290   1.430   3.255   4.224  0.7631  1.3257 -0.0557
   57DOPE  C214 7291   1.575   3.164   4.340  0.2053  0.3886  0.1744
   57DOPE  H14R 7292   1.649   3.216   4.275 -3.1090  2.6062 -2.1085
   57DOPE  H14S 7293   1.617   3.066   4.372 -0.0701  0.2530  0.1228
   57DOPE  C215 7294   1.557   3.240   4.476  0.7976  0.1921  0.0913
   57DOPE  H15R 7295   1.493   3.183   4.547 -0.3681  1.1539 -0.1503
   57DOPE  H15S 7296   1.496   3.331   4.456  0.7538  0.4468  1.2618
   57DOPE  C216 7297   1.680   3.277   4.552  0.3600 -0.4835  0.4126
   57DOPE  H16R 7298   1.733   3.184   4.582 -2.2633 -0.8841  4.7080
   57DOPE  H16S 7299   1.662   3.330   4.648  1.0361 -2.6350  1.8119
   57DOPE  C217 7300   1.776   3.371   4.472 -0.1889  1.0489 -0.2952
   57DOPE  H17R 7301   1.784   3.330   4.369  0.0861 -1.5067  0.6564
   57DOPE  H17S 7302   1.872   3.371   4.529 -1.0859  0.1815  1.3138
   57DOPE  C218 7303   1.726   3.520   4.481  0.6718 -0.0704 -1.0055
   57DOPE  H18R 7304   1.806   3.585   4.440  0.4497 -0.6484 -2.4108
   57DOPE  H18S 7305   1.703   3.544   4.587  0.7979  2.5039 -1.4985
   57DOPE  H18T 7306   1.636   3.536   4.417 -0.5539  1.1625  0.9069
   57DOPE   C33 7307   0.727   2.290   3.834  0.3221  0.1184 -0.1656
   57DOPE   H3X 7308   0.775   2.354   3.756  1.0747 -0.9868 -0.6215
   57DOPE   H3Y 7309   0.805   2.216   3.861 -1.8924 -1.9889  0.7378
   57DOPE   C34 7310   0.696   2.388   3.952  0.6468  0.2894 -0.3445
   57DOPE   H4X 7311   0.626   2.471   3.929  0.0966  0.2620  1.1539
   57DOPE   H4Y 7312   0.655   2.313   4.023 -0.9547  0.9481 -0.5408
   57DOPE   C35 7313   0.827   2.448   4.006  0.0536  0.0488 -0.3967
   57DOPE   H5X 7314   0.879   2.487   3.916  3.0317  1.2928  1.6881
   57DOPE   H5Y 7315   0.899   2.370   4.037  1.7825  2.0588  0.9074
   57DOPE   C36 7316   0.802   2.542   4.126 -0.7284  0.0997  0.1220
   57DOPE   H6X 7317   0.753   2.480   4.204 -0.3900 -1.0994 -0.5831
   57DOPE   H6Y 7318   0.737   2.624   4.089 -0.0115  0.5263 -0.2265
   57DOPE   C37 7319   0.928   2.598   4.181  0.9667 -0.0252 -0.2682
   57DOPE   H7X 7320   0.918   2.611   4.291  1.5139  0.5200 -0.2777
   57DOPE   H7Y 7321   1.003   2.518   4.166 -1.0131 -2.1670  0.7215
   57DOPE   C38 7322   0.989   2.726   4.121 -0.5881  1.2599 -0.0399
   57DOPE   H8X 7323   0.922   2.809   4.151  1.3796  2.7786  0.3166
   57DOPE   H8Y 7324   0.974   2.719   4.011  1.3605  0.6408 -0.2992
   57DOPE   C39 7325   1.135   2.748   4.160 -0.6440 -0.5582 -0.1732
   57DOPE   H9X 7326   1.219   2.699   4.109  0.1265  0.5043  0.0352
   57DOPE  C310 7327   1.169   2.818   4.275  0.5072 -0.5950  0.6263
   57DOPE  H10X 7328   1.272   2.810   4.312  0.4934  1.2039  1.1555
   57DOPE  C311 7329   1.074   2.880   4.373 -0.4177  0.0837  0.2941
   57DOPE  H11X 7330   1.085   2.990   4.380 -0.2901 -0.0196  3.0593
   57DOPE  H11Y 7331   0.965   2.873   4.354 -0.4645 -3.1682  1.0830
   57DOPE  C312 7332   1.097   2.832   4.520  0.3248  0.7101  0.2905
   57DOPE  H12X 7333   1.092   2.721   4.522 -2.0538  0.5769 -3.3050
   57DOPE  H12Y 7334   1.028   2.878   4.594 -0.2099 -0.8995  0.8321
   57DOPE  C313 7335   1.235   2.877   4.577  0.6354 -0.0680 -0.0165
   57DOPE  H13X 7336   1.316   2.826   4.520 -0.4468 -1.3858 -0.4285
   57DOPE  H13Y 7337   1.224   2.985   4.554 -0.0721  0.0991  1.0539
   57DOPE  C314 7338   1.250   2.865   4.729  0.8618  0.4402  0.4089
   57DOPE  H14X 7339   1.275   2.762   4.762 -0.3493  0.6717  2.1795
   57DOPE  H14Y 7340   1.152   2.885   4.776 -0.1070  0.3044 -1.4410
   57DOPE  C315 7341   1.363   2.952   4.786  0.2211 -0.0310 -0.6017
   57DOPE  H15X 7342   1.381   2.941   4.895  1.0854  1.4864 -0.5594
   57DOPE  H15Y 7343   1.320   3.054   4.775  0.8401  0.4391  1.0060
   57DOPE  C316 7344   1.494   2.944   4.714  0.8558 -0.4400  0.3674
   57DOPE  H16X 7345   1.556   3.004   4.784 -1.2567  1.0368  1.0808
   57DOPE  H16Y 7346   1.493   2.979   4.609 -1.1767  3.6946  1.5488
   57DOPE  C317 7347   1.545   2.798   4.711  0.1949 -0.5067  0.3944
   57DOPE  H17X 7348   1.530   2.757   4.813 -0.4249 -0.3401  0.3769
   57DOPE  H17Y 7349   1.494   2.731   4.640  0.3538 -0.3009  0.0848
   57DOPE  C318 7350   1.691   2.807   4.674  0.1304  0.2509  0.5266
   57DOPE  H18X 7351   1.753   2.722   4.709  0.3790  0.9568  1.8866
   57DOPE  H18Y 7352   1.706   2.832   4.567  2.0102  0.5590  0.8353
   57DOPE  H18Z 7353   1.733   2.901   4.716 -0.7873  0.1549  1.7344
   58DOPE     N 7354   6.470   0.036   2.964  0.7574  0.0219  0.3805
   58DOPE   HN1 7355   6.567   0.008   2.939  1.3750 -0.5812  3.1965
   58DOPE   HN2 7356   6.435   0.114   2.904 -0.1031 -0.0195  0.8251
   58DOPE   HN3 7357   6.476   0.093   3.051  3.0006  1.3842 -0.5477
   58DOPE   C12 7358   6.373  -0.074   2.987  0.4017  0.2880  0.2259
   58DOPE  H12A 7359   6.334  -0.113   2.890 -3.0257  1.4629  0.9903
   58DOPE  H12B 7360   6.288  -0.022   3.036 -0.9354 -0.1904 -1.4919
   58DOPE   C11 7361   6.440  -0.194   3.059 -0.0162  0.0558  0.1854
   58DOPE  H11A 7362   6.514  -0.241   2.991 -0.4622 -0.2166 -0.1224
   58DOPE  H11B 7363   6.362  -0.271   3.073 -0.6361  0.6914  0.3090
   58DOPE     P 7364   6.407  -0.143   3.316  0.1350  0.0737  0.4604
   58DOPE   O13 7365   6.276  -0.084   3.279 -0.6279 -0.3949  0.3766
   58DOPE   O14 7366   6.481  -0.068   3.421  0.2040  0.3499  0.1831
   58DOPE   O11 7367   6.384  -0.295   3.358 -0.4959 -0.8651  0.2252
   58DOPE   O12 7368   6.492  -0.154   3.186 -0.0762 -0.1614  0.0807
   58DOPE    C1 7369   6.462  -0.397   3.298  0.1605  0.7663  0.6285
   58DOPE    HA 7370   6.550  -0.365   3.240  0.0253 -0.4022 -0.2670
   58DOPE    HB 7371   6.394  -0.469   3.247 -0.1831 -0.4680  2.6822
   58DOPE    C2 7372   6.511  -0.491   3.416  0.4586 -0.2809  0.4187
   58DOPE    HS 7373   6.570  -0.424   3.482  0.8026 -0.1895  0.0301
   58DOPE   O21 7374   6.589  -0.601   3.371  0.0304  0.0768  0.3602
   58DOPE   C21 7375   6.708  -0.579   3.321  0.1821  0.0171  0.5998
   58DOPE   O22 7376   6.763  -0.473   3.296  0.0803 -0.0629  0.0435
   58DOPE   C22 7377   6.767  -0.713   3.274 -0.5416 -0.0720  0.1137
   58DOPE   H2R 7378   6.826  -0.696   3.181  0.2871 -0.7936  0.4868
   58DOPE   H2S 7379   6.689  -0.787   3.246  0.1269 -0.9806  0.5953
   58DOPE    C3 7380   6.405  -0.543   3.509 -0.5575 -0.3337  0.0651
   58DOPE    HX 7381   6.332  -0.600   3.448 -0.9373  0.7559 -0.5201
   58DOPE    HY 7382   6.342  -0.457   3.542  0.2226  0.4086 -0.3293
   58DOPE   O31 7383   6.465  -0.619   3.614  0.6901  0.2118 -0.6447
   58DOPE   C31 7384   6.513  -0.554   3.722 -0.0312 -0.4308 -0.4963
   58DOPE   O32 7385   6.522  -0.434   3.732  0.7903  0.5337  0.0618
   58DOPE   C32 7386   6.552  -0.651   3.830 -0.3296  0.2374  0.2899
   58DOPE   H2X 7387   6.465  -0.687   3.889  0.6025  0.8122  2.0745
   58DOPE   H2Y 7388   6.613  -0.732   3.784  0.4920  2.1199 -2.1434
   58DOPE   C23 7389   6.844  -0.767   3.394  0.6563  0.1855 -0.2307
   58DOPE   H3R 7390   6.928  -0.699   3.420 -1.2081  2.1314  1.0196
   58DOPE   H3S 7391   6.889  -0.865   3.367 -1.7061 -1.2905  0.8503
   58DOPE   C24 7392   6.767  -0.782   3.521 -0.1302 -0.3268 -0.3422
   58DOPE   H4R 7393   6.682  -0.852   3.508  1.2996 -2.2363  0.2210
   58DOPE   H4S 7394   6.731  -0.685   3.561 -1.0231 -1.4103  1.6472
   58DOPE   C25 7395   6.857  -0.830   3.630 -0.1383  0.1634 -0.1901
   58DOPE   H5R 7396   6.924  -0.912   3.596 -2.2051 -2.2053  1.1582
   58DOPE   H5S 7397   6.796  -0.876   3.710  1.0682  0.3357  0.8661
   58DOPE   C26 7398   6.947  -0.727   3.705  0.1772 -0.5136 -0.2830
   58DOPE   H6R 7399   6.880  -0.644   3.735  0.2098 -1.6615  3.4385
   58DOPE   H6S 7400   7.030  -0.684   3.643  0.2616  0.9529  0.7901
   58DOPE   C27 7401   7.002  -0.777   3.843 -0.0656 -0.2552 -0.1613
   58DOPE   H7R 7402   7.082  -0.854   3.847 -0.8364 -1.0231  2.0664
   58DOPE   H7S 7403   6.918  -0.805   3.909  1.3751  1.0627  2.3822
   58DOPE   C28 7404   7.082  -0.666   3.925  0.0944  0.4349  0.3503
   58DOPE   H8R 7405   7.146  -0.612   3.851 -1.2737  0.2596 -0.9999
   58DOPE   H8S 7406   7.157  -0.716   3.991 -1.2366  0.6065  2.0637
   58DOPE   C29 7407   7.008  -0.563   4.005 -0.2157 -0.3066  0.1055
   58DOPE   H9R 7408   6.981  -0.464   3.965  0.8259  0.1700  0.5212
   58DOPE  C210 7409   6.970  -0.585   4.130 -0.7220 -0.0260  0.7156
   58DOPE  H10R 7410   6.917  -0.504   4.182  0.3022  0.2648  1.3291
   58DOPE  C211 7411   7.001  -0.701   4.222 -0.6395 -0.4005 -0.6002
   58DOPE  H11R 7412   7.078  -0.664   4.293  0.1267 -1.2159 -0.9845
   58DOPE  H11S 7413   7.051  -0.788   4.174 -1.9050 -1.1115 -0.6905
   58DOPE  C212 7414   6.886  -0.758   4.298  0.5298 -0.4890 -0.3338
   58DOPE  H12R 7415   6.910  -0.849   4.357  1.8658 -0.6155 -1.0329
   58DOPE  H12S 7416   6.806  -0.786   4.225 -0.6574  1.0041  0.3338
   58DOPE  C213 7417   6.811  -0.667   4.400 -0.6237 -0.3062 -0.1329
   58DOPE  H13R 7418   6.708  -0.707   4.393 -0.6497  0.0306 -2.5391
   58DOPE  H13S 7419   6.809  -0.560   4.370 -0.9664 -0.2240  0.1853
   58DOPE  C214 7420   6.857  -0.653   4.547  0.2114  0.2016  0.0222
   58DOPE  H14R 7421   6.956  -0.602   4.547 -0.3260  1.2781  0.0002
   58DOPE  H14S 7422   6.878  -0.754   4.589 -4.1760 -1.1457 -0.4866
   58DOPE  C215 7423   6.755  -0.570   4.630 -0.4383 -0.2170 -0.2880
   58DOPE  H15R 7424   6.651  -0.605   4.615 -0.0227 -1.2416 -0.9086
   58DOPE  H15S 7425   6.753  -0.469   4.583 -0.9201 -0.2568 -0.3541
   58DOPE  C216 7426   6.788  -0.552   4.778  0.6913  0.1778  0.2063
   58DOPE  H16R 7427   6.785  -0.653   4.824 -0.4416 -0.6930 -1.6054
   58DOPE  H16S 7428   6.709  -0.490   4.826  0.5494  2.8296 -3.0604
   58DOPE  C217 7429   6.921  -0.490   4.805 -0.6996  0.2129 -0.1195
   58DOPE  H17R 7430   6.931  -0.391   4.757 -3.1508  1.5261  1.8217
   58DOPE  H17S 7431   6.994  -0.558   4.757 -1.7552 -0.0511 -1.4233
   58DOPE  C218 7432   6.948  -0.476   4.947 -0.1702  0.3335 -0.3936
   58DOPE  H18R 7433   7.053  -0.469   4.981 -0.7025  2.2278  1.1153
   58DOPE  H18S 7434   6.907  -0.569   4.991 -2.5282  1.4978  0.0638
   58DOPE  H18T 7435   6.898  -0.386   4.990 -0.2151 -0.1408  0.5787
   58DOPE   C33 7436   6.648  -0.590   3.938  0.0245  0.8893 -0.0223
   58DOPE   H3X 7437   6.720  -0.520   3.891  0.1995  0.3606 -0.5592
   58DOPE   H3Y 7438   6.708  -0.676   3.975  0.2712  0.3941 -1.4820
   58DOPE   C34 7439   6.562  -0.537   4.059 -0.0980  0.1236 -0.1208
   58DOPE   H4X 7440   6.622  -0.471   4.126 -0.8608  1.8120 -1.0392
   58DOPE   H4Y 7441   6.485  -0.466   4.024 -0.0910  1.0688  1.6463
   58DOPE   C35 7442   6.489  -0.642   4.151 -0.1582 -0.8464  0.4720
   58DOPE   H5X 7443   6.570  -0.700   4.202  1.5565 -1.9452 -3.1155
   58DOPE   H5Y 7444   6.433  -0.713   4.086 -1.5016  0.3470  0.2833
   58DOPE   C36 7445   6.411  -0.563   4.263  0.3126 -0.6263 -1.2070
   58DOPE   H6X 7446   6.339  -0.495   4.213  0.5944 -0.0818 -0.8841
   58DOPE   H6Y 7447   6.486  -0.488   4.297 -0.8584  0.7418 -1.5463
   58DOPE   C37 7448   6.371  -0.637   4.384  0.3746  0.7149  0.1378
   58DOPE   H7X 7449   6.277  -0.694   4.368  0.1953  1.0939 -0.1827
   58DOPE   H7Y 7450   6.446  -0.717   4.403 -1.5581 -0.7683  1.9251
   58DOPE   C38 7451   6.351  -0.544   4.499  0.4865  0.0800 -0.2497
   58DOPE   H8X 7452   6.271  -0.474   4.468  0.2747  0.4038  0.9540
   58DOPE   H8Y 7453   6.443  -0.482   4.511  0.0857  0.9755 -1.6465
   58DOPE   C39 7454   6.316  -0.608   4.626 -0.3943 -0.8665 -0.2498
   58DOPE   H9X 7455   6.316  -0.718   4.628 -0.8964 -0.9371 -2.2666
   58DOPE  C310 7456   6.270  -0.537   4.730  0.0185  0.8450  1.2834
   58DOPE  H10X 7457   6.236  -0.589   4.821 -1.6726 -0.0305  0.2016
   58DOPE  C311 7458   6.232  -0.393   4.719  0.0995  0.2872  0.7765
   58DOPE  H11X 7459   6.258  -0.335   4.627  0.1267  1.1168  1.2993
   58DOPE  H11Y 7460   6.123  -0.376   4.723  0.0830 -0.0444  1.8646
   58DOPE  C312 7461   6.282  -0.310   4.836  0.5236  0.3467  0.1787
   58DOPE  H12X 7462   6.233  -0.331   4.934 -3.2633  0.8673 -1.4126
   58DOPE  H12Y 7463   6.255  -0.207   4.803  0.0058 -0.0229 -0.5900
   58DOPE  C313 7464   6.437  -0.314   4.857 -0.0831  0.0985 -0.1014
   58DOPE  H13X 7465   6.463  -0.412   4.903  1.0057  0.2306 -0.4118
   58DOPE  H13Y 7466   6.488  -0.297   4.760  0.7795 -0.2500  0.2834
   58DOPE  C314 7467   6.485  -0.206   4.961 -0.4178  0.3371  0.4312
   58DOPE  H14X 7468   6.413  -0.218   5.045 -0.4283 -1.7891  0.1883
   58DOPE  H14Y 7469   6.466  -0.105   4.920  1.0132  0.9460  1.1800
   58DOPE  C315 7470   6.635  -0.222   5.007  0.6216  0.1419 -0.0750
   58DOPE  H15X 7471   6.700  -0.230   4.917  0.5723  0.1130 -0.1082
   58DOPE  H15Y 7472   6.635  -0.323   5.053 -1.5879 -0.5501 -1.4161
   58DOPE  C316 7473   6.690  -0.115   5.098  0.4211 -0.4676 -0.4788
   58DOPE  H16X 7474   6.620  -0.076   5.175 -0.4348 -0.1846 -1.3837
   58DOPE  H16Y 7475   6.714  -0.027   5.036  0.7295  1.1982  1.8689
   58DOPE  C317 7476   6.816  -0.167   5.166  0.2773  0.4730  0.0285
   58DOPE  H17X 7477   6.789  -0.249   5.236 -0.5807  2.5549  2.2822
   58DOPE  H17Y 7478   6.891  -0.210   5.097  1.4488  0.8735  1.0192
   58DOPE  C318 7479   6.877  -0.060   5.253  0.1169 -0.0869 -0.2996
   58DOPE  H18X 7480   6.899   0.031   5.192 -0.0299  0.4318  0.4064
   58DOPE  H18Y 7481   6.823  -0.023   5.342  0.8048 -1.3116  0.6477
   58DOPE  H18Z 7482   6.972  -0.106   5.288  0.4009  1.0089  0.4081
   59DOPE     N 7483   1.111   0.246   2.784  0.3665 -0.0030 -0.1923
   59DOPE   HN1 7484   1.051   0.315   2.834 -1.1459 -1.9094  0.7689
   59DOPE   HN2 7485   1.056   0.210   2.704 -0.9337 -0.1662  0.7468
   59DOPE   HN3 7486   1.147   0.170   2.846  1.9748  0.4681 -0.5062
   59DOPE   C12 7487   1.232   0.318   2.735  0.2031 -0.4024  0.4268
   59DOPE  H12A 7488   1.207   0.404   2.669  0.7429 -0.9734 -0.5563
   59DOPE  H12B 7489   1.295   0.245   2.678  0.6042 -0.8025  1.3657
   59DOPE   C11 7490   1.320   0.373   2.852  0.1474  0.2477  0.2799
   59DOPE  H11A 7491   1.389   0.445   2.802 -0.6159 -0.0937 -1.3340
   59DOPE  H11B 7492   1.365   0.275   2.879  0.5674  0.2761 -0.3032
   59DOPE     P 7493   1.323   0.468   3.087 -0.4466  0.1587  0.0486
   59DOPE   O13 7494   1.384   0.603   3.066 -0.1720 -0.1748 -0.2770
   59DOPE   O14 7495   1.408   0.352   3.124  0.0251  0.6143  0.6710
   59DOPE   O11 7496   1.210   0.487   3.196  0.4736 -0.3056  0.3646
   59DOPE   O12 7497   1.242   0.426   2.958  0.7729 -0.2574 -0.3471
   59DOPE    C1 7498   1.082   0.549   3.173  0.5953 -0.8747  0.0079
   59DOPE    HA 7499   1.064   0.559   3.064  3.8964  2.9228 -0.3899
   59DOPE    HB 7500   1.087   0.649   3.220 -3.4355 -0.8108  0.7020
   59DOPE    C2 7501   0.970   0.461   3.234 -0.6031 -0.1818 -0.4212
   59DOPE    HS 7502   0.882   0.514   3.190  0.6699  2.4277  0.0050
   59DOPE   O21 7503   0.975   0.454   3.380 -0.0087 -0.2176  0.2559
   59DOPE   C21 7504   0.950   0.567   3.438  0.5605  0.0672  0.0876
   59DOPE   O22 7505   0.905   0.663   3.378 -0.4553  0.4376  0.2793
   59DOPE   C22 7506   0.994   0.564   3.586 -0.6216 -0.1048 -0.6154
   59DOPE   H2R 7507   1.103   0.545   3.593  0.1507  3.5861 -0.7734
   59DOPE   H2S 7508   0.958   0.470   3.634  0.6956 -0.2121  0.2140
   59DOPE    C3 7509   0.968   0.319   3.182 -0.0776  0.0206  0.2283
   59DOPE    HX 7510   1.057   0.261   3.214 -0.1233 -0.2300 -0.0943
   59DOPE    HY 7511   0.983   0.320   3.072  0.6808 -0.8497  0.3077
   59DOPE   O31 7512   0.835   0.273   3.206 -0.0139 -0.3210 -0.0966
   59DOPE   C31 7513   0.825   0.181   3.308 -0.5560 -0.6796 -1.1582
   59DOPE   O32 7514   0.924   0.140   3.370  0.4032  0.1542  0.0315
   59DOPE   C32 7515   0.680   0.136   3.324 -0.4126 -0.0124 -0.0009
   59DOPE   H2X 7516   0.611   0.222   3.324 -0.4552 -0.0259  1.1572
   59DOPE   H2Y 7517   0.659   0.062   3.244  0.8478 -1.8138  1.2498
   59DOPE   C23 7518   0.950   0.684   3.673  0.8843  0.3611  0.2281
   59DOPE   H3R 7519   0.972   0.771   3.607  1.7748 -1.2274 -1.6884
   59DOPE   H3S 7520   0.997   0.686   3.774 -0.8997 -2.1928  1.2167
   59DOPE   C24 7521   0.796   0.689   3.696 -0.3580  0.5578 -0.5417
   59DOPE   H4R 7522   0.762   0.616   3.772 -2.6046  0.3935 -1.6099
   59DOPE   H4S 7523   0.749   0.658   3.600  0.2939  0.9266 -0.9886
   59DOPE   C25 7524   0.744   0.823   3.733 -1.1160 -0.5001  0.6546
   59DOPE   H5R 7525   0.636   0.827   3.709 -1.3942 -1.7130  1.6278
   59DOPE   H5S 7526   0.795   0.903   3.675  1.8034 -0.2032  3.3727
   59DOPE   C26 7527   0.771   0.869   3.875 -0.3528 -0.3008 -0.2042
   59DOPE   H6R 7528   0.743   0.976   3.882  0.7356  0.2431 -2.8969
   59DOPE   H6S 7529   0.874   0.855   3.914 -1.3024 -1.7356  1.9252
   59DOPE   C27 7530   0.687   0.793   3.976  0.3269  0.5766 -0.1501
   59DOPE   H7R 7531   0.683   0.683   3.964 -1.9562  0.5862  0.0068
   59DOPE   H7S 7532   0.581   0.816   3.953  0.6033  0.3548 -1.6915
   59DOPE   C28 7533   0.699   0.828   4.123  0.9944  0.1421 -0.1537
   59DOPE   H8R 7534   0.659   0.931   4.134 -0.2329 -0.0878 -2.0246
   59DOPE   H8S 7535   0.809   0.837   4.132  0.9563 -0.5688  1.3626
   59DOPE   C29 7536   0.629   0.746   4.228  0.9944  0.4576  0.6262
   59DOPE   H9R 7537   0.519   0.753   4.234  0.9741 -0.1734  1.1192
   59DOPE  C210 7538   0.681   0.665   4.319 -0.0948  0.1992  0.1468
   59DOPE  H10R 7539   0.603   0.609   4.373  0.0897 -0.5757 -0.3636
   59DOPE  C211 7540   0.827   0.630   4.331 -0.1255 -0.8182  0.0883
   59DOPE  H11R 7541   0.860   0.660   4.433  1.8684  0.3689 -0.8344
   59DOPE  H11S 7542   0.884   0.693   4.259  0.0158 -0.2271  0.7078
   59DOPE  C212 7543   0.870   0.486   4.314  0.1701 -0.2782  0.2397
   59DOPE  H12R 7544   0.801   0.415   4.365  0.4371 -1.0133 -0.4041
   59DOPE  H12S 7545   0.975   0.479   4.351  0.7195  0.3494 -1.1454
   59DOPE  C213 7546   0.860   0.432   4.173 -0.4888 -0.1408  0.4668
   59DOPE  H13R 7547   0.928   0.344   4.167  2.2996  1.9037 -0.2590
   59DOPE  H13S 7548   0.905   0.504   4.101 -0.6600 -1.6834 -1.2795
   59DOPE  C214 7549   0.715   0.399   4.120 -0.3614 -1.4349 -0.0388
   59DOPE  H14R 7550   0.667   0.496   4.093 -1.3650 -1.4618  1.5537
   59DOPE  H14S 7551   0.652   0.366   4.205  0.1299 -1.8530  0.1688
   59DOPE  C215 7552   0.711   0.291   4.005  0.1665  0.1507 -1.0856
   59DOPE  H15R 7553   0.606   0.272   3.974  0.7934  0.7587 -3.8097
   59DOPE  H15S 7554   0.760   0.204   4.055  0.8384  0.2938 -1.4922
   59DOPE  C216 7555   0.801   0.335   3.887  0.2887 -0.2636 -0.5015
   59DOPE  H16R 7556   0.909   0.346   3.910 -0.2021  0.4120  1.7091
   59DOPE  H16S 7557   0.758   0.432   3.855 -2.7293 -1.3406 -0.1211
   59DOPE  C217 7558   0.791   0.232   3.774 -0.0332 -0.2276  0.0306
   59DOPE  H17R 7559   0.827   0.282   3.682  0.6959  1.4984  1.1840
   59DOPE  H17S 7560   0.682   0.215   3.767 -0.1038  0.7041 -1.5044
   59DOPE  C218 7561   0.853   0.102   3.817 -0.9728  0.1561 -0.3836
   59DOPE  H18R 7562   0.878   0.039   3.729 -1.7513  2.2233 -2.1946
   59DOPE  H18S 7563   0.793   0.055   3.898  1.4735 -1.1948  0.7295
   59DOPE  H18T 7564   0.950   0.127   3.866 -1.2132  0.6566 -0.1498
   59DOPE   C33 7565   0.667   0.068   3.460 -0.0175  0.2419  0.3218
   59DOPE   H3X 7566   0.736   0.106   3.538 -0.0242  1.1919 -0.1228
   59DOPE   H3Y 7567   0.695  -0.039   3.442 -0.2601  0.4588 -1.5125
   59DOPE   C34 7568   0.524   0.092   3.506 -0.2210 -0.0581  0.5274
   59DOPE   H4X 7569   0.522   0.201   3.525 -0.9089  0.1678 -0.6990
   59DOPE   H4Y 7570   0.465   0.074   3.413  0.8287  2.0014 -0.6070
   59DOPE   C35 7571   0.488  -0.005   3.613  0.9025 -0.1715 -0.2024
   59DOPE   H5X 7572   0.545   0.028   3.703  0.2026 -0.4094  0.3317
   59DOPE   H5Y 7573   0.520  -0.107   3.582 -0.6147 -0.2347 -1.6878
   59DOPE   C36 7574   0.329  -0.014   3.632  0.0062 -0.4335 -0.8741
   59DOPE   H6X 7575   0.294  -0.053   3.534 -0.8056  1.6045 -1.4454
   59DOPE   H6Y 7576   0.291   0.089   3.646 -1.2987 -0.8542 -1.2094
   59DOPE   C37 7577   0.291  -0.118   3.741 -0.4990 -0.1055  0.2325
   59DOPE   H7X 7578   0.181  -0.129   3.734 -0.5344  1.2098 -2.1013
   59DOPE   H7Y 7579   0.335  -0.213   3.706 -0.8380  0.4847 -1.9077
   59DOPE   C38 7580   0.345  -0.102   3.883 -0.5013  0.6560  0.4225
   59DOPE   H8X 7581   0.323   0.001   3.919  0.7552  1.0719  0.0558
   59DOPE   H8Y 7582   0.455  -0.105   3.868 -0.5072 -2.9373  0.4422
   59DOPE   C39 7583   0.307  -0.211   3.979  0.2321  0.4659  0.2576
   59DOPE   H9X 7584   0.262  -0.292   3.921 -0.0769  1.8975 -1.6082
   59DOPE  C310 7585   0.340  -0.223   4.111  0.2562  0.2319  0.1859
   59DOPE  H10X 7586   0.339  -0.316   4.169  0.3205  1.7407  2.7915
   59DOPE  C311 7587   0.419  -0.119   4.184  0.0508  0.6747 -0.0801
   59DOPE  H11X 7588   0.497  -0.165   4.248 -0.8764  1.1467  1.4726
   59DOPE  H11Y 7589   0.472  -0.051   4.114  0.6686  0.1897 -0.0854
   59DOPE  C312 7590   0.319  -0.052   4.280  0.4698  0.1173  0.1730
   59DOPE  H12X 7591   0.263  -0.127   4.340 -0.6002  0.6048 -0.2001
   59DOPE  H12Y 7592   0.239   0.007   4.231 -0.8457  0.6030  2.7267
   59DOPE  C313 7593   0.395   0.042   4.382  0.2307  0.9577  0.4867
   59DOPE  H13X 7594   0.463   0.114   4.331  1.6331 -0.6033  0.0325
   59DOPE  H13Y 7595   0.313   0.093   4.437 -4.4924 -0.5440 -4.2925
   59DOPE  C314 7596   0.497  -0.030   4.479  0.3391 -0.3412 -0.2660
   59DOPE  H14X 7597   0.588  -0.064   4.425 -0.0568 -0.2801 -0.9933
   59DOPE  H14Y 7598   0.452  -0.127   4.509  2.9121 -2.1778 -1.8912
   59DOPE  C315 7599   0.531   0.061   4.592  0.1331  0.3497 -0.1365
   59DOPE  H15X 7600   0.543   0.003   4.686  0.7716  1.1689  0.3053
   59DOPE  H15Y 7601   0.450   0.131   4.623  1.8753  2.3848  0.1187
   59DOPE  C316 7602   0.650   0.151   4.561  0.5808  0.3420  0.0933
   59DOPE  H16X 7603   0.629   0.204   4.466 -2.8345 -0.7842  0.1037
   59DOPE  H16Y 7604   0.742   0.089   4.554 -0.0562 -0.4454 -1.4499
   59DOPE  C317 7605   0.659   0.258   4.663 -0.2208  0.4103 -0.4511
   59DOPE  H17X 7606   0.564   0.316   4.666 -1.3963 -1.4149 -1.0595
   59DOPE  H17Y 7607   0.673   0.213   4.764  2.0459  0.4103 -0.7112
   59DOPE  C318 7608   0.776   0.354   4.641 -0.3804  0.2597  0.2957
   59DOPE  H18X 7609   0.747   0.429   4.565 -1.3978  0.6396  1.0443
   59DOPE  H18Y 7610   0.794   0.409   4.736 -1.6136 -0.2011  0.8114
   59DOPE  H18Z 7611   0.872   0.307   4.609 -0.7109 -1.8618  2.1454
   60DOPE     N 7612   0.269   6.013   2.303  0.4314 -0.1049  0.0687
   60DOPE   HN1 7613   0.260   5.929   2.363  0.5102 -0.0948  0.0937
   60DOPE   HN2 7614   0.260   5.989   2.202 -0.9777  2.1567 -0.3965
   60DOPE   HN3 7615   0.366   6.049   2.318  0.8444 -1.5156  0.9783
   60DOPE   C12 7616   0.178   6.124   2.338  0.0078  0.6562 -0.4187
   60DOPE  H12A 7617   0.075   6.085   2.347  0.4426 -0.6910 -1.0332
   60DOPE  H12B 7618   0.185   6.204   2.261  0.0070  0.0648 -1.0409
   60DOPE   C11 7619   0.202   6.188   2.473  0.6211 -0.0083 -0.8140
   60DOPE  H11A 7620   0.114   6.255   2.475  0.1176 -0.6683  0.1024
   60DOPE  H11B 7621   0.298   6.243   2.471  0.8965 -0.4568 -0.3343
   60DOPE     P 7622   0.330   6.049   2.652 -0.4460  0.2649 -0.0208
   60DOPE   O13 7623   0.371   6.146   2.758 -0.1795 -0.1830 -0.0894
   60DOPE   O14 7624   0.432   6.034   2.547  0.2822  0.2583  0.2757
   60DOPE   O11 7625   0.311   5.899   2.708 -0.4554 -0.1182 -0.3795
   60DOPE   O12 7626   0.196   6.093   2.575 -0.8457  0.8592  0.0535
   60DOPE    C1 7627   0.198   5.868   2.780  0.2252  0.2615 -0.3781
   60DOPE    HA 7628   0.190   5.758   2.764  0.1641 -0.0059  1.2531
   60DOPE    HB 7629   0.108   5.921   2.744  0.3454  1.3106  0.7984
   60DOPE    C2 7630   0.221   5.893   2.932  0.8743  0.2806 -0.3800
   60DOPE    HS 7631   0.215   6.000   2.962 -1.1493  0.3011 -0.6672
   60DOPE   O21 7632   0.341   5.833   2.963 -0.3897 -0.3993 -0.0157
   60DOPE   C21 7633   0.407   5.894   3.064  0.6816  0.3934  0.6297
   60DOPE   O22 7634   0.369   5.992   3.126 -0.2533 -0.2992  0.2671
   60DOPE   C22 7635   0.540   5.825   3.091 -0.7165 -0.1476 -0.3511
   60DOPE   H2R 7636   0.609   5.888   3.031  0.2483 -0.7954  0.0511
   60DOPE   H2S 7637   0.538   5.723   3.046 -0.8291  0.4410 -1.7421
   60DOPE    C3 7638   0.105   5.817   3.010  0.0822  0.6316 -0.0381
   60DOPE    HX 7639   0.123   5.708   2.996  0.3953  0.7754 -0.7815
   60DOPE    HY 7640   0.007   5.844   2.968 -0.0801 -0.9705 -0.7473
   60DOPE   O31 7641   0.102   5.832   3.156  0.0706 -0.0226  0.2219
   60DOPE   C31 7642   0.035   5.932   3.198 -0.1483 -0.4748 -0.2476
   60DOPE   O32 7643  -0.036   6.006   3.133 -0.0922  0.0400 -0.2278
   60DOPE   C32 7644   0.055   5.944   3.348  0.1274  0.1790 -0.9349
   60DOPE   H2X 7645   0.042   6.049   3.381 -1.7378 -0.3176  0.0951
   60DOPE   H2Y 7646  -0.023   5.888   3.405  0.4717  0.3613 -0.2856
   60DOPE   C23 7647   0.592   5.829   3.239 -0.0215 -0.4044 -1.1933
   60DOPE   H3R 7648   0.540   5.745   3.290 -1.5627  0.7495 -0.7675
   60DOPE   H3S 7649   0.558   5.925   3.284 -1.9404 -1.1539 -0.9629
   60DOPE   C24 7650   0.745   5.808   3.246  0.0344  0.8140 -0.6388
   60DOPE   H4R 7651   0.782   5.879   3.169 -0.8562  1.0453 -0.8639
   60DOPE   H4S 7652   0.778   5.711   3.201  0.6443 -0.3886  2.1971
   60DOPE   C25 7653   0.816   5.836   3.376  1.0323 -0.0330 -0.4749
   60DOPE   H5R 7654   0.918   5.792   3.375  1.1095  0.0615  0.8407
   60DOPE   H5S 7655   0.763   5.785   3.460  0.3490  0.8338 -0.3660
   60DOPE   C26 7656   0.829   5.982   3.431 -0.1928  0.0026  0.6797
   60DOPE   H6R 7657   0.727   6.018   3.451 -0.6573 -0.2181 -1.0773
   60DOPE   H6S 7658   0.868   6.044   3.347  2.2523 -2.0172  0.1884
   60DOPE   C27 7659   0.906   5.990   3.567 -0.7789  0.0418 -0.5783
   60DOPE   H7R 7660   1.006   5.959   3.530 -0.4706  2.4493 -1.9776
   60DOPE   H7S 7661   0.862   5.923   3.644  1.0665 -0.6176 -0.0564
   60DOPE   C28 7662   0.926   6.123   3.646 -0.4694  0.1437  0.0750
   60DOPE   H8R 7663   0.963   6.198   3.573  0.7005 -0.1003  0.3916
   60DOPE   H8S 7664   0.999   6.119   3.730  1.6289  0.2945 -1.6736
   60DOPE   C29 7665   0.798   6.170   3.703  0.3631  0.2495 -0.0740
   60DOPE   H9R 7666   0.724   6.184   3.623 -1.1828 -0.9423  1.0752
   60DOPE  C210 7667   0.752   6.197   3.829  0.2915 -0.7196 -0.5714
   60DOPE  H10R 7668   0.646   6.221   3.846  0.2465 -1.8819  0.9369
   60DOPE  C211 7669   0.830   6.177   3.963 -0.1247 -0.0751  0.8931
   60DOPE  H11R 7670   0.809   6.255   4.039  0.6449  0.8344  0.1936
   60DOPE  H11S 7671   0.939   6.191   3.944 -0.4619  1.1785 -0.2836
   60DOPE  C212 7672   0.809   6.029   4.009 -0.4982 -0.0164 -1.0305
   60DOPE  H12R 7673   0.809   5.974   3.912  0.9211  0.0503 -1.0824
   60DOPE  H12S 7674   0.711   6.022   4.061  0.9017 -1.1979  1.6087
   60DOPE  C213 7675   0.923   5.983   4.103  0.7575 -0.5005  0.3703
   60DOPE  H13R 7676   1.013   6.048   4.088 -1.5790  2.3789 -2.6734
   60DOPE  H13S 7677   0.964   5.886   4.067  0.1616 -1.1477  1.3848
   60DOPE  C214 7678   0.881   5.950   4.246 -0.4321 -0.1391 -0.7235
   60DOPE  H14R 7679   0.842   6.045   4.288  0.2043  0.7550 -2.0696
   60DOPE  H14S 7680   0.972   5.924   4.304  0.1445  1.3148 -0.9441
   60DOPE  C215 7681   0.781   5.831   4.261  0.3307  0.1988 -0.4285
   60DOPE  H15R 7682   0.826   5.737   4.221  0.2302  0.3327 -0.8610
   60DOPE  H15S 7683   0.685   5.839   4.206  0.2786  2.2443 -0.1229
   60DOPE  C216 7684   0.741   5.798   4.406  0.8447  0.7823 -0.2752
   60DOPE  H16R 7685   0.703   5.892   4.452  0.6126  2.7160 -4.0741
   60DOPE  H16S 7686   0.825   5.762   4.469  0.3438 -0.2403 -0.1771
   60DOPE  C217 7687   0.636   5.691   4.421 -0.4408  0.5680 -0.4144
   60DOPE  H17R 7688   0.612   5.682   4.529 -2.0646  0.4499 -0.7606
   60DOPE  H17S 7689   0.676   5.595   4.382  1.2606  1.3850 -0.7968
   60DOPE  C218 7690   0.501   5.730   4.355 -0.2834 -0.0240 -0.5366
   60DOPE  H18R 7691   0.460   5.815   4.415 -3.3095 -1.2010 -0.7458
   60DOPE  H18S 7692   0.423   5.653   4.375 -0.1483  0.2458  1.2515
   60DOPE  H18T 7693   0.512   5.748   4.246 -0.7950 -2.5660 -1.0708
   60DOPE   C33 7694   0.185   5.881   3.397 -0.3752  0.4154 -0.1282
   60DOPE   H3X 7695   0.273   5.916   3.339 -0.2725  0.0032 -0.2215
   60DOPE   H3Y 7696   0.170   5.772   3.390  1.1394  0.0884  1.2021
   60DOPE   C34 7697   0.209   5.921   3.552  0.5596  0.5054 -0.0530
   60DOPE   H4X 7698   0.224   6.031   3.552  1.1029  0.4335 -0.1676
   60DOPE   H4Y 7699   0.125   5.885   3.616  1.0410 -0.2813  0.1512
   60DOPE   C35 7700   0.337   5.867   3.610 -0.3031  0.7439  0.3306
   60DOPE   H5X 7701   0.421   5.904   3.549  0.0489 -1.4472 -0.6223
   60DOPE   H5Y 7702   0.332   5.756   3.599  2.0529  0.5604  0.6229
   60DOPE   C36 7703   0.379   5.914   3.751  0.0107 -0.0110 -0.4576
   60DOPE   H6X 7704   0.311   5.873   3.829  0.4160  0.9663  0.4196
   60DOPE   H6Y 7705   0.374   6.024   3.764 -0.7537 -0.4062  4.5782
   60DOPE   C37 7706   0.523   5.884   3.790  0.0602 -0.9215  0.0542
   60DOPE   H7X 7707   0.590   5.944   3.724 -1.3056  1.2746  0.5469
   60DOPE   H7Y 7708   0.545   5.915   3.894 -0.3611  0.3226 -0.2141
   60DOPE   C38 7709   0.557   5.733   3.790 -0.5101 -0.4871  0.7900
   60DOPE   H8X 7710   0.666   5.729   3.812 -0.6904  0.5132  2.0430
   60DOPE   H8Y 7711   0.552   5.688   3.689  4.2315 -0.8119  0.4565
   60DOPE   C39 7712   0.483   5.649   3.890  0.7466  0.5948 -0.1388
   60DOPE   H9X 7713   0.374   5.661   3.881  0.4030 -1.0419  1.3933
   60DOPE  C310 7714   0.539   5.557   3.977  0.0291 -0.1612  0.2610
   60DOPE  H10X 7715   0.480   5.500   4.050  1.7625 -1.6894  0.5154
   60DOPE  C311 7716   0.688   5.537   3.996 -0.3746  0.9437 -0.1925
   60DOPE  H11X 7717   0.755   5.587   3.922  0.5246 -0.7904 -0.6099
   60DOPE  H11Y 7718   0.725   5.560   4.098 -0.7161  0.9408 -0.0703
   60DOPE  C312 7719   0.727   5.387   3.985 -0.5954 -0.0021 -1.0014
   60DOPE  H12X 7720   0.837   5.374   3.977 -0.4369 -0.0506  0.8681
   60DOPE  H12Y 7721   0.693   5.352   3.885 -0.5246  0.2451 -1.1142
   60DOPE  C313 7722   0.663   5.296   4.092 -0.3454 -0.1365 -0.4572
   60DOPE  H13X 7723   0.700   5.313   4.196  0.2099 -1.2987 -0.4425
   60DOPE  H13Y 7724   0.555   5.313   4.109 -0.4965  0.5153 -1.8976
   60DOPE  C314 7725   0.687   5.152   4.069  0.2380 -0.6662 -0.4951
   60DOPE  H14X 7726   0.710   5.117   4.172 -0.3094  1.7971  0.5438
   60DOPE  H14Y 7727   0.768   5.111   4.006  0.3123 -2.0795  0.4683
   60DOPE  C315 7728   0.554   5.081   4.016  0.1388  0.1965  0.5248
   60DOPE  H15X 7729   0.467   5.082   4.085  0.6614  2.0366  1.2091
   60DOPE  H15Y 7730   0.590   4.976   4.007 -0.7755 -0.0479 -0.7178
   60DOPE  C316 7731   0.496   5.129   3.883  0.6060 -0.6068  0.3293
   60DOPE  H16X 7732   0.575   5.125   3.805  1.4077  2.0858  0.9166
   60DOPE  H16Y 7733   0.471   5.236   3.898 -0.4710 -1.0904  2.4826
   60DOPE  C317 7734   0.360   5.062   3.844 -0.4262  0.0712  0.4284
   60DOPE  H17X 7735   0.329   4.980   3.913  0.7427 -0.3567  0.4763
   60DOPE  H17Y 7736   0.286   5.144   3.841  0.2927  0.7484  0.7002
   60DOPE  C318 7737   0.381   4.999   3.701  0.1482  0.0070  0.9666
   60DOPE  H18X 7738   0.285   4.980   3.648  1.7175 -1.7501 -1.5083
   60DOPE  H18Y 7739   0.443   5.067   3.638 -1.1150 -1.2522 -1.8351
   60DOPE  H18Z 7740   0.427   4.898   3.705 -3.5476 -2.1549 -2.6246
   6123SM     N 7741   3.300   3.177   7.405  0.2490  0.6454  0.9056
   6123SM   C15 7742   3.247   3.294   7.479  0.6430  0.0672 -0.4590
   6123SM  H15A 7743   3.150   3.323   7.443  1.0856 -0.4721 -2.1915
   6123SM  H15B 7744   3.307   3.383   7.469  0.7632  0.3427  2.1027
   6123SM  H15C 7745   3.235   3.268   7.583 -0.4404  3.2997  0.3102
   6123SM   C14 7746   3.425   3.142   7.474 -0.2827  0.2290  0.1175
   6123SM  H14A 7747   3.404   3.132   7.579 -2.5385 -0.7649 -0.3717
   6123SM  H14B 7748   3.508   3.210   7.457  1.0041 -1.3727 -0.4012
   6123SM  H14C 7749   3.458   3.045   7.439  0.5590  0.8904 -1.0372
   6123SM   C13 7750   3.209   3.067   7.424  0.0226  0.1572  0.2530
   6123SM  H13A 7751   3.117   3.085   7.370 -0.2013  2.2519  1.2164
   6123SM  H13B 7752   3.177   3.062   7.527  1.4317 -0.9349  0.6660
   6123SM  H13C 7753   3.244   2.968   7.400  0.4881  0.3221  0.2394
   6123SM   C12 7754   3.313   3.213   7.257 -0.4310 -0.0286  0.1193
   6123SM  H12A 7755   3.214   3.246   7.228 -0.6277 -0.2858  0.4887
   6123SM  H12B 7756   3.339   3.129   7.195  2.5624  0.2038  0.9027
   6123SM   C11 7757   3.421   3.320   7.232 -0.1530 -0.4983  0.1365
   6123SM  H11A 7758   3.458   3.297   7.130  3.1823  3.1013  0.2802
   6123SM  H11B 7759   3.508   3.307   7.300 -0.7592 -0.0416  1.0319
   6123SM     P 7760   3.436   3.578   7.167 -0.1131 -0.1350  0.1302
   6123SM   O13 7761   3.340   3.687   7.175 -0.2474 -0.1270 -0.0991
   6123SM   O14 7762   3.572   3.599   7.221 -0.9874 -0.1894  0.1393
   6123SM   O11 7763   3.453   3.541   7.019 -0.2555  0.0590  0.2107
   6123SM   O12 7764   3.370   3.451   7.234 -0.6980 -0.3055 -0.0977
   6123SM   C1S 7765   3.345   3.538   6.934  0.3851 -0.1599  0.6436
   6123SM   H1S 7766   3.302   3.636   6.901 -0.6972 -0.4569  1.1078
   6123SM   H1T 7767   3.265   3.470   6.972  0.0952 -0.6144 -0.7426
   6123SM    NF 7768   3.292   3.453   6.700  0.2138 -0.5744  0.2327
   6123SM   HNF 7769   3.275   3.360   6.669  0.1967 -0.1689 -1.0293
   6123SM   C2S 7770   3.393   3.474   6.799 -0.5096  0.9080  0.2188
   6123SM   H2S 7771   3.464   3.544   6.748  0.8803 -0.6129 -0.0357
   6123SM   C3S 7772   3.485   3.345   6.826  0.6146  0.1123  0.1353
   6123SM   H3S 7773   3.425   3.268   6.878  0.9086 -0.1404  0.0956
   6123SM    O3 7774   3.607   3.368   6.898  0.3557 -0.6884 -0.2290
   6123SM   HO3 7775   3.573   3.421   6.971 -0.0989 -0.8727 -0.3054
   6123SM   C4S 7776   3.537   3.290   6.696  0.4957 -0.0974 -0.3146
   6123SM   H4S 7777   3.606   3.361   6.648 -0.3546 -0.3297 -1.9582
   6123SM   C5S 7778   3.502   3.172   6.641  0.3526 -1.4386 -1.0241
   6123SM   H5S 7779   3.427   3.116   6.698  1.4522  0.1060  2.1243
   6123SM   C6S 7780   3.549   3.124   6.508 -0.3249 -0.7682 -0.0294
   6123SM   H6S 7781   3.538   3.014   6.496 -1.2915 -0.7551  0.6155
   6123SM   H6T 7782   3.653   3.161   6.490 -0.4360  0.2901  1.2866
   6123SM   C7S 7783   3.459   3.188   6.395 -0.0885  0.0544  0.1894
   6123SM   H7S 7784   3.488   3.295   6.382  0.0383 -0.0141 -0.1017
   6123SM   H7T 7785   3.352   3.177   6.423 -0.6141  0.6305 -1.4744
   6123SM   C8S 7786   3.506   3.114   6.268 -0.9558  0.1224  0.5633
   6123SM   H8S 7787   3.496   3.007   6.296  3.7059 -0.4337  0.7827
   6123SM   H8T 7788   3.615   3.128   6.253 -1.2465  1.4318 -0.5229
   6123SM   C9S 7789   3.427   3.141   6.135  0.5786 -0.2988 -0.3755
   6123SM   H9S 7790   3.434   3.245   6.094  0.7248 -0.6600 -1.3058
   6123SM   H9T 7791   3.321   3.115   6.153  1.2892 -1.4952  2.6686
   6123SM  C10S 7792   3.478   3.055   6.018 -0.0296 -0.1978 -0.4391
   6123SM  H10S 7793   3.463   2.949   6.047  2.0464 -0.4257 -0.0480
   6123SM  H10T 7794   3.586   3.070   5.995 -0.2057  0.1692 -1.0374
   6123SM  C11S 7795   3.403   3.082   5.891 -0.5284  0.4959  0.1765
   6123SM  H11S 7796   3.415   3.186   5.854  0.9213  0.2458 -0.0941
   6123SM  H11T 7797   3.292   3.073   5.897 -0.5185  0.0345 -0.3051
   6123SM  C12S 7798   3.459   2.983   5.786 -0.1861  0.4166 -0.0678
   6123SM  H12S 7799   3.438   2.886   5.835 -1.3805  0.8754  0.3631
   6123SM  H12T 7800   3.569   2.995   5.769 -0.0345 -1.9986 -1.2343
   6123SM  C13S 7801   3.390   2.989   5.652 -0.0334 -0.0074 -0.3656
   6123SM  H13S 7802   3.279   2.985   5.659  0.0504 -1.7476  0.5963
   6123SM  H13T 7803   3.420   2.902   5.589  1.5017  0.5840 -0.4876
   6123SM  C14S 7804   3.417   3.116   5.579  0.6177  0.1137 -0.2783
   6123SM  H14S 7805   3.528   3.119   5.572  1.0612 -0.1730  3.8252
   6123SM  H14T 7806   3.376   3.193   5.648  1.1064  0.1502 -0.0267
   6123SM  C15S 7807   3.335   3.147   5.450 -0.4808  0.2978 -0.1938
   6123SM  H15S 7808   3.374   3.246   5.416  1.4416 -0.4088 -0.2160
   6123SM  H15T 7809   3.229   3.158   5.480 -0.0755  1.2607  0.9638
   6123SM  C16S 7810   3.360   3.046   5.342 -0.2945 -0.0524 -0.6480
   6123SM  H16S 7811   3.325   2.950   5.384  1.3060 -0.1287  0.6417
   6123SM  H16T 7812   3.470   3.033   5.330 -0.2063 -1.3071  1.0830
   6123SM  C17S 7813   3.299   3.074   5.210  0.7135 -0.5057 -0.4772
   6123SM  H17S 7814   3.356   3.161   5.171 -1.2846  0.8255 -0.5776
   6123SM  H17T 7815   3.193   3.104   5.221  0.8211 -0.4178  0.3838
   6123SM  C18S 7816   3.308   2.958   5.109  0.5987 -0.2103  0.2017
   6123SM  H18S 7817   3.412   2.919   5.104  1.1845  1.1119  1.3421
   6123SM  H18T 7818   3.287   2.995   5.007  1.0445 -0.9458 -0.1663
   6123SM  H18U 7819   3.238   2.879   5.145  1.6414 -0.7356  1.1335
   6123SM   C1F 7820   3.216   3.549   6.651  0.1854  0.3366 -0.0595
   6123SM    OF 7821   3.228   3.665   6.686 -0.1225  0.1237 -0.1005
   6123SM   C2F 7822   3.112   3.503   6.551  0.1839 -0.4896 -0.0530
   6123SM   H2F 7823   3.042   3.589   6.536  1.4223  0.3651 -1.1392
   6123SM   H2G 7824   3.054   3.415   6.585  3.1707 -2.0160  1.3742
   6123SM   C3F 7825   3.173   3.472   6.416 -0.5186 -0.3136 -0.2186
   6123SM   H3F 7826   3.099   3.441   6.340 -0.9093 -0.2879  0.1478
   6123SM   H3G 7827   3.232   3.379   6.433 -1.3338 -0.7783  0.1192
   6123SM   C4F 7828   3.260   3.571   6.339 -0.0817  0.0122 -0.1091
   6123SM   H4F 7829   3.358   3.607   6.376 -0.7635  1.5036  0.3321
   6123SM   H4G 7830   3.189   3.655   6.321 -3.2426 -2.6708 -1.1845
   6123SM   C5F 7831   3.287   3.517   6.196  0.3373  0.0261 -0.1309
   6123SM   H5F 7832   3.201   3.482   6.136  1.7268  0.4982 -2.5258
   6123SM   H5G 7833   3.349   3.427   6.213  0.1635 -0.2661 -1.0266
   6123SM   C6F 7834   3.366   3.612   6.100  0.1351 -0.3574  0.1039
   6123SM   H6F 7835   3.417   3.558   6.017  0.9298  1.0101 -0.3366
   6123SM   H6G 7836   3.449   3.662   6.156 -2.3546  2.3557  1.6886
   6123SM   C7F 7837   3.287   3.724   6.035 -0.0783  0.3483 -0.1931
   6123SM   H7F 7838   3.353   3.805   6.000 -0.2344  0.1327 -0.9936
   6123SM   H7G 7839   3.212   3.767   6.105 -2.2554  0.8222 -2.6540
   6123SM   C8F 7840   3.198   3.661   5.920  0.6256 -0.1592  0.0268
   6123SM   H8F 7841   3.100   3.712   5.908  0.2392 -0.5758  1.2939
   6123SM   H8G 7842   3.175   3.553   5.928  0.7385 -0.2128 -0.3523
   6123SM   C9F 7843   3.269   3.671   5.784  0.3829 -0.4869  0.4650
   6123SM   H9F 7844   3.357   3.604   5.778  1.0815  0.3923  0.8290
   6123SM   H9G 7845   3.287   3.779   5.771 -0.2703 -0.4731 -0.4087
   6123SM  C10F 7846   3.181   3.624   5.669  0.0474 -0.3345  0.3658
   6123SM  H10F 7847   3.105   3.703   5.650  0.0118 -0.3969  0.2539
   6123SM  H10G 7848   3.133   3.532   5.710 -1.2837  0.7726  1.4012
   6123SM  C11F 7849   3.256   3.586   5.545  0.5852  0.1455  0.5800
   6123SM  H11F 7850   3.343   3.521   5.568  0.1208 -0.8065 -0.2850
   6123SM  H11G 7851   3.292   3.683   5.505 -2.2941  1.0551  0.0004
   6123SM  C12F 7852   3.160   3.530   5.438  0.1177 -0.1854 -0.3099
   6123SM  H12F 7853   3.077   3.604   5.427  0.6837  0.7293  1.3000
   6123SM  H12G 7854   3.112   3.435   5.467 -0.1677  0.3649  1.1033
   6123SM  C13F 7855   3.241   3.528   5.306  0.0285 -0.2033 -0.0655
   6123SM  H13F 7856   3.342   3.485   5.322  1.3077  3.2830  2.2615
   6123SM  H13G 7857   3.259   3.631   5.271 -0.3524 -0.6470 -1.6753
   6123SM  C14F 7858   3.174   3.448   5.198  0.4795  0.2197  0.0672
   6123SM  H14F 7859   3.067   3.473   5.179  0.6540 -0.2559 -1.6440
   6123SM  H14G 7860   3.169   3.339   5.220 -1.4709  0.2958  0.2247
   6123SM  C15F 7861   3.242   3.466   5.059  0.1046  0.4389 -0.2686
   6123SM  H15F 7862   3.339   3.414   5.058 -0.0012  0.1808  1.1616
   6123SM  H15G 7863   3.260   3.575   5.047 -1.7904  0.9235  0.7671
   6123SM  C16F 7864   3.143   3.423   4.943 -0.0611  0.2228  0.0086
   6123SM  H16F 7865   3.192   3.446   4.846  0.4834  1.4897  0.5552
   6123SM  H16G 7866   3.051   3.485   4.950 -0.7704 -0.8475  0.3909
   6123SM  C17F 7867   3.102   3.275   4.950 -0.2547  0.6475  0.0164
   6123SM  H17F 7868   3.041   3.263   5.042 -0.8973  1.9579 -0.1981
   6123SM  H17G 7869   3.197   3.218   4.954 -0.9620 -0.5714 -0.1907
   6123SM  C18F 7870   3.019   3.229   4.831  0.3360 -0.2947  0.1415
   6123SM  H18F 7871   3.094   3.240   4.750  0.0439 -0.3627 -0.1406
   6123SM  H18G 7872   2.924   3.286   4.815 -1.2691 -2.6034  0.9335
   6123SM  C19F 7873   2.990   3.081   4.832  0.0086  0.2831 -0.9086
   6123SM  H19F 7874   2.933   3.050   4.922  0.8272 -0.9087 -0.7643
   6123SM  H19G 7875   3.082   3.019   4.837 -0.1643  0.1269  1.2768
   6123SM  C20F 7876   2.915   3.031   4.712  0.2103  1.1606  0.0375
   6123SM  H20F 7877   2.941   2.923   4.701  0.8694  1.4652 -1.8416
   6123SM  H20G 7878   2.953   3.073   4.616 -0.8463 -1.0560 -1.4304
   6123SM  C21F 7879   2.765   3.044   4.707 -0.1922 -0.9601 -0.6465
   6123SM  H21F 7880   2.739   3.152   4.702  1.0063 -0.6971 -1.3325
   6123SM  H21G 7881   2.719   2.997   4.797 -0.5870 -1.1276 -0.9305
   6123SM  C22F 7882   2.701   2.983   4.582 -0.3588 -0.3293 -0.4055
   6123SM  H22F 7883   2.704   2.874   4.602  0.9161 -0.2292  0.0609
   6123SM  H22G 7884   2.765   3.012   4.496  0.6679  1.2521  0.8215
   6123SM  C23F 7885   2.561   3.037   4.543 -0.0026 -0.0738 -0.0257
   6123SM  H23F 7886   2.479   3.014   4.614  0.6044 -1.0389  0.3726
   6123SM  H23G 7887   2.541   2.980   4.450 -0.2505 -1.0160  0.5902
   6123SM  H23H 7888   2.569   3.145   4.517  0.8118 -0.5208 -1.7744
   6223SM     N 7889   2.621   2.943   7.142 -0.0917  0.4091  0.2170
   6223SM   C15 7890   2.526   2.981   7.251  0.3241  0.5291 -0.5751
   6223SM  H15A 7891   2.533   2.910   7.331  0.8717 -1.3318 -2.2124
   6223SM  H15B 7892   2.428   2.973   7.205 -0.0903  1.3082  0.1413
   6223SM  H15C 7893   2.548   3.083   7.280  2.7780 -0.6891  2.3029
   6223SM   C14 7894   2.588   2.804   7.088 -0.2344 -0.0825  0.3654
   6223SM  H14A 7895   2.492   2.804   7.039 -0.0951 -3.4935 -0.1828
   6223SM  H14B 7896   2.603   2.717   7.151  0.0543 -1.0005 -0.9175
   6223SM  H14C 7897   2.658   2.779   7.010 -0.7057 -1.3329  0.3158
   6223SM   C13 7898   2.610   3.049   7.035  0.1436 -0.2863 -0.9405
   6223SM  H13A 7899   2.509   3.049   6.997 -0.0231 -0.5992 -0.4936
   6223SM  H13B 7900   2.680   3.026   6.956 -0.4582  2.2133 -2.3490
   6223SM  H13C 7901   2.623   3.149   7.074 -0.7744 -0.3910 -0.3484
   6223SM   C12 7902   2.759   2.943   7.204  0.0856 -0.8012  0.0873
   6223SM  H12A 7903   2.760   2.882   7.293  2.6917  0.6532  1.1714
   6223SM  H12B 7904   2.781   3.039   7.249 -1.4578 -0.3330 -0.0974
   6223SM   C11 7905   2.879   2.919   7.106 -0.5681  0.7867 -0.9554
   6223SM  H11A 7906   2.877   2.812   7.074 -0.8748 -0.3513  2.4809
   6223SM  H11B 7907   2.969   2.926   7.172 -1.0506  0.0049 -0.1873
   6223SM     P 7908   3.005   3.112   6.987 -0.1034 -0.1472 -0.1132
   6223SM   O13 7909   2.966   3.190   6.874 -0.2390 -0.6093 -0.0452
   6223SM   O14 7910   3.019   3.174   7.124  0.5740 -0.6226 -0.0764
   6223SM   O11 7911   3.123   3.013   6.961  0.5723  0.5828  0.4114
   6223SM   O12 7912   2.892   3.001   6.996 -0.1770 -0.1020  0.2334
   6223SM   C1S 7913   3.103   2.909   6.857 -0.4281 -0.3479  0.2786
   6223SM   H1S 7914   3.045   2.963   6.779 -0.5700 -0.2774  0.4321
   6223SM   H1T 7915   3.042   2.822   6.887  1.2057 -1.6140  0.0804
   6223SM    NF 7916   3.222   2.780   6.690 -0.0460 -0.9406 -0.0686
   6223SM   HNF 7917   3.248   2.684   6.698 -0.5934 -1.1879 -1.1439
   6223SM   C2S 7918   3.240   2.869   6.799  0.0616 -0.0833  0.1925
   6223SM   H2S 7919   3.287   2.961   6.757  0.8529 -0.9921 -0.9855
   6223SM   C3S 7920   3.338   2.818   6.908  0.7516  1.0257  0.7867
   6223SM   H3S 7921   3.299   2.730   6.962  2.8507 -1.0782 -0.9472
   6223SM    O3 7922   3.365   2.916   7.004  0.3269  0.1422  0.1412
   6223SM   HO3 7923   3.284   2.968   7.000 -0.1993 -0.4784  1.9015
   6223SM   C4S 7924   3.462   2.771   6.836  0.7439  0.6027  0.5330
   6223SM   H4S 7925   3.454   2.666   6.804 -0.0586  1.1273 -1.0602
   6223SM   C5S 7926   3.573   2.842   6.814 -0.3018  0.2851 -0.8751
   6223SM   H5S 7927   3.573   2.947   6.848  2.7072  0.2662 -0.4661
   6223SM   C6S 7928   3.696   2.787   6.749  0.3182  0.0344  0.0832
   6223SM   H6S 7929   3.775   2.749   6.817 -0.2074  0.2599  0.8399
   6223SM   H6T 7930   3.740   2.880   6.707  0.0388  2.4310  4.4582
   6223SM   C7S 7931   3.673   2.687   6.637  0.2311 -0.1543  0.1837
   6223SM   H7S 7932   3.613   2.597   6.662  1.0088 -0.3061  1.5847
   6223SM   H7T 7933   3.769   2.645   6.602  0.6562  0.5034  0.5378
   6223SM   C8S 7934   3.638   2.750   6.499 -0.1514  0.6802  0.6758
   6223SM   H8S 7935   3.724   2.810   6.461  1.6508 -1.9201  0.3642
   6223SM   H8T 7936   3.542   2.804   6.514 -0.4232  0.4592 -0.2219
   6223SM   C9S 7937   3.622   2.639   6.391 -0.1931  0.3296  0.3357
   6223SM   H9S 7938   3.573   2.542   6.414  1.2997 -0.4874  0.2094
   6223SM   H9T 7939   3.715   2.594   6.350  0.4574  0.2518  1.8390
   6223SM  C10S 7940   3.551   2.696   6.262 -0.1918  0.3059 -0.2552
   6223SM  H10S 7941   3.577   2.804   6.262  2.3207 -0.2148  1.4673
   6223SM  H10T 7942   3.440   2.697   6.257 -0.1744  0.7692 -0.6063
   6223SM  C11S 7943   3.590   2.629   6.128 -0.4637 -0.2856 -0.5467
   6223SM  H11S 7944   3.700   2.637   6.117 -0.5089  1.2417 -0.1285
   6223SM  H11T 7945   3.553   2.695   6.046  1.6455  0.9374 -0.5899
   6223SM  C12S 7946   3.540   2.491   6.107  0.0096  0.5045 -0.5764
   6223SM  H12S 7947   3.441   2.479   6.158 -0.5447  0.1788 -1.7054
   6223SM  H12T 7948   3.609   2.415   6.149 -1.9498 -0.5370  0.9947
   6223SM  C13S 7949   3.521   2.461   5.956  0.7177  0.3448 -0.3575
   6223SM  H13S 7950   3.623   2.447   5.915  0.8892 -2.1417  0.7588
   6223SM  H13T 7951   3.474   2.548   5.904  0.1054 -0.9332 -2.0369
   6223SM  C14S 7952   3.440   2.333   5.928 -0.4034 -0.1646 -0.1498
   6223SM  H14S 7953   3.336   2.360   5.955 -0.4659  0.0590 -0.5935
   6223SM  H14T 7954   3.474   2.253   5.996  0.0644 -0.2359 -0.4679
   6223SM  C15S 7955   3.427   2.299   5.780 -0.1907  0.8833 -0.1824
   6223SM  H15S 7956   3.406   2.190   5.775 -3.0262  1.3663 -0.7532
   6223SM  H15T 7957   3.522   2.325   5.729 -1.5297  1.9903 -2.2875
   6223SM  C16S 7958   3.316   2.365   5.699 -0.1527 -0.0522  0.4391
   6223SM  H16S 7959   3.334   2.475   5.706 -0.4439 -0.0431  1.0551
   6223SM  H16T 7960   3.217   2.344   5.744 -1.0748 -0.6995 -1.7744
   6223SM  C17S 7961   3.283   2.305   5.559 -0.2127 -0.7439 -0.2214
   6223SM  H17S 7962   3.243   2.203   5.574  0.1897 -0.8955 -0.1461
   6223SM  H17T 7963   3.378   2.301   5.501  1.2082  0.3225  1.9171
   6223SM  C18S 7964   3.190   2.385   5.479 -0.6448  0.0350  0.7174
   6223SM  H18S 7965   3.187   2.347   5.375  2.1849 -1.0982  0.9687
   6223SM  H18T 7966   3.217   2.492   5.488  3.0441 -0.5482 -1.4414
   6223SM  H18U 7967   3.089   2.384   5.526 -0.7414  1.9251  0.6228
   6223SM   C1F 7968   3.157   2.824   6.581 -0.8005 -0.3259  0.0872
   6223SM    OF 7969   3.116   2.940   6.574  0.0122 -0.2030  0.3447
   6223SM   C2F 7970   3.162   2.727   6.462  0.5622  0.1231 -0.1758
   6223SM   H2F 7971   3.108   2.633   6.484  0.8328 -0.0609 -0.2832
   6223SM   H2G 7972   3.270   2.711   6.439  0.4147  1.0832 -1.6547
   6223SM   C3F 7973   3.094   2.771   6.332 -0.0314 -0.9507 -0.9836
   6223SM   H3F 7974   3.113   2.879   6.310  2.8865 -1.4518 -1.2347
   6223SM   H3G 7975   2.983   2.770   6.338 -0.1877  1.2748 -2.3642
   6223SM   C4F 7976   3.126   2.683   6.212  0.1183  0.3732  0.2504
   6223SM   H4F 7977   3.040   2.615   6.192 -0.6165  1.8862 -2.2251
   6223SM   H4G 7978   3.210   2.615   6.238  0.6858 -0.3635 -3.0307
   6223SM   C5F 7979   3.185   2.758   6.095  0.6078  0.1623  0.3933
   6223SM   H5F 7980   3.292   2.777   6.118  0.8791  2.2088 -2.1457
   6223SM   H5G 7981   3.141   2.860   6.095  1.4633  0.5402  0.0732
   6223SM   C6F 7982   3.164   2.709   5.946  0.1151 -0.2091  0.2997
   6223SM   H6F 7983   3.209   2.607   5.948  1.2174  0.1492 -2.2310
   6223SM   H6G 7984   3.211   2.772   5.868  0.2921 -0.9360 -0.1932
   6223SM   C7F 7985   3.016   2.705   5.907 -0.1391 -0.1043 -0.2000
   6223SM   H7F 7986   2.966   2.797   5.945 -0.0115  0.0235 -0.3407
   6223SM   H7G 7987   2.968   2.620   5.959 -0.3979  1.2580  1.9514
   6223SM   C8F 7988   3.008   2.693   5.758  0.0009 -0.8135 -0.2318
   6223SM   H8F 7989   3.056   2.596   5.731  0.5131 -0.6156 -0.0463
   6223SM   H8G 7990   3.069   2.771   5.708 -0.8998  0.9684  1.3608
   6223SM   C9F 7991   2.867   2.697   5.706 -0.0079  0.1449 -0.0927
   6223SM   H9F 7992   2.811   2.790   5.729  0.1424 -0.0956  1.3644
   6223SM   H9G 7993   2.814   2.605   5.738  2.9006 -1.9999 -0.9948
   6223SM  C10F 7994   2.872   2.669   5.553 -0.1654 -0.1986 -0.2771
   6223SM  H10F 7995   2.767   2.684   5.520  0.1603 -0.4967 -1.4999
   6223SM  H10G 7996   2.897   2.563   5.531 -1.4121 -0.4861 -0.3543
   6223SM  C11F 7997   2.966   2.761   5.473  0.0324 -0.0544  0.3796
   6223SM  H11F 7998   3.066   2.712   5.470 -1.1154 -2.5356  0.0349
   6223SM  H11G 7999   2.979   2.862   5.517  1.7385  0.0561 -0.2871
   6223SM  C12F 8000   2.919   2.786   5.330 -1.0521  0.0457  0.2083
   6223SM  H12F 8001   2.989   2.862   5.287 -1.1901  1.0049  1.6007
   6223SM  H12G 8002   2.822   2.839   5.333 -0.9686  0.1532  1.4552
   6223SM  C13F 8003   2.903   2.664   5.244 -0.2687  0.4717  0.1035
   6223SM  H13F 8004   2.817   2.603   5.277  1.2237 -0.2775  2.8417
   6223SM  H13G 8005   3.000   2.612   5.246 -1.0122 -1.3348 -3.2535
   6223SM  C14F 8006   2.884   2.687   5.091  0.5197  1.1099  0.0273
   6223SM  H14F 8007   2.953   2.769   5.064  2.4932 -0.8651 -1.2341
   6223SM  H14G 8008   2.781   2.726   5.073 -0.0042 -0.9868 -2.0425
   6223SM  C15F 8009   2.905   2.563   5.004  0.6701 -0.5045 -0.0598
   6223SM  H15F 8010   2.844   2.472   5.024  0.4404 -0.4829 -0.6341
   6223SM  H15G 8011   3.011   2.534   5.020  0.3488 -1.1342  1.0317
   6223SM  C16F 8012   2.893   2.588   4.852  0.5668 -1.5762  0.5697
   6223SM  H16F 8013   2.974   2.653   4.811  0.5237 -2.5148 -1.1102
   6223SM  H16G 8014   2.792   2.631   4.834  0.6808 -2.0903 -1.5530
   6223SM  C17F 8015   2.920   2.450   4.782 -0.1204 -0.5494  0.4404
   6223SM  H17F 8016   2.827   2.390   4.797 -0.8523  0.6415  0.7719
   6223SM  H17G 8017   3.003   2.385   4.818 -0.0858 -1.1558 -0.6768
   6223SM  C18F 8018   2.950   2.485   4.633 -0.7140  0.0451  0.0790
   6223SM  H18F 8019   3.047   2.540   4.637 -0.3190 -0.7180  2.1854
   6223SM  H18G 8020   2.870   2.548   4.588 -0.2198 -0.2305 -1.2387
   6223SM  C19F 8021   2.972   2.367   4.538  1.1666  0.1846  0.1464
   6223SM  H19F 8022   2.946   2.279   4.600 -0.2329 -1.4443 -2.5471
   6223SM  H19G 8023   3.076   2.347   4.504  0.5670 -0.7239 -1.2532
   6223SM  C20F 8024   2.876   2.369   4.414  1.0148  0.6907  0.1622
   6223SM  H20F 8025   2.908   2.443   4.338 -0.3641 -1.4369 -2.7116
   6223SM  H20G 8026   2.774   2.394   4.450  0.1308 -0.3169 -1.4910
   6223SM  C21F 8027   2.867   2.231   4.343 -0.0384  0.5616 -0.3764
   6223SM  H21F 8028   2.973   2.205   4.322  1.0841  0.9788  3.8619
   6223SM  H21G 8029   2.805   2.237   4.251 -1.1958  3.1608  0.4731
   6223SM  C22F 8030   2.817   2.118   4.431  0.2896  0.5619  0.3234
   6223SM  H22F 8031   2.880   2.109   4.521  1.1784  1.1485 -0.2214
   6223SM  H22G 8032   2.831   2.021   4.379 -1.9716  0.8182 -0.8911
   6223SM  C23F 8033   2.673   2.131   4.465 -0.3051 -0.0919  0.1386
   6223SM  H23F 8034   2.631   2.177   4.373  0.0906 -0.0832 -0.0375
   6223SM  H23G 8035   2.657   2.205   4.547  0.4590  3.4297 -2.6163
   6223SM  H23H 8036   2.625   2.033   4.486 -0.8865  0.0352 -0.5175
   6323SM     N 8037   4.364   4.954   7.229  0.2242 -0.0161  0.0098
   6323SM   C15 8038   4.282   4.979   7.350 -0.2451  0.7013 -0.6153
   6323SM  H15A 8039   4.327   4.934   7.438 -0.2756  0.0360 -0.9321
   6323SM  H15B 8040   4.182   4.938   7.356  0.1355 -0.0858  1.9578
   6323SM  H15C 8041   4.271   5.083   7.378 -1.5187  0.0547  1.6051
   6323SM   C14 8042   4.492   5.032   7.239 -0.2298  0.5072  0.2728
   6323SM  H14A 8043   4.476   5.139   7.239 -1.5388  0.3704 -1.9102
   6323SM  H14B 8044   4.558   5.004   7.157  0.3295  1.8411  0.2405
   6323SM  H14C 8045   4.546   5.005   7.329 -0.0450  0.1136  0.0480
   6323SM   C13 8046   4.402   4.809   7.232 -0.1227  0.0431 -0.5595
   6323SM  H13A 8047   4.475   4.786   7.308  1.1194 -1.1623 -2.0570
   6323SM  H13B 8048   4.445   4.776   7.139 -0.8539 -0.4671 -0.7252
   6323SM  H13C 8049   4.316   4.746   7.249 -1.0353  1.6893  1.3139
   6323SM   C12 8050   4.281   4.991   7.110 -0.0134  0.6136 -0.1259
   6323SM  H12A 8051   4.248   5.093   7.111  1.4380  1.2288 -3.3032
   6323SM  H12B 8052   4.187   4.939   7.110 -0.9895  1.9929 -4.2019
   6323SM   C11 8053   4.344   4.975   6.965  0.0903 -0.0295  0.0140
   6323SM  H11A 8054   4.266   5.005   6.892 -1.9449  1.3507  2.5983
   6323SM  H11B 8055   4.369   4.867   6.955  1.4176  0.3046 -0.4996
   6323SM     P 8056   4.444   5.194   6.895  0.0484 -0.1260 -0.3794
   6323SM   O13 8057   4.354   5.279   6.983  0.2404 -0.5390  0.4360
   6323SM   O14 8058   4.580   5.251   6.862 -0.2224 -0.3693  0.4662
   6323SM   O11 8059   4.366   5.170   6.762  0.8099 -0.2135 -0.3450
   6323SM   O12 8060   4.455   5.057   6.962 -0.1790  0.5254  0.7327
   6323SM   C1S 8061   4.401   5.257   6.651  0.1113  0.3279 -0.6321
   6323SM   H1S 8062   4.507   5.238   6.622 -0.6593 -1.6964 -2.3266
   6323SM   H1T 8063   4.391   5.360   6.692 -0.7763 -0.0862  0.2314
   6323SM    NF 8064   4.388   5.274   6.408  0.1879 -0.6250  1.1899
   6323SM   HNF 8065   4.341   5.348   6.362  0.9850 -0.2236  0.9927
   6323SM   C2S 8066   4.320   5.219   6.522  0.2307  0.2733  0.1744
   6323SM   H2S 8067   4.308   5.109   6.516 -4.7394  0.4179  2.2532
   6323SM   C3S 8068   4.170   5.277   6.536  0.3327  0.0929  1.0466
   6323SM   H3S 8069   4.183   5.384   6.564  0.5124 -0.2607  2.3754
   6323SM    O3 8070   4.102   5.219   6.648  0.0007 -0.0578 -0.1150
   6323SM   HO3 8071   4.175   5.179   6.695 -1.4383 -0.0351  2.3072
   6323SM   C4S 8072   4.095   5.236   6.413  0.2198 -0.8123  0.1618
   6323SM   H4S 8073   4.121   5.135   6.379  3.3015 -0.1426  0.1521
   6323SM   C5S 8074   4.037   5.321   6.326  0.0068  0.3986 -0.0385
   6323SM   H5S 8075   4.051   5.428   6.343 -1.0603  0.1318  3.1211
   6323SM   C6S 8076   4.010   5.279   6.187 -0.6408 -0.2756  0.0703
   6323SM   H6S 8077   4.032   5.366   6.121  0.4636 -1.0737 -0.6316
   6323SM   H6T 8078   3.902   5.262   6.166 -0.5044  1.2321 -2.1685
   6323SM   C7S 8079   4.094   5.165   6.123  0.0752  0.1787  0.0513
   6323SM   H7S 8080   4.035   5.075   6.149  1.6180 -0.6295  0.8825
   6323SM   H7T 8081   4.201   5.164   6.151  0.1228  0.0176 -0.1397
   6323SM   C8S 8082   4.078   5.181   5.969 -0.0338  0.4951  0.1629
   6323SM   H8S 8083   4.138   5.271   5.942  1.5442  0.0746  2.0510
   6323SM   H8T 8084   3.972   5.210   5.949 -0.6149 -1.6171 -0.0852
   6323SM   C9S 8085   4.118   5.064   5.885 -0.1890  0.1725 -0.0870
   6323SM   H9S 8086   4.086   5.078   5.779  0.3712 -0.3332 -0.3273
   6323SM   H9T 8087   4.067   4.971   5.919  2.6018 -0.5869  2.4473
   6323SM  C10S 8088   4.268   5.026   5.896 -0.4432 -0.0245  0.0224
   6323SM  H10S 8089   4.281   4.920   5.863 -3.3317 -0.4474 -0.0266
   6323SM  H10T 8090   4.306   5.033   6.001  2.8812 -2.5240 -0.8229
   6323SM  C11S 8091   4.366   5.109   5.809 -0.3168  0.0353 -0.0358
   6323SM  H11S 8092   4.468   5.064   5.814  1.6993  3.5015 -3.3907
   6323SM  H11T 8093   4.374   5.215   5.841 -1.3898 -0.8102  3.4328
   6323SM  C12S 8094   4.332   5.110   5.661  0.4185 -0.3746  0.3938
   6323SM  H12S 8095   4.249   5.183   5.644  0.2948 -0.9024 -1.5642
   6323SM  H12T 8096   4.293   5.014   5.619  1.6337 -0.8926  0.4009
   6323SM  C13S 8097   4.447   5.165   5.575  0.0152 -0.2214 -0.0969
   6323SM  H13S 8098   4.534   5.098   5.562  1.5061  1.7386 -0.7946
   6323SM  H13T 8099   4.497   5.253   5.620 -0.5938  1.0951 -1.8904
   6323SM  C14S 8100   4.405   5.190   5.432  0.6938 -0.1430 -0.2528
   6323SM  H14S 8101   4.342   5.282   5.431  0.4227 -0.2622  1.6249
   6323SM  H14T 8102   4.336   5.113   5.392 -1.7112  2.3389 -1.2399
   6323SM  C15S 8103   4.525   5.202   5.342 -0.3671 -0.0469  0.2810
   6323SM  H15S 8104   4.564   5.103   5.312 -0.7672  0.7196 -3.1972
   6323SM  H15T 8105   4.611   5.261   5.380  1.2280 -1.9272 -0.2396
   6323SM  C16S 8106   4.484   5.244   5.203  0.2374 -0.3602 -0.3454
   6323SM  H16S 8107   4.415   5.331   5.200  1.9646  1.2483  2.1507
   6323SM  H16T 8108   4.432   5.159   5.153 -1.9620  0.8361 -0.2212
   6323SM  C17S 8109   4.610   5.276   5.121 -0.4365  0.0455  0.5198
   6323SM  H17S 8110   4.676   5.186   5.117 -1.7532 -0.9498 -2.5344
   6323SM  H17T 8111   4.662   5.359   5.173 -1.0352 -0.5039  2.0319
   6323SM  C18S 8112   4.577   5.312   4.979  0.0916  0.2140 -0.2714
   6323SM  H18S 8113   4.533   5.226   4.925 -0.6408  0.1209  0.4531
   6323SM  H18T 8114   4.671   5.339   4.926  0.3423  3.1398  1.4522
   6323SM  H18U 8115   4.510   5.400   4.988 -0.7741 -0.4586  0.0459
   6323SM   C1F 8116   4.502   5.228   6.351  0.3472  0.1499  0.5463
   6323SM    OF 8117   4.578   5.154   6.412  0.0397 -0.0961  0.0541
   6323SM   C2F 8118   4.539   5.283   6.222  0.7243 -0.3178 -0.3233
   6323SM   H2F 8119   4.554   5.391   6.240 -0.3857 -0.1606 -0.2542
   6323SM   H2G 8120   4.448   5.274   6.159 -0.1051 -0.2026  0.8248
   6323SM   C3F 8121   4.662   5.215   6.163  0.4976 -0.2290  0.3657
   6323SM   H3F 8122   4.649   5.105   6.164 -0.5572 -0.1087  1.2480
   6323SM   H3G 8123   4.746   5.245   6.229  0.3891 -0.3832  0.5758
   6323SM   C4F 8124   4.695   5.269   6.023  0.3150  0.1883  0.1185
   6323SM   H4F 8125   4.711   5.379   6.029  1.0224  0.0070  2.8705
   6323SM   H4G 8126   4.606   5.253   5.958 -0.4143  0.2742  1.0661
   6323SM   C5F 8127   4.809   5.206   5.947 -0.1284 -0.6492  0.1234
   6323SM   H5F 8128   4.786   5.098   5.945 -1.0781 -0.4403 -0.6713
   6323SM   H5G 8129   4.904   5.224   6.003  0.7177  0.5502 -1.6062
   6323SM   C6F 8130   4.829   5.254   5.805 -0.3443  0.3494  0.1181
   6323SM   H6F 8131   4.911   5.330   5.803 -1.5401  1.6778  0.1010
   6323SM   H6G 8132   4.733   5.293   5.766 -1.5491 -2.0442  0.5477
   6323SM   C7F 8133   4.871   5.132   5.713  0.0699 -0.2880 -0.5021
   6323SM   H7F 8134   4.778   5.076   5.692  0.7315 -1.1233 -1.2658
   6323SM   H7G 8135   4.942   5.067   5.769  0.6183  0.2378 -0.5768
   6323SM   C8F 8136   4.950   5.188   5.590 -0.1958 -0.0889  0.1034
   6323SM   H8F 8137   5.013   5.108   5.546 -0.1725 -0.3329  0.5784
   6323SM   H8G 8138   5.024   5.263   5.625 -0.8659  1.6449 -1.9769
   6323SM   C9F 8139   4.865   5.252   5.477 -0.2469 -0.0137  0.1831
   6323SM   H9F 8140   4.790   5.318   5.526  0.1788  0.3351  0.3691
   6323SM   H9G 8141   4.815   5.172   5.419 -0.5485 -0.4823  1.0634
   6323SM  C10F 8142   4.929   5.353   5.378 -0.0538  0.5381  0.3796
   6323SM  H10F 8143   4.851   5.377   5.303 -0.7067  0.4804  1.0196
   6323SM  H10G 8144   5.009   5.307   5.316 -1.6202  1.3142 -2.3921
   6323SM  C11F 8145   4.975   5.484   5.444 -0.4254 -0.2842 -0.2778
   6323SM  H11F 8146   5.028   5.460   5.539 -0.4724 -1.1476 -0.4552
   6323SM  H11G 8147   4.884   5.541   5.470  1.6059  2.3249  1.5740
   6323SM  C12F 8148   5.066   5.571   5.351  0.3256  0.6463  0.5180
   6323SM  H12F 8149   5.161   5.516   5.334  0.9848  1.3673  1.7441
   6323SM  H12G 8150   5.095   5.664   5.405 -1.0576  1.3647  0.0704
   6323SM  C13F 8151   5.000   5.606   5.217 -0.4885  0.5985  0.5438
   6323SM  H13F 8152   4.918   5.681   5.224 -1.6223 -0.5371 -0.0130
   6323SM  H13G 8153   4.954   5.513   5.178 -0.6081  1.7591 -2.3785
   6323SM  C14F 8154   5.089   5.650   5.095 -0.5832  0.0136  0.5071
   6323SM  H14F 8155   5.158   5.566   5.071  1.6594  1.8435  0.2620
   6323SM  H14G 8156   5.157   5.730   5.131  1.5320 -1.7986  0.7927
   6323SM  C15F 8157   5.022   5.686   4.964 -1.1283 -0.6116 -0.0972
   6323SM  H15F 8158   4.941   5.758   4.987  0.4573  1.4414 -0.6113
   6323SM  H15G 8159   4.979   5.593   4.921 -2.7099 -0.3948  0.9286
   6323SM  C16F 8160   5.115   5.758   4.862 -0.9129  0.4817  0.0762
   6323SM  H16F 8161   5.155   5.850   4.912 -0.0898 -0.5933  1.4824
   6323SM  H16G 8162   5.065   5.801   4.773  1.5148 -0.7842 -2.0208
   6323SM  C17F 8163   5.242   5.682   4.820  0.0173  0.1553 -0.0834
   6323SM  H17F 8164   5.196   5.594   4.770  0.5257 -0.3285  0.2861
   6323SM  H17G 8165   5.288   5.656   4.918 -1.5623 -1.3504  0.3155
   6323SM  C18F 8166   5.336   5.755   4.725  0.1862 -0.2274  0.2927
   6323SM  H18F 8167   5.390   5.830   4.787  2.0182 -0.3444 -1.0532
   6323SM  H18G 8168   5.280   5.818   4.652  0.6135 -0.0381  0.1252
   6323SM  C19F 8169   5.435   5.673   4.658 -0.6931 -0.1603  0.0567
   6323SM  H19F 8170   5.384   5.626   4.571  0.0480  1.8047 -1.5307
   6323SM  H19G 8171   5.473   5.595   4.727  0.1654  1.0739  1.0200
   6323SM  C20F 8172   5.559   5.751   4.595  0.1382 -0.5577 -0.5737
   6323SM  H20F 8173   5.627   5.781   4.677 -0.3966 -0.6075 -0.1060
   6323SM  H20G 8174   5.526   5.850   4.556  2.5791  1.3955  1.8575
   6323SM  C21F 8175   5.646   5.670   4.496  0.2202 -0.3742  0.0037
   6323SM  H21F 8176   5.592   5.668   4.399  1.1362 -0.3283 -0.5188
   6323SM  H21G 8177   5.671   5.573   4.544 -0.8473 -0.3472  0.6559
   6323SM  C22F 8178   5.784   5.731   4.464  0.6659  0.0666  0.0908
   6323SM  H22F 8179   5.842   5.716   4.558 -1.5643 -1.1768  1.3652
   6323SM  H22G 8180   5.774   5.839   4.443 -0.1390  0.3876  1.9759
   6323SM  C23F 8181   5.859   5.664   4.349  0.0900  0.2483  0.5141
   6323SM  H23F 8182   5.899   5.567   4.385 -0.5747  0.1200  0.9242
   6323SM  H23G 8183   5.944   5.725   4.311  0.2116  0.1980  0.7039
   6323SM  H23H 8184   5.791   5.650   4.262 -2.3111 -3.3021  2.7207
   6423SM     N 8185   5.645   4.946   6.960  0.5279 -0.4090  0.6978
   6423SM   C15 8186   5.586   5.032   7.059 -0.0342  0.8475 -0.9683
   6423SM  H15A 8187   5.493   5.068   7.019 -0.9203 -0.9584 -0.6520
   6423SM  H15B 8188   5.652   5.095   7.115 -2.8591  1.2601  2.2155
   6423SM  H15C 8189   5.551   4.964   7.135  0.1044  0.2942 -1.3902
   6423SM   C14 8190   5.692   5.039   6.851 -0.6242  0.3874 -0.0068
   6423SM  H14A 8191   5.755   4.982   6.785  1.4618  1.8234  0.6435
   6423SM  H14B 8192   5.758   5.113   6.892 -0.8534 -0.5790  2.2843
   6423SM  H14C 8193   5.602   5.080   6.808 -1.4771 -0.5539  0.8192
   6423SM   C13 8194   5.768   4.882   7.015 -0.4279  0.3496 -0.1447
   6423SM  H13A 8195   5.839   4.959   7.040  0.2824 -0.4732  0.4612
   6423SM  H13B 8196   5.803   4.804   6.949 -2.0244 -0.4781 -0.0533
   6423SM  H13C 8197   5.724   4.838   7.103 -1.2772  2.3307  0.4713
   6423SM   C12 8198   5.542   4.843   6.911  0.1256  0.8213  0.6889
   6423SM  H12A 8199   5.501   4.790   6.995 -1.4070  1.0871  0.1320
   6423SM  H12B 8200   5.599   4.766   6.861 -1.3267 -0.2860  0.6683
   6423SM   C11 8201   5.414   4.886   6.832 -0.0369  0.4196  0.1233
   6423SM  H11A 8202   5.356   4.795   6.807 -0.7982  0.9869 -0.2189
   6423SM  H11B 8203   5.453   4.919   6.733 -0.0827 -0.2859 -0.1299
   6423SM     P 8204   5.204   4.943   6.970  0.2516 -0.1903 -0.0400
   6423SM   O13 8205   5.238   4.883   7.093 -0.0328  0.1416  0.0720
   6423SM   O14 8206   5.121   5.060   6.983  0.3426  0.0430  0.8645
   6423SM   O11 8207   5.130   4.834   6.882 -0.0617 -0.5930 -0.3373
   6423SM   O12 8208   5.337   4.981   6.894 -0.3196  0.0260 -0.4539
   6423SM   C1S 8209   4.992   4.805   6.881  0.5285  0.0593 -0.7384
   6423SM   H1S 8210   4.936   4.900   6.869 -0.5829 -0.8216 -3.1550
   6423SM   H1T 8211   4.960   4.747   6.970 -2.7813 -0.1074 -1.8921
   6423SM    NF 8212   4.801   4.710   6.745 -0.5949  0.1505 -0.1672
   6423SM   HNF 8213   4.753   4.627   6.775  1.6435 -0.3147  2.5280
   6423SM   C2S 8214   4.948   4.722   6.760 -0.4919 -0.0309  0.2250
   6423SM   H2S 8215   4.975   4.767   6.663 -2.1970  1.5246  0.4047
   6423SM   C3S 8216   5.010   4.586   6.772  0.0759  0.3453  0.7553
   6423SM   H3S 8217   4.942   4.540   6.847  0.6327  0.0123  1.0605
   6423SM    O3 8218   5.135   4.573   6.842 -0.0346  0.2084 -0.5152
   6423SM   HO3 8219   5.155   4.665   6.860 -1.8769  0.7372 -0.9247
   6423SM   C4S 8220   5.006   4.502   6.648  0.3238 -0.2117 -0.6650
   6423SM   H4S 8221   4.940   4.415   6.655  0.6421 -0.4677 -0.8023
   6423SM   C5S 8222   5.088   4.508   6.539 -0.2508 -0.0037 -0.0745
   6423SM   H5S 8223   5.179   4.570   6.540 -0.6856  0.6914 -1.1503
   6423SM   C6S 8224   5.087   4.403   6.426 -0.3449  0.3198 -0.9394
   6423SM   H6S 8225   4.989   4.351   6.426 -1.1422  1.7290  0.3758
   6423SM   H6T 8226   5.177   4.338   6.428 -0.1028  0.6724 -0.2686
   6423SM   C7S 8227   5.095   4.473   6.291  0.3052  0.0568  0.0163
   6423SM   H7S 8228   5.194   4.509   6.258 -0.6225  0.6935 -2.2999
   6423SM   H7T 8229   5.034   4.566   6.292  2.0915  1.2738  1.0035
   6423SM   C8S 8230   5.036   4.380   6.177  0.2320 -0.5793  0.2525
   6423SM   H8S 8231   4.938   4.340   6.211  0.5229 -0.1413  1.6623
   6423SM   H8T 8232   5.094   4.287   6.165 -1.1972 -1.2748 -1.8137
   6423SM   C9S 8233   5.018   4.449   6.039 -0.6937  0.3081 -0.3151
   6423SM   H9S 8234   5.113   4.504   6.026 -0.8563  0.4721 -0.8538
   6423SM   H9T 8235   4.928   4.514   6.037 -1.0252 -0.0826  1.1283
   6423SM  C10S 8236   5.013   4.350   5.923 -0.3936  0.2124  0.2660
   6423SM  H10S 8237   4.929   4.279   5.934 -0.3683  0.2138  0.4736
   6423SM  H10T 8238   5.106   4.290   5.919 -2.1793 -2.6919 -0.4184
   6423SM  C11S 8239   5.008   4.411   5.787  0.4949 -0.2650 -0.0832
   6423SM  H11S 8240   5.069   4.503   5.793 -0.6322  0.4292  1.2667
   6423SM  H11T 8241   4.905   4.449   5.768  1.0449  1.7248  0.7282
   6423SM  C12S 8242   5.069   4.329   5.674 -0.6353 -0.1446 -0.2429
   6423SM  H12S 8243   5.025   4.227   5.680 -1.3840  0.2153  0.5068
   6423SM  H12T 8244   5.179   4.320   5.686 -0.4369 -0.6690 -2.0706
   6423SM  C13S 8245   5.029   4.389   5.538  0.2722  0.3557 -0.4981
   6423SM  H13S 8246   5.064   4.494   5.533 -0.2178  0.5591  0.1870
   6423SM  H13T 8247   4.920   4.368   5.532  0.3468 -0.1396 -0.1410
   6423SM  C14S 8248   5.099   4.324   5.413  0.0533  0.2400  0.6432
   6423SM  H14S 8249   5.066   4.219   5.403  0.5879  0.0760  0.5444
   6423SM  H14T 8250   5.206   4.317   5.442  0.0022 -1.0167  0.5787
   6423SM  C15S 8251   5.083   4.408   5.288  0.1895 -0.2022 -0.2776
   6423SM  H15S 8252   5.155   4.368   5.214  0.9752 -0.8630  0.7962
   6423SM  H15T 8253   5.105   4.516   5.308  0.3586 -0.2476 -0.2184
   6423SM  C16S 8254   4.939   4.398   5.231 -0.7359  0.3783 -0.1156
   6423SM  H16S 8255   4.858   4.399   5.307 -1.4238 -1.2609 -0.7594
   6423SM  H16T 8256   4.929   4.297   5.186 -2.2903  1.0925 -1.5024
   6423SM  C17S 8257   4.897   4.495   5.119 -0.2189  0.2012 -0.0558
   6423SM  H17S 8258   4.980   4.485   5.046 -2.4385  0.1321 -2.7563
   6423SM  H17T 8259   4.902   4.601   5.152 -0.2372  0.5756 -1.1975
   6423SM  C18S 8260   4.764   4.466   5.053  0.1757  0.3767  0.0005
   6423SM  H18S 8261   4.667   4.474   5.107 -1.0723  1.0368 -2.2254
   6423SM  H18T 8262   4.770   4.361   5.017  0.5863 -0.2949  1.9150
   6423SM  H18U 8263   4.747   4.532   4.965  2.1151  2.4335  1.0816
   6423SM   C1F 8264   4.728   4.804   6.692 -0.0014 -0.4187  0.4994
   6423SM    OF 8265   4.785   4.899   6.635  0.3998 -0.5895  0.0421
   6423SM   C2F 8266   4.581   4.807   6.690  0.0696  0.6942 -0.2292
   6423SM   H2F 8267   4.539   4.896   6.741 -2.0016  0.3264 -1.2068
   6423SM   H2G 8268   4.538   4.725   6.752  0.2199  1.4990  0.9702
   6423SM   C3F 8269   4.519   4.793   6.547  0.2041  0.2926  0.2808
   6423SM   H3F 8270   4.560   4.872   6.481 -0.1694  0.3060  0.0653
   6423SM   H3G 8271   4.410   4.809   6.561  0.1328  0.7412 -0.7218
   6423SM   C4F 8272   4.543   4.656   6.486  0.4789  0.1304 -0.0188
   6423SM   H4F 8273   4.464   4.638   6.410  0.5643 -0.1000 -0.0547
   6423SM   H4G 8274   4.536   4.566   6.551 -0.0262 -1.0630 -1.6784
   6423SM   C5F 8275   4.675   4.642   6.420 -0.5595 -0.7178  0.0393
   6423SM   H5F 8276   4.748   4.713   6.463 -1.6890  0.2357  0.4487
   6423SM   H5G 8277   4.660   4.672   6.314  1.9504  0.0600 -0.1624
   6423SM   C6F 8278   4.726   4.491   6.423  0.0037 -0.6624 -0.5411
   6423SM   H6F 8279   4.744   4.472   6.531  1.7515 -1.1604 -0.8924
   6423SM   H6G 8280   4.824   4.483   6.372  0.6584  1.2619  0.3287
   6423SM   C7F 8281   4.624   4.397   6.367 -0.2513 -0.3785  0.0484
   6423SM   H7F 8282   4.582   4.426   6.268 -1.7287 -1.3257  0.3592
   6423SM   H7G 8283   4.533   4.376   6.428 -0.0389 -1.8269 -0.1130
   6423SM   C8F 8284   4.683   4.255   6.355 -0.7836 -0.5114 -0.1085
   6423SM   H8F 8285   4.718   4.224   6.455  1.0104  2.2177  0.2269
   6423SM   H8G 8286   4.766   4.241   6.281 -1.3224 -2.6685 -0.3816
   6423SM   C9F 8287   4.575   4.148   6.309  0.0609  0.5451  0.7061
   6423SM   H9F 8288   4.522   4.189   6.221  0.8935 -0.8446 -0.4816
   6423SM   H9G 8289   4.505   4.126   6.392  2.2248 -0.1458  2.4407
   6423SM  C10F 8290   4.642   4.013   6.275 -0.5439 -0.4644 -0.6201
   6423SM  H10F 8291   4.682   3.976   6.372 -3.6469 -0.1226  0.9214
   6423SM  H10G 8292   4.723   4.044   6.206 -0.3255 -0.6951 -0.4688
   6423SM  C11F 8293   4.565   3.896   6.226  0.4297  0.4369  0.1528
   6423SM  H11F 8294   4.538   3.926   6.122 -0.9489 -1.6902 -0.1946
   6423SM  H11G 8295   4.468   3.872   6.274 -0.4790 -1.9312 -2.5285
   6423SM  C12F 8296   4.648   3.773   6.206 -0.3474  0.1744 -0.3208
   6423SM  H12F 8297   4.721   3.766   6.290  0.5501  2.3193 -0.8779
   6423SM  H12G 8298   4.719   3.793   6.123  1.1166  1.1335  1.1019
   6423SM  C13F 8299   4.567   3.641   6.192 -0.4570 -0.2095 -0.0838
   6423SM  H13F 8300   4.473   3.664   6.137  1.1978 -1.9012 -4.0274
   6423SM  H13G 8301   4.537   3.611   6.295 -2.1739  0.6073 -0.3187
   6423SM  C14F 8302   4.653   3.524   6.131  0.0205 -0.4742 -1.0155
   6423SM  H14F 8303   4.591   3.433   6.145  0.5577 -0.6246  0.5563
   6423SM  H14G 8304   4.745   3.518   6.194 -0.5326  1.8829  0.1421
   6423SM  C15F 8305   4.706   3.553   5.992  0.3835  0.2885 -0.2315
   6423SM  H15F 8306   4.772   3.642   5.984  1.7715 -0.6320  0.5958
   6423SM  H15G 8307   4.615   3.571   5.930  1.5219 -0.7554 -2.2969
   6423SM  C16F 8308   4.793   3.435   5.940 -0.3971  0.5796  0.2937
   6423SM  H16F 8309   4.731   3.346   5.915 -0.4003  1.1030 -1.7458
   6423SM  H16G 8310   4.857   3.413   6.028 -1.1609 -2.6281  0.1887
   6423SM  C17F 8311   4.866   3.459   5.814 -0.3090  0.3229 -0.0987
   6423SM  H17F 8312   4.941   3.540   5.829  0.9814 -1.1996  2.2595
   6423SM  H17G 8313   4.793   3.491   5.736 -1.0572 -1.5636 -0.2278
   6423SM  C18F 8314   4.935   3.339   5.750  0.0454  0.0513  0.7499
   6423SM  H18F 8315   4.859   3.264   5.720 -0.2160  0.1470  1.1644
   6423SM  H18G 8316   4.986   3.279   5.828  1.5653  0.8365  0.4031
   6423SM  C19F 8317   5.005   3.355   5.615 -0.3603  0.1640 -0.2191
   6423SM  H19F 8318   4.939   3.394   5.535 -2.1428 -1.5646  0.3517
   6423SM  H19G 8319   5.048   3.260   5.577  1.0773  0.8049 -0.2928
   6423SM  C20F 8320   5.130   3.447   5.609  0.4035 -0.5535 -0.3846
   6423SM  H20F 8321   5.190   3.418   5.697 -1.4214 -2.1836  0.4024
   6423SM  H20G 8322   5.103   3.554   5.622  0.2852 -0.7044  0.6704
   6423SM  C21F 8323   5.201   3.451   5.481  0.3482 -0.0624  0.7039
   6423SM  H21F 8324   5.151   3.525   5.414  0.7531 -0.9577 -0.6271
   6423SM  H21G 8325   5.203   3.356   5.424  1.0112  0.3366  0.0323
   6423SM  C22F 8326   5.351   3.484   5.506  0.7822 -0.1401  0.2665
   6423SM  H22F 8327   5.397   3.457   5.409  0.0164 -0.0389 -0.1254
   6423SM  H22G 8328   5.394   3.419   5.586  1.4607 -2.0567 -1.5617
   6423SM  C23F 8329   5.374   3.633   5.530  0.1164 -0.6609 -0.1523
   6423SM  H23F 8330   5.312   3.702   5.469  0.2455  1.6768  2.1765
   6423SM  H23G 8331   5.482   3.643   5.504 -0.1233  1.0709 -0.6617
   6423SM  H23H 8332   5.353   3.662   5.635  1.5163  0.3402 -0.1171
   6523SM     N 8333   6.742   4.993   7.529  0.1517 -0.1977  0.1188
   6523SM   C15 8334   6.805   4.884   7.605  1.0349  0.1874 -0.6882
   6523SM  H15A 8335   6.791   4.907   7.710 -1.5061 -1.7247 -0.4980
   6523SM  H15B 8336   6.912   4.884   7.591  1.2797 -0.6991  1.0175
   6523SM  H15C 8337   6.780   4.783   7.577  1.2531  0.3207 -1.3949
   6523SM   C14 8338   6.597   5.010   7.550 -0.1589  1.0420  0.3515
   6523SM  H14A 8339   6.569   5.077   7.471  0.9905 -0.0163 -1.0146
   6523SM  H14B 8340   6.573   5.041   7.651 -0.5185  0.2677  0.5131
   6523SM  H14C 8341   6.544   4.918   7.528  1.1410  0.7127 -1.6843
   6523SM   C13 8342   6.822   5.123   7.547  0.2437 -0.0120 -0.7527
   6523SM  H13A 8343   6.927   5.100   7.542 -0.0491 -1.5414 -0.3484
   6523SM  H13B 8344   6.792   5.173   7.638  0.1994  0.1569 -0.8593
   6523SM  H13C 8345   6.806   5.195   7.468 -0.9145  1.5776  0.8474
   6523SM   C12 8346   6.754   4.956   7.375 -0.9739 -0.3766 -1.0407
   6523SM  H12A 8347   6.724   4.853   7.365 -0.1353 -0.6723 -0.6186
   6523SM  H12B 8348   6.861   4.962   7.358 -0.0435  0.0007  3.6156
   6523SM   C11 8349   6.695   5.050   7.271  0.1941 -0.1508  0.3229
   6523SM  H11A 8350   6.725   5.013   7.171 -2.5825 -2.3867  0.1761
   6523SM  H11B 8351   6.750   5.145   7.284  1.0019 -0.5016 -0.4666
   6523SM     P 8352   6.467   4.956   7.204  0.0219  0.0258 -0.1995
   6523SM   O13 8353   6.506   4.824   7.254 -0.4340  0.0281 -0.9241
   6523SM   O14 8354   6.326   4.999   7.221  0.0938  0.7873 -0.2328
   6523SM   O11 8355   6.505   4.977   7.046 -0.2786 -0.1221 -0.2857
   6523SM   O12 8356   6.548   5.066   7.278  0.0710  0.0454  0.3012
   6523SM   C1S 8357   6.426   4.902   6.960  0.6207 -0.1355 -0.1337
   6523SM   H1S 8358   6.322   4.940   6.973  1.1980  1.2762  0.5461
   6523SM   H1T 8359   6.432   4.793   6.983 -1.2142 -0.1245  0.6166
   6523SM    NF 8360   6.375   4.835   6.729 -0.0237  0.4492 -0.6252
   6523SM   HNF 8361   6.417   4.756   6.684  0.9730  0.7533 -0.2569
   6523SM   C2S 8362   6.466   4.912   6.811 -0.0946  0.6122 -0.4549
   6523SM   H2S 8363   6.452   5.018   6.782  0.0283  0.6591 -0.3475
   6523SM   C3S 8364   6.616   4.871   6.788 -0.5206  0.2634 -0.5661
   6523SM   H3S 8365   6.617   4.763   6.817 -1.1082  0.2108 -0.7301
   6523SM    O3 8366   6.708   4.939   6.875 -0.9262  0.1995  0.1176
   6523SM   HO3 8367   6.658   4.967   6.952  1.3909  0.8023  1.5248
   6523SM   C4S 8368   6.648   4.868   6.643 -0.4600 -0.0607  0.5559
   6523SM   H4S 8369   6.614   4.775   6.593  0.5226 -0.6479  0.9437
   6523SM   C5S 8370   6.713   4.958   6.569 -0.4908  0.1793 -0.3530
   6523SM   H5S 8371   6.743   5.050   6.621 -3.0978  1.2170 -0.5180
   6523SM   C6S 8372   6.729   4.956   6.419  0.4495 -0.6933 -0.1782
   6523SM   H6S 8373   6.706   5.061   6.392  0.3400 -0.2902  1.4170
   6523SM   H6T 8374   6.657   4.890   6.367 -0.1740  0.8833 -1.3924
   6523SM   C7S 8375   6.871   4.931   6.375 -0.4431 -0.1139  0.2801
   6523SM   H7S 8376   6.911   4.839   6.423  2.1903  0.7835 -0.0144
   6523SM   H7T 8377   6.932   5.012   6.422  0.4491 -0.4177 -0.3411
   6523SM   C8S 8378   6.895   4.922   6.224  0.0904 -0.9322  0.1614
   6523SM   H8S 8379   6.861   5.015   6.175 -1.6593 -1.4217  0.3683
   6523SM   H8T 8380   6.817   4.853   6.184 -2.5470  1.9288  0.0099
   6523SM   C9S 8381   7.033   4.868   6.194 -0.3401  0.6888  0.5181
   6523SM   H9S 8382   7.050   4.778   6.256  0.8075  1.0034  0.6959
   6523SM   H9T 8383   7.101   4.947   6.234 -1.9624  2.7507 -0.5774
   6523SM  C10S 8384   7.054   4.850   6.040 -0.4840  0.4968 -0.2443
   6523SM  H10S 8385   7.034   4.948   5.992  0.4910  0.4248 -0.8169
   6523SM  H10T 8386   6.985   4.775   5.996  0.5124 -0.3297 -0.4231
   6523SM  C11S 8387   7.196   4.802   6.018 -1.3301  0.2246 -0.3179
   6523SM  H11S 8388   7.209   4.701   6.061 -1.1251 -0.7140 -2.4491
   6523SM  H11T 8389   7.262   4.872   6.074 -1.0155 -0.9388  0.8023
   6523SM  C12S 8390   7.247   4.801   5.872  0.3077  0.0247 -0.4462
   6523SM  H12S 8391   7.352   4.765   5.859 -0.3369 -1.1274 -3.3222
   6523SM  H12T 8392   7.262   4.903   5.831 -0.2001  1.3798  2.5104
   6523SM  C13S 8393   7.159   4.712   5.780  0.2239  0.2105 -0.4359
   6523SM  H13S 8394   7.067   4.772   5.762  0.2832 -0.1951 -2.2881
   6523SM  H13T 8395   7.127   4.624   5.839 -2.0997  0.8526 -0.6158
   6523SM  C14S 8396   7.216   4.698   5.638 -0.0570  0.2734 -0.5602
   6523SM  H14S 8397   7.301   4.628   5.649  0.6333  1.1394 -0.1910
   6523SM  H14T 8398   7.263   4.797   5.618 -0.0831  0.4453  0.1869
   6523SM  C15S 8399   7.117   4.652   5.532  0.0308  0.4168 -0.3135
   6523SM  H15S 8400   7.135   4.715   5.442 -0.0023  0.6269 -0.1733
   6523SM  H15T 8401   7.013   4.679   5.559 -0.8679  0.1910 -3.1975
   6523SM  C16S 8402   7.138   4.502   5.509  0.0211 -0.0486 -0.6469
   6523SM  H16S 8403   7.108   4.458   5.607 -0.5244 -0.0743 -0.8247
   6523SM  H16T 8404   7.247   4.480   5.502  0.4601  1.2037  1.3595
   6523SM  C17S 8405   7.071   4.442   5.383  0.0632 -0.9138 -0.1386
   6523SM  H17S 8406   6.975   4.495   5.365 -0.1173 -1.1146  0.2194
   6523SM  H17T 8407   7.038   4.336   5.390 -1.5744 -0.3378  1.9399
   6523SM  C18S 8408   7.173   4.457   5.273 -0.3864 -0.5234 -0.2799
   6523SM  H18S 8409   7.244   4.372   5.285  2.0402  1.1934 -1.5865
   6523SM  H18T 8410   7.220   4.557   5.285  0.0814 -0.6509 -1.0046
   6523SM  H18U 8411   7.124   4.456   5.174 -2.1288 -0.0930  0.5469
   6523SM   C1F 8412   6.243   4.860   6.705  0.0807  0.5854  0.3206
   6523SM    OF 8413   6.190   4.959   6.750 -0.1847  0.2942  0.1530
   6523SM   C2F 8414   6.178   4.767   6.608 -0.2444 -0.2492 -0.1221
   6523SM   H2F 8415   6.172   4.665   6.651  0.3729 -0.4022 -0.3953
   6523SM   H2G 8416   6.236   4.752   6.514  0.6194 -0.6336  0.4658
   6523SM   C3F 8417   6.033   4.809   6.573 -0.2393  0.6756  0.1019
   6523SM   H3F 8418   6.037   4.911   6.530  2.2762  0.7854  0.4417
   6523SM   H3G 8419   5.972   4.801   6.666 -0.7852  0.3502 -0.2780
   6523SM   C4F 8420   5.967   4.719   6.466  0.3353  0.5719  0.1853
   6523SM   H4F 8421   5.987   4.612   6.491  1.7626  0.5176 -1.0260
   6523SM   H4G 8422   6.003   4.747   6.365 -0.0961  0.7969  0.0927
   6523SM   C5F 8423   5.815   4.742   6.470 -0.7874 -0.3768 -0.6568
   6523SM   H5F 8424   5.803   4.853   6.469 -0.3915 -0.2993  0.6296
   6523SM   H5G 8425   5.771   4.697   6.562 -1.8436 -1.7839 -1.8177
   6523SM   C6F 8426   5.746   4.697   6.342 -0.1682  0.3900  0.6150
   6523SM   H6F 8427   5.771   4.590   6.331  1.3960  0.8790 -1.2089
   6523SM   H6G 8428   5.771   4.757   6.251 -0.5371  0.0658  0.2963
   6523SM   C7F 8429   5.593   4.705   6.371  0.2667 -0.0186  0.1190
   6523SM   H7F 8430   5.570   4.635   6.454 -0.7144  1.1755  0.8822
   6523SM   H7G 8431   5.528   4.665   6.290 -0.4112  0.4079  0.4482
   6523SM   C8F 8432   5.533   4.846   6.392  1.3019 -0.2444 -0.4890
   6523SM   H8F 8433   5.544   4.905   6.299 -0.9693  2.2653  0.7038
   6523SM   H8G 8434   5.590   4.892   6.476 -0.6279 -0.8609  1.2394
   6523SM   C9F 8435   5.383   4.858   6.436 -0.2904 -0.5839 -0.4213
   6523SM   H9F 8436   5.356   4.965   6.449 -0.8225 -0.8179  0.5091
   6523SM   H9G 8437   5.386   4.812   6.537 -0.8313 -0.2653 -0.2587
   6523SM  C10F 8438   5.285   4.804   6.338 -0.3888 -0.1196 -0.4014
   6523SM  H10F 8439   5.190   4.795   6.395 -0.5418 -1.5131 -0.8444
   6523SM  H10G 8440   5.307   4.699   6.309  0.4184 -0.2482  0.6051
   6523SM  C11F 8441   5.261   4.891   6.214  0.2395 -0.0646  0.5792
   6523SM  H11F 8442   5.348   4.870   6.149 -1.1336 -1.0097 -1.0354
   6523SM  H11G 8443   5.253   4.995   6.253  0.0289 -0.4604  1.6155
   6523SM  C12F 8444   5.122   4.860   6.152  0.6605 -0.1427 -0.7059
   6523SM  H12F 8445   5.038   4.875   6.223  0.8459 -1.6434 -0.1351
   6523SM  H12G 8446   5.116   4.753   6.122  2.0357 -0.0083 -1.5503
   6523SM  C13F 8447   5.086   4.956   6.035 -0.3931  0.7486  0.2112
   6523SM  H13F 8448   5.118   5.058   6.065  2.2978 -0.8106  3.2153
   6523SM  H13G 8449   4.978   4.965   6.010 -0.7049 -0.2693  1.1235
   6523SM  C14F 8450   5.154   4.928   5.900 -0.4642 -0.3853  0.4494
   6523SM  H14F 8451   5.262   4.904   5.909 -0.6871 -1.8595 -0.3703
   6523SM  H14G 8452   5.145   5.015   5.832  0.6124 -0.0915  0.6648
   6523SM  C15F 8453   5.084   4.815   5.829 -0.0498  0.6679 -0.4421
   6523SM  H15F 8454   4.976   4.842   5.818  0.0854  2.8999  2.2859
   6523SM  H15G 8455   5.083   4.735   5.906 -1.6663  1.9147  0.9174
   6523SM  C16F 8456   5.140   4.775   5.693  0.0002 -0.4781  0.2490
   6523SM  H16F 8457   5.080   4.689   5.656  0.9036  0.0329 -2.6507
   6523SM  H16G 8458   5.241   4.734   5.714  1.0128  1.7184 -0.0594
   6523SM  C17F 8459   5.154   4.874   5.584  0.5460 -0.1841  0.4425
   6523SM  H17F 8460   5.221   4.956   5.618  2.2034 -1.5156  0.5161
   6523SM  H17G 8461   5.053   4.908   5.552  0.8782 -0.4627 -0.9867
   6523SM  C18F 8462   5.229   4.819   5.462 -0.3897 -1.0154 -0.1773
   6523SM  H18F 8463   5.177   4.730   5.419  0.7505 -1.3587 -0.8803
   6523SM  H18G 8464   5.332   4.798   5.498 -1.0492  0.1537  2.6566
   6523SM  C19F 8465   5.228   4.938   5.357 -0.0002  0.2465 -0.1746
   6523SM  H19F 8466   5.304   5.015   5.385  0.6461 -0.1136 -0.9037
   6523SM  H19G 8467   5.128   4.986   5.344  0.6744  1.3151 -1.7743
   6523SM  C20F 8468   5.270   4.881   5.222  0.4368  1.0217  0.4211
   6523SM  H20F 8469   5.360   4.819   5.237 -0.3696 -0.8766 -1.9793
   6523SM  H20G 8470   5.309   4.963   5.158 -0.0919  1.4276  0.6105
   6523SM  C21F 8471   5.155   4.813   5.148  0.1233  0.1025  0.8010
   6523SM  H21F 8472   5.076   4.891   5.147 -0.0047  0.0859  3.1221
   6523SM  H21G 8473   5.120   4.723   5.203 -0.1644 -0.9740 -1.0791
   6523SM  C22F 8474   5.185   4.781   5.003 -0.1744  0.4202 -0.0398
   6523SM  H22F 8475   5.274   4.716   4.994 -0.6366 -0.0460 -1.7881
   6523SM  H22G 8476   5.212   4.879   4.958 -0.9456 -0.1206 -1.7965
   6523SM  C23F 8477   5.066   4.732   4.920 -0.1933  0.9728  0.2646
   6523SM  H23F 8478   5.048   4.628   4.953  1.2436  1.4087  2.6385
   6523SM  H23G 8479   5.074   4.742   4.810  0.8209 -0.4410  0.1802
   6523SM  H23H 8480   4.979   4.790   4.959 -1.2214 -1.8678  2.6173
   6623SM     N 8481   3.281   2.439   7.235  0.1390  0.2702 -0.6145
   6623SM   C15 8482   3.173   2.336   7.267  0.4068  0.8059 -0.1162
   6623SM  H15A 8483   3.116   2.359   7.355  0.3180  1.3486 -0.3130
   6623SM  H15B 8484   3.213   2.235   7.265  0.5632  0.8251  1.3743
   6623SM  H15C 8485   3.100   2.348   7.188 -1.1673  1.2042  1.3510
   6623SM   C14 8486   3.210   2.575   7.224 -0.2576  0.8726  0.3475
   6623SM  H14A 8487   3.277   2.654   7.196  0.6846 -0.2113 -0.5526
   6623SM  H14B 8488   3.160   2.602   7.316 -2.3563  1.4226 -0.8967
   6623SM  H14C 8489   3.132   2.564   7.151  0.0776  0.0902  0.0928
   6623SM   C13 8490   3.373   2.441   7.353 -0.4889  1.1605  0.0294
   6623SM  H13A 8491   3.402   2.339   7.376  1.4621  1.1305 -2.1308
   6623SM  H13B 8492   3.325   2.476   7.443 -0.0651 -0.0147  0.7422
   6623SM  H13C 8493   3.458   2.500   7.322 -0.4647  0.0427 -2.3022
   6623SM   C12 8494   3.356   2.407   7.110 -0.1328 -0.3158 -0.1777
   6623SM  H12A 8495   3.285   2.413   7.029 -0.3152  0.7779  0.0379
   6623SM  H12B 8496   3.393   2.306   7.117  1.3570  0.3050  1.9536
   6623SM   C11 8497   3.475   2.500   7.083 -0.1376 -0.3992  0.4024
   6623SM  H11A 8498   3.446   2.602   7.117 -0.5867 -0.1693 -0.6269
   6623SM  H11B 8499   3.505   2.490   6.976  1.8111  0.3742  0.8496
   6623SM     P 8500   3.666   2.331   7.148  0.0523 -0.0293  0.0134
   6623SM   O13 8501   3.791   2.347   7.216  0.1121 -0.1507  0.0329
   6623SM   O14 8502   3.592   2.209   7.187 -0.2472  0.3483 -0.1931
   6623SM   O11 8503   3.689   2.326   6.995  0.6210 -0.3533  0.8165
   6623SM   O12 8504   3.587   2.462   7.166 -0.2208 -0.3277  0.3636
   6623SM   C1S 8505   3.749   2.217   6.931  0.4210 -0.0652  0.0106
   6623SM   H1S 8506   3.668   2.152   6.891  1.5260 -0.8143 -1.1300
   6623SM   H1T 8507   3.813   2.153   6.996  0.4438  0.3462  0.3925
   6623SM    NF 8508   3.862   2.158   6.704  0.5464 -0.0589  0.5974
   6623SM   HNF 8509   3.956   2.131   6.684 -0.0870 -1.1118 -1.2770
   6623SM   C2S 8510   3.844   2.262   6.811  0.4374  0.3777 -0.7017
   6623SM   H2S 8511   3.794   2.346   6.759  3.4418  1.0050 -2.8890
   6623SM   C3S 8512   3.973   2.323   6.871  0.2233  0.0784  0.5167
   6623SM   H3S 8513   4.032   2.239   6.913 -0.3176 -0.8608 -0.5553
   6623SM    O3 8514   3.954   2.412   6.981  0.3227  0.6675  0.0931
   6623SM   HO3 8515   3.862   2.404   7.011  0.2720  0.5218 -0.1012
   6623SM   C4S 8516   4.047   2.387   6.756  0.3719  0.4256  0.5275
   6623SM   H4S 8517   4.134   2.324   6.732  0.7713  0.4906  1.7435
   6623SM   C5S 8518   4.047   2.516   6.713  0.2228  0.3018 -0.3024
   6623SM   H5S 8519   3.992   2.593   6.770  1.2180 -0.5776  1.9472
   6623SM   C6S 8520   4.138   2.561   6.604 -0.4762  0.7741 -0.1227
   6623SM   H6S 8521   4.236   2.508   6.605 -0.2196  1.2489  0.3567
   6623SM   H6T 8522   4.164   2.666   6.626  0.4891  0.6737 -0.7405
   6623SM   C7S 8523   4.078   2.543   6.465  0.1287  0.1985  1.3500
   6623SM   H7S 8524   4.131   2.604   6.388 -2.5668 -0.6598 -1.4249
   6623SM   H7T 8525   3.971   2.571   6.452 -0.0496 -0.9610  0.1011
   6623SM   C8S 8526   4.089   2.404   6.408 -0.0458  0.1753 -0.9731
   6623SM   H8S 8527   4.052   2.333   6.485  0.7936  1.0421  0.2603
   6623SM   H8T 8528   4.197   2.383   6.392  0.0493  0.0146 -0.1547
   6623SM   C9S 8529   4.002   2.381   6.280  0.0342 -0.3943  0.0452
   6623SM   H9S 8530   3.897   2.368   6.313  1.0536 -1.9649  3.0324
   6623SM   H9T 8531   4.032   2.283   6.236  0.1762 -0.2885 -0.0980
   6623SM  C10S 8532   4.003   2.489   6.170 -0.4737 -0.4256  0.2186
   6623SM  H10S 8533   4.104   2.513   6.128 -0.6694  1.1796  0.5740
   6623SM  H10T 8534   3.956   2.582   6.210 -2.2346 -1.2487  0.1532
   6623SM  C11S 8535   3.912   2.475   6.047 -0.5274  0.6566  0.7466
   6623SM  H11S 8536   3.900   2.572   5.993 -0.8281  0.0159 -0.3862
   6623SM  H11T 8537   3.818   2.433   6.089 -0.9337 -2.0817 -2.4564
   6623SM  C12S 8538   3.969   2.370   5.951 -0.8526 -0.1744  0.1904
   6623SM  H12S 8539   3.972   2.272   6.004 -0.3931  0.6456  1.7521
   6623SM  H12T 8540   4.073   2.388   5.916 -1.0020 -0.1035 -0.2195
   6623SM  C13S 8541   3.887   2.345   5.821 -0.1813  0.3687 -0.0661
   6623SM  H13S 8542   3.846   2.446   5.799  0.2956  0.5210 -0.2498
   6623SM  H13T 8543   3.806   2.270   5.838  0.7292 -0.8840 -1.0192
   6623SM  C14S 8544   3.964   2.287   5.706 -1.1877 -0.1469  0.1819
   6623SM  H14S 8545   3.892   2.259   5.627  0.9706 -1.0179 -1.5977
   6623SM  H14T 8546   4.024   2.199   5.740  2.0753  2.5953  2.2874
   6623SM  C15S 8547   4.060   2.385   5.630  0.4747  0.5079  0.0766
   6623SM  H15S 8548   4.134   2.417   5.707  0.1195  2.2332 -0.2701
   6623SM  H15T 8549   3.999   2.468   5.588 -0.2564 -0.7953 -1.5441
   6623SM  C16S 8550   4.129   2.321   5.506  0.2867  0.3746  0.0657
   6623SM  H16S 8551   4.153   2.216   5.535  0.0218 -0.3905 -2.2720
   6623SM  H16T 8552   4.227   2.372   5.494  0.3886 -0.0560 -1.0529
   6623SM  C17S 8553   4.046   2.337   5.378  0.1831  0.1202 -0.1224
   6623SM  H17S 8554   4.033   2.447   5.371  3.3610  0.6304  0.4331
   6623SM  H17T 8555   3.944   2.296   5.389  0.0823  0.4438  0.1642
   6623SM  C18S 8556   4.121   2.283   5.265  0.0123  0.0604  0.4788
   6623SM  H18S 8557   4.052   2.289   5.178 -0.2743  2.8943  0.7999
   6623SM  H18T 8558   4.147   2.175   5.273 -1.7598 -0.7264 -2.5632
   6623SM  H18U 8559   4.205   2.349   5.236 -1.0447  0.9311 -0.7560
   6623SM   C1F 8560   3.755   2.100   6.632 -0.1795 -0.2597 -0.2528
   6623SM    OF 8561   3.642   2.157   6.633  0.1807 -0.0001 -0.0777
   6623SM   C2F 8562   3.781   1.973   6.559 -0.0352  0.5472 -0.6961
   6623SM   H2F 8563   3.710   1.899   6.602 -0.3567  1.1970 -0.0911
   6623SM   H2G 8564   3.885   1.936   6.572  0.6157  2.6374  0.5082
   6623SM   C3F 8565   3.739   1.984   6.416  0.1762  0.4187  0.4420
   6623SM   H3F 8566   3.817   2.048   6.370  0.1227  0.7809  0.8514
   6623SM   H3G 8567   3.644   2.041   6.406  0.1442  0.5420  1.3651
   6623SM   C4F 8568   3.732   1.855   6.335 -0.2293 -0.3558  0.2956
   6623SM   H4F 8569   3.815   1.786   6.360 -0.0359  0.8976  3.5607
   6623SM   H4G 8570   3.735   1.888   6.229 -1.7071 -0.2045  0.2681
   6623SM   C5F 8571   3.604   1.764   6.342  0.0664 -0.5421  0.8930
   6623SM   H5F 8572   3.511   1.824   6.346 -1.0789 -1.6892 -3.2614
   6623SM   H5G 8573   3.602   1.711   6.440  2.9218  1.7731  2.3677
   6623SM   C6F 8574   3.582   1.683   6.208  0.2950  0.4918  0.5338
   6623SM   H6F 8575   3.677   1.631   6.184 -0.2112 -1.4783  2.5373
   6623SM   H6G 8576   3.558   1.749   6.122  0.0936 -0.1614  0.0831
   6623SM   C7F 8577   3.469   1.575   6.221 -0.2415 -0.1186 -0.4334
   6623SM   H7F 8578   3.367   1.617   6.233 -1.1164 -1.6808 -1.9489
   6623SM   H7G 8579   3.497   1.522   6.315  1.9484  3.7623  1.3488
   6623SM   C8F 8580   3.476   1.485   6.097 -0.0522  0.2270 -0.3802
   6623SM   H8F 8581   3.563   1.416   6.103 -0.1968 -0.1364 -2.0059
   6623SM   H8G 8582   3.491   1.551   6.009  1.1748  1.1280  0.4659
   6623SM   C9F 8583   3.352   1.394   6.082  0.2385 -0.0445 -0.5225
   6623SM   H9F 8584   3.322   1.348   6.179 -1.3846  0.2783 -0.8448
   6623SM   H9G 8585   3.357   1.323   5.997  1.4268  2.3061 -2.5512
   6623SM  C10F 8586   3.221   1.473   6.033  0.1232  0.0975 -0.2197
   6623SM  H10F 8587   3.231   1.576   6.073  0.4454  0.4032 -1.0628
   6623SM  H10G 8588   3.130   1.425   6.075  0.4295 -0.1651  0.1504
   6623SM  C11F 8589   3.207   1.483   5.879  0.1629 -0.1376  0.1329
   6623SM  H11F 8590   3.290   1.541   5.833 -2.7399  1.9167 -3.0289
   6623SM  H11G 8591   3.121   1.546   5.849  0.2736 -0.0592 -0.0223
   6623SM  C12F 8592   3.176   1.344   5.819 -0.2960  0.7012  0.5997
   6623SM  H12F 8593   3.194   1.263   5.893 -1.2857  0.8563  1.0246
   6623SM  H12G 8594   3.245   1.319   5.736 -1.1658 -1.3820  0.4409
   6623SM  C13F 8595   3.024   1.316   5.778  0.1999  0.2441 -0.3967
   6623SM  H13F 8596   2.964   1.328   5.871  2.4161  0.8609  1.0430
   6623SM  H13G 8597   3.022   1.209   5.750  2.5325  0.0133  0.1327
   6623SM  C14F 8598   2.977   1.385   5.657 -0.4638 -0.7274  0.1761
   6623SM  H14F 8599   3.053   1.372   5.577  0.9240  1.4044  1.0380
   6623SM  H14G 8600   2.956   1.494   5.671  1.2232 -0.3705  0.1796
   6623SM  C15F 8601   2.841   1.333   5.605  0.3055  0.0953  0.1594
   6623SM  H15F 8602   2.859   1.232   5.562  0.4073  0.9985 -2.0573
   6623SM  H15G 8603   2.816   1.392   5.514 -0.6849  0.0184  0.3672
   6623SM  C16F 8604   2.729   1.339   5.706 -0.6872  0.0845  0.6747
   6623SM  H16F 8605   2.758   1.420   5.776 -0.4224  1.8204 -1.3369
   6623SM  H16G 8606   2.724   1.236   5.747 -0.4024 -0.5556 -0.8376
   6623SM  C17F 8607   2.589   1.365   5.644  0.0577  0.0799  0.3122
   6623SM  H17F 8608   2.597   1.359   5.534  0.0668  0.3724  0.2958
   6623SM  H17G 8609   2.558   1.469   5.666 -0.3426 -0.4630  2.6269
   6623SM  C18F 8610   2.491   1.259   5.696  0.6299  0.3460  0.0444
   6623SM  H18F 8611   2.474   1.268   5.805 -1.2100 -1.5453 -0.0332
   6623SM  H18G 8612   2.532   1.156   5.680  0.0836 -0.5132  3.4556
   6623SM  C19F 8613   2.359   1.272   5.619  0.4549  0.2962  0.0313
   6623SM  H19F 8614   2.376   1.267   5.509 -1.3542  1.7180 -0.3710
   6623SM  H19G 8615   2.307   1.367   5.645 -0.3430 -0.3864  0.9984
   6623SM  C20F 8616   2.252   1.158   5.658 -1.0762 -0.0827  0.3279
   6623SM  H20F 8617   2.251   1.163   5.769 -0.4934 -2.2019  0.4810
   6623SM  H20G 8618   2.283   1.059   5.618  1.2146 -0.3272  2.4508
   6623SM  C21F 8619   2.109   1.195   5.613 -0.0297 -0.2949 -0.0184
   6623SM  H21F 8620   2.089   1.299   5.647 -1.1347 -0.5007  0.0179
   6623SM  H21G 8621   2.033   1.131   5.664 -0.6458  0.4372  0.0041
   6623SM  C22F 8622   2.081   1.187   5.465  0.4740 -0.0739 -0.0544
   6623SM  H22F 8623   2.102   1.084   5.429  2.7805  0.6608 -0.9895
   6623SM  H22G 8624   2.148   1.261   5.415  0.3046  0.6043  0.7027
   6623SM  C23F 8625   1.936   1.224   5.435 -0.0874 -0.1277 -0.2570
   6623SM  H23F 8626   1.932   1.212   5.324  0.8244  1.3916 -0.4831
   6623SM  H23G 8627   1.907   1.325   5.471 -2.4951 -1.4688  1.8791
   6623SM  H23H 8628   1.863   1.155   5.482  0.8496  0.7185  2.6411
   6723SM     N 8629   2.578   4.523   7.135 -0.3915  0.2160  0.1924
   6723SM   C15 8630   2.527   4.654   7.156  0.0388 -0.5264 -0.1654
   6723SM  H15A 8631   2.605   4.728   7.146 -1.6884  1.2348 -1.1737
   6723SM  H15B 8632   2.465   4.667   7.244  0.5037 -0.3354  0.1369
   6723SM  H15C 8633   2.455   4.673   7.078  0.4409 -1.7455 -0.8711
   6723SM   C14 8634   2.681   4.495   7.240 -0.2518 -0.3294  0.1309
   6723SM  H14A 8635   2.714   4.393   7.254  2.3727  0.2891 -0.8679
   6723SM  H14B 8636   2.647   4.527   7.337 -0.4669 -1.0620  0.3046
   6723SM  H14C 8637   2.769   4.550   7.210 -1.3565  0.9654 -0.7898
   6723SM   C13 8638   2.471   4.416   7.145 -0.0547 -0.0140 -0.5536
   6723SM  H13A 8639   2.375   4.449   7.108 -0.5232  1.3249  1.6743
   6723SM  H13B 8640   2.445   4.389   7.247 -1.7867 -0.2282 -1.0099
   6723SM  H13C 8641   2.498   4.324   7.095 -0.1318 -0.8070  0.7942
   6723SM   C12 8642   2.635   4.510   6.991  0.1028  0.0543 -0.3680
   6723SM  H12A 8643   2.678   4.416   6.961  0.6694  0.4532 -0.8255
   6723SM  H12B 8644   2.726   4.568   6.990  1.6217 -2.2316 -1.4115
   6723SM   C11 8645   2.545   4.557   6.875  0.3375 -0.1836 -0.7625
   6723SM  H11A 8646   2.458   4.488   6.871  2.5967 -3.3427  0.9053
   6723SM  H11B 8647   2.595   4.535   6.778  1.6812 -0.3206 -0.0512
   6723SM     P 8648   2.611   4.804   6.842 -0.4673 -0.1807 -0.0225
   6723SM   O13 8649   2.561   4.943   6.854  0.3422  0.0105  0.1279
   6723SM   O14 8650   2.741   4.767   6.912 -0.0516  0.6241 -0.0322
   6723SM   O11 8651   2.642   4.773   6.685  0.7392 -0.3268 -0.8108
   6723SM   O12 8652   2.496   4.695   6.878  0.0125  0.3721 -0.3727
   6723SM   C1S 8653   2.540   4.819   6.590  0.0420 -0.2118  0.1753
   6723SM   H1S 8654   2.525   4.929   6.592  0.2792 -0.1896  0.8508
   6723SM   H1T 8655   2.446   4.762   6.602 -0.1734 -0.1943 -1.2813
   6723SM    NF 8656   2.495   4.822   6.342 -0.2470 -0.0652 -0.1453
   6723SM   HNF 8657   2.445   4.752   6.292  0.6663 -1.2915  0.5970
   6723SM   C2S 8658   2.587   4.771   6.443  0.8096 -0.1420  0.4920
   6723SM   H2S 8659   2.683   4.824   6.428 -0.1484  2.6720  3.2459
   6723SM   C3S 8660   2.600   4.617   6.432  0.8092 -0.0011 -0.0355
   6723SM   H3S 8661   2.496   4.583   6.447 -0.7426  4.0335 -0.3945
   6723SM    O3 8662   2.687   4.558   6.531 -0.1120  0.3243  0.0936
   6723SM   HO3 8663   2.701   4.635   6.586 -0.4689  1.4234 -1.2969
   6723SM   C4S 8664   2.638   4.576   6.293 -0.3904 -0.3132  0.9896
   6723SM   H4S 8665   2.550   4.575   6.226 -0.7747 -1.1073  1.4818
   6723SM   C5S 8666   2.759   4.546   6.246 -0.2123  0.7756  0.2791
   6723SM   H5S 8667   2.846   4.552   6.314 -0.0413  0.8694  0.0534
   6723SM   C6S 8668   2.794   4.504   6.106 -0.2687  1.0679  0.2403
   6723SM   H6S 8669   2.792   4.394   6.097  0.6149  1.1968 -2.2283
   6723SM   H6T 8670   2.899   4.533   6.084  0.6474 -1.7580  0.5241
   6723SM   C7S 8671   2.703   4.539   5.995  0.4371 -0.5245  0.3954
   6723SM   H7S 8672   2.684   4.648   5.984 -0.4062 -0.7199 -0.1831
   6723SM   H7T 8673   2.603   4.499   6.021 -0.6178  1.9175  0.3864
   6723SM   C8S 8674   2.752   4.481   5.861  0.1617  0.2489 -0.2301
   6723SM   H8S 8675   2.752   4.371   5.869  0.3938  0.2186 -0.5944
   6723SM   H8T 8676   2.854   4.520   5.838 -0.2836  1.3669 -0.4090
   6723SM   C9S 8677   2.655   4.514   5.744  0.7754  0.8751  0.2686
   6723SM   H9S 8678   2.551   4.515   5.784 -1.2637 -4.7059 -3.5841
   6723SM   H9T 8679   2.666   4.425   5.679  1.6453  0.2546  1.2325
   6723SM  C10S 8680   2.697   4.639   5.670 -0.1094  0.3422 -0.7671
   6723SM  H10S 8681   2.808   4.634   5.663 -0.0231  1.2295 -0.2118
   6723SM  H10T 8682   2.667   4.727   5.731 -1.0318 -1.0406  0.8650
   6723SM  C11S 8683   2.644   4.648   5.522  0.2677 -0.4516 -0.0727
   6723SM  H11S 8684   2.534   4.645   5.539  0.1009 -1.3900 -1.1488
   6723SM  H11T 8685   2.662   4.560   5.457 -0.5091  0.9506 -2.2881
   6723SM  C12S 8686   2.674   4.783   5.451  0.2586  0.3240  0.4026
   6723SM  H12S 8687   2.782   4.801   5.434  0.6411 -2.4322 -0.7252
   6723SM  H12T 8688   2.638   4.865   5.516 -0.4094  0.7958 -0.5309
   6723SM  C13S 8689   2.610   4.812   5.311  0.4680 -0.1404 -0.4125
   6723SM  H13S 8690   2.655   4.906   5.274 -0.1257  0.3225  0.0146
   6723SM  H13T 8691   2.505   4.841   5.335  0.8215  1.2014 -0.4428
   6723SM  C14S 8692   2.628   4.698   5.214 -0.6058  1.2848  0.1791
   6723SM  H14S 8693   2.636   4.596   5.258  0.5006  1.5577  0.6668
   6723SM  H14T 8694   2.725   4.707   5.161 -0.4689 -0.6795  0.0425
   6723SM  C15S 8695   2.507   4.692   5.119  0.1320  0.4646 -0.7880
   6723SM  H15S 8696   2.478   4.797   5.095 -0.5400  1.0662  2.2642
   6723SM  H15T 8697   2.420   4.648   5.173  0.8098  0.2124  0.1155
   6723SM  C16S 8698   2.540   4.593   5.006 -0.3243  1.0523 -0.2453
   6723SM  H16S 8699   2.632   4.622   4.951  0.5945  0.5054  0.9594
   6723SM  H16T 8700   2.451   4.594   4.940  0.2284 -1.1705 -1.1269
   6723SM  C17S 8701   2.565   4.450   5.053  0.1658  0.2642  0.4063
   6723SM  H17S 8702   2.478   4.425   5.118 -0.6457  0.6193 -0.5233
   6723SM  H17T 8703   2.658   4.437   5.113  1.3749  1.0647 -1.2436
   6723SM  C18S 8704   2.573   4.357   4.939  0.0969  0.4231  0.9266
   6723SM  H18S 8705   2.475   4.351   4.886  1.7368 -1.2772 -2.1999
   6723SM  H18T 8706   2.604   4.258   4.979  0.2474  0.2682  0.4267
   6723SM  H18U 8707   2.640   4.392   4.858  0.9133  1.3420  1.9676
   6723SM   C1F 8708   2.489   4.953   6.303 -0.8417 -0.1880 -0.6859
   6723SM    OF 8709   2.564   5.030   6.359 -0.6080 -0.2392 -0.3785
   6723SM   C2F 8710   2.395   4.988   6.200  0.8275  0.5832  0.6226
   6723SM   H2F 8711   2.372   5.095   6.219  1.4380  0.7677  0.3523
   6723SM   H2G 8712   2.305   4.924   6.205  0.1155  1.4580 -0.5501
   6723SM   C3F 8713   2.450   4.958   6.058  0.6763 -0.5039 -0.6767
   6723SM   H3F 8714   2.462   4.848   6.065 -0.2971 -0.5703  0.3231
   6723SM   H3G 8715   2.552   5.002   6.056  1.2096 -1.5041  1.5621
   6723SM   C4F 8716   2.367   5.001   5.943  0.5562 -0.7252 -0.0586
   6723SM   H4F 8717   2.380   5.111   5.938 -0.2175 -0.6430 -0.3953
   6723SM   H4G 8718   2.261   4.984   5.972  1.2553 -3.7845  1.1075
   6723SM   C5F 8719   2.417   4.929   5.813 -0.7606 -0.9930 -0.2593
   6723SM   H5F 8720   2.419   4.818   5.827 -0.5745 -0.9536  0.0464
   6723SM   H5G 8721   2.521   4.967   5.798 -0.5882 -0.3181  2.1936
   6723SM   C6F 8722   2.344   4.951   5.683 -0.3598  0.0030  0.1933
   6723SM   H6F 8723   2.252   4.889   5.673 -0.3020  0.2423 -2.9790
   6723SM   H6G 8724   2.410   4.892   5.615 -0.6058 -3.3125  2.5782
   6723SM   C7F 8725   2.314   5.093   5.655  0.0495  0.1858 -0.3054
   6723SM   H7F 8726   2.409   5.149   5.672  0.6570 -1.2786  1.4725
   6723SM   H7G 8727   2.231   5.123   5.722  0.7969  0.3323  0.5703
   6723SM   C8F 8728   2.267   5.109   5.504  0.4729  0.0977 -0.0777
   6723SM   H8F 8729   2.323   5.036   5.443 -1.1024  0.9131 -2.6989
   6723SM   H8G 8730   2.269   5.208   5.453  2.7187  0.4317  0.5648
   6723SM   C9F 8731   2.125   5.060   5.483  0.4453  0.8898 -0.1955
   6723SM   H9F 8732   2.055   5.098   5.560 -0.6146 -0.1230 -0.6342
   6723SM   H9G 8733   2.112   4.950   5.481 -1.7780  1.0933  0.6034
   6723SM  C10F 8734   2.057   5.112   5.360  0.0242  0.2579  0.2785
   6723SM  H10F 8735   2.053   5.223   5.365  0.6422  0.2813  0.3019
   6723SM  H10G 8736   1.953   5.075   5.355  0.4721 -0.9036 -2.0636
   6723SM  C11F 8737   2.124   5.059   5.230 -0.2913  0.4976  0.2603
   6723SM  H11F 8738   2.232   5.088   5.227 -0.5044  1.2665 -0.3570
   6723SM  H11G 8739   2.087   5.094   5.132  0.2803 -2.8676 -1.2997
   6723SM  C12F 8740   2.111   4.901   5.219 -0.8230 -0.3510  0.2302
   6723SM  H12F 8741   2.006   4.872   5.239 -0.6538 -1.5478 -0.5600
   6723SM  H12G 8742   2.168   4.850   5.300  0.4222 -0.5933 -0.7690
   6723SM  C13F 8743   2.165   4.861   5.083  0.6195  0.1162 -0.1899
   6723SM  H13F 8744   2.272   4.834   5.085  0.1216 -1.9608  0.2253
   6723SM  H13G 8745   2.150   4.944   5.010  1.0377  0.1764 -0.2089
   6723SM  C14F 8746   2.099   4.735   5.027  0.3384  0.3688  0.5144
   6723SM  H14F 8747   1.989   4.747   5.028  0.1445 -0.7577 -1.4606
   6723SM  H14G 8748   2.119   4.646   5.090 -2.5695 -1.1397 -0.5148
   6723SM  C15F 8749   2.155   4.694   4.892  0.5609  0.8101 -0.2835
   6723SM  H15F 8750   2.108   4.595   4.879  0.4427  1.0941 -2.1935
   6723SM  H15G 8751   2.264   4.679   4.911  0.2878 -0.2069  0.5725
   6723SM  C16F 8752   2.158   4.789   4.767  0.1095 -0.1430 -0.5746
   6723SM  H16F 8753   2.216   4.883   4.772 -2.4061  1.4364  1.1240
   6723SM  H16G 8754   2.054   4.820   4.744 -0.5955 -1.6810  0.4005
   6723SM  C17F 8755   2.214   4.713   4.650 -0.0406 -0.2815  0.1467
   6723SM  H17F 8756   2.172   4.611   4.633 -0.0338 -0.2749  0.0855
   6723SM  H17G 8757   2.321   4.690   4.668  1.0984  2.7859 -1.9090
   6723SM  C18F 8758   2.201   4.799   4.523 -0.4245 -0.0286  0.2848
   6723SM  H18F 8759   2.247   4.895   4.554 -0.0468  0.5018 -1.7364
   6723SM  H18G 8760   2.098   4.831   4.496 -0.1177  4.6681  3.5866
   6723SM  C19F 8761   2.270   4.748   4.389 -0.4403  0.5016 -0.1006
   6723SM  H19F 8762   2.222   4.654   4.355 -0.6854  0.5657  0.0712
   6723SM  H19G 8763   2.376   4.723   4.413 -0.5294  0.5723  0.3854
   6723SM  C20F 8764   2.262   4.849   4.274  0.0923 -0.7819 -0.1149
   6723SM  H20F 8765   2.326   4.936   4.300 -2.5798  1.4813 -0.6104
   6723SM  H20G 8766   2.157   4.886   4.266 -0.1397 -1.7903 -2.5062
   6723SM  C21F 8767   2.321   4.800   4.139  0.6218 -0.3993 -0.0610
   6723SM  H21F 8768   2.264   4.709   4.110  0.0460 -0.9839  2.6256
   6723SM  H21G 8769   2.419   4.750   4.155  1.5627  1.3869 -0.0143
   6723SM  C22F 8770   2.332   4.907   4.032  0.7435 -0.3887  0.1894
   6723SM  H22F 8771   2.394   4.987   4.077  1.6254 -1.3586  0.7557
   6723SM  H22G 8772   2.234   4.951   4.007 -0.5552 -3.0046  0.3397
   6723SM  C23F 8773   2.386   4.859   3.901 -0.2612  0.4897 -0.4102
   6723SM  H23F 8774   2.406   4.944   3.831  0.9357  1.7362  1.3397
   6723SM  H23G 8775   2.312   4.791   3.853  0.1520 -1.1539  1.1813
   6723SM  H23H 8776   2.482   4.804   3.899  1.5558  3.4348 -1.6053
   6823SM     N 8777   3.261   0.023   7.480  0.3390  0.2144 -0.1396
   6823SM   C15 8778   3.284  -0.095   7.389 -0.1896  0.1929 -0.9745
   6823SM  H15A 8779   3.355  -0.072   7.311 -0.1925  0.8889 -0.7760
   6823SM  H15B 8780   3.193  -0.120   7.336 -0.2049  0.0126 -0.8661
   6823SM  H15C 8781   3.326  -0.177   7.446 -0.9829  1.3441  1.3975
   6823SM   C14 8782   3.181  -0.020   7.594 -0.4085 -0.3564 -0.2683
   6823SM  H14A 8783   3.100  -0.089   7.574 -0.5239  0.1905 -1.7545
   6823SM  H14B 8784   3.127   0.066   7.629  0.7087  1.2159 -2.2439
   6823SM  H14C 8785   3.236  -0.056   7.680 -1.9387 -0.0868  0.8767
   6823SM   C13 8786   3.401   0.059   7.532 -0.2360  0.2526  0.4504
   6823SM  H13A 8787   3.451  -0.031   7.565 -0.9403 -0.2749  0.1136
   6823SM  H13B 8788   3.396   0.125   7.618  0.6291 -0.4766  1.0733
   6823SM  H13C 8789   3.455   0.104   7.451 -2.0455 -0.5597 -1.3088
   6823SM   C12 8790   3.199   0.139   7.394  0.4745 -0.5071  0.4519
   6823SM  H12A 8791   3.184   0.229   7.451 -0.2034 -1.1596  1.3297
   6823SM  H12B 8792   3.100   0.102   7.371  0.3804 -0.4526  0.7691
   6823SM   C11 8793   3.280   0.180   7.269  0.5157  0.5204  0.7527
   6823SM  H11A 8794   3.382   0.220   7.288  0.8312  0.9648 -1.4996
   6823SM  H11B 8795   3.219   0.264   7.231 -0.4283  0.3061  1.7815
   6823SM     P 8796   3.161   0.029   7.079  0.0117  0.0151 -0.4989
   6823SM   O13 8797   3.216  -0.043   6.960  0.4834  0.6313 -0.3487
   6823SM   O14 8798   3.074  -0.052   7.169  0.1267  0.0472 -0.5045
   6823SM   O11 8799   3.088   0.162   7.037  0.0756 -0.3190 -0.4999
   6823SM   O12 8800   3.287   0.080   7.158  0.2120  0.3029 -0.0443
   6823SM   C1S 8801   3.138   0.256   6.943  0.2051  0.4102  0.6336
   6823SM   H1S 8802   3.247   0.273   6.951  0.1804  0.9435 -0.0102
   6823SM   H1T 8803   3.090   0.356   6.958  2.3332  1.7835 -1.0097
   6823SM    NF 8804   3.126   0.341   6.713 -0.7499  0.0923  0.2220
   6823SM   HNF 8805   3.060   0.413   6.696  0.7422  1.1067 -1.6673
   6823SM   C2S 8806   3.087   0.230   6.794 -0.2262 -1.4554 -0.5421
   6823SM   H2S 8807   3.136   0.137   6.758 -1.3747 -2.9184  1.4733
   6823SM   C3S 8808   2.938   0.193   6.793  0.3541 -0.1306 -0.2121
   6823SM   H3S 8809   2.902   0.281   6.850 -0.7217 -0.6157 -0.1258
   6823SM    O3 8810   2.904   0.077   6.867  0.1520  0.0486 -0.1098
   6823SM   HO3 8811   2.970   0.060   6.934 -0.5870 -0.0420  0.6096
   6823SM   C4S 8812   2.858   0.197   6.662 -0.5292  1.2695  0.6328
   6823SM   H4S 8813   2.912   0.139   6.585  0.5468  2.0427  0.7790
   6823SM   C5S 8814   2.741   0.251   6.641  0.1239  0.0924  0.8047
   6823SM   H5S 8815   2.678   0.286   6.725 -0.4806 -0.9098  0.7863
   6823SM   C6S 8816   2.669   0.247   6.511 -0.1984 -0.6043 -0.6787
   6823SM   H6S 8817   2.635   0.352   6.493 -0.7562  0.0931  3.4247
   6823SM   H6T 8818   2.587   0.173   6.507 -1.4194  0.3576  2.8497
   6823SM   C7S 8819   2.754   0.211   6.383  0.1309 -0.2470 -0.5576
   6823SM   H7S 8820   2.799   0.110   6.385  0.6133 -0.0314  0.1244
   6823SM   H7T 8821   2.842   0.279   6.381  0.5706 -0.6026  2.2714
   6823SM   C8S 8822   2.686   0.259   6.254 -0.5482  0.4933  0.0149
   6823SM   H8S 8823   2.650   0.363   6.265 -1.1341  0.4651 -1.4233
   6823SM   H8T 8824   2.597   0.192   6.250  0.8142 -1.4082  0.1124
   6823SM   C9S 8825   2.770   0.233   6.131 -0.3419  0.2071 -0.4049
   6823SM   H9S 8826   2.762   0.125   6.105  1.2842  0.1663 -0.8339
   6823SM   H9T 8827   2.878   0.253   6.147 -0.4229  0.2960  0.0447
   6823SM  C10S 8828   2.734   0.328   6.021  0.6098  0.0624  0.4959
   6823SM  H10S 8829   2.722   0.436   6.047 -1.8078 -0.3471  1.3565
   6823SM  H10T 8830   2.631   0.304   5.989  0.9274 -2.2085  1.0489
   6823SM  C11S 8831   2.830   0.310   5.900 -0.3784 -0.0479 -0.2572
   6823SM  H11S 8832   2.926   0.356   5.933 -1.4208 -0.1872  3.4892
   6823SM  H11T 8833   2.787   0.360   5.811  0.3107  1.0379 -0.0018
   6823SM  C12S 8834   2.859   0.170   5.848 -0.3257 -0.4791 -0.5868
   6823SM  H12S 8835   2.773   0.101   5.834 -0.4975 -0.3703 -0.0955
   6823SM  H12T 8836   2.913   0.110   5.925  1.2144  1.3025 -0.2223
   6823SM  C13S 8837   2.955   0.175   5.734 -0.1875  0.3895  0.3784
   6823SM  H13S 8838   3.043   0.235   5.763 -0.6016  0.8501  0.6991
   6823SM  H13T 8839   2.908   0.221   5.643 -0.0316  1.0374  0.6180
   6823SM  C14S 8840   3.003   0.030   5.685 -0.0700 -0.6583 -0.1308
   6823SM  H14S 8841   2.908  -0.020   5.657  0.1902 -0.6382 -1.0960
   6823SM  H14T 8842   3.045  -0.021   5.774  0.1653 -1.2647 -0.5848
   6823SM  C15S 8843   3.104   0.037   5.567  0.9427 -0.3180  0.4830
   6823SM  H15S 8844   3.192   0.096   5.603  2.6411 -2.7033  0.4929
   6823SM  H15T 8845   3.055   0.091   5.483 -0.9101 -0.9754  1.0903
   6823SM  C16S 8846   3.150  -0.104   5.525 -0.4060  0.0026  0.0777
   6823SM  H16S 8847   3.172  -0.160   5.618  0.9295  0.2019 -0.1102
   6823SM  H16T 8848   3.245  -0.092   5.470  0.1099  0.7532  1.1073
   6823SM  C17S 8849   3.053  -0.181   5.424  0.4653  0.2592 -0.8664
   6823SM  H17S 8850   2.949  -0.181   5.461  1.3582 -0.8781  1.8773
   6823SM  H17T 8851   3.092  -0.285   5.428 -1.2699 -0.3935  2.1945
   6823SM  C18S 8852   3.053  -0.115   5.286  0.2282  0.0236 -0.1708
   6823SM  H18S 8853   3.045  -0.193   5.207 -1.1472  0.0172 -0.0496
   6823SM  H18T 8854   3.148  -0.059   5.272 -0.2247  1.0145  0.6101
   6823SM  H18U 8855   2.964  -0.048   5.275  0.0620 -0.3469 -1.3057
   6823SM   C1F 8856   3.255   0.362   6.681 -0.2656  0.0457 -0.7585
   6823SM    OF 8857   3.341   0.278   6.717  0.1790 -0.5862  0.4083
   6823SM   C2F 8858   3.290   0.499   6.625 -0.5679 -0.2757  0.1284
   6823SM   H2F 8859   3.373   0.540   6.686 -0.3550  0.4888 -0.6551
   6823SM   H2G 8860   3.201   0.566   6.628 -0.0098  0.6172 -1.9729
   6823SM   C3F 8861   3.328   0.488   6.477 -0.2621  0.1487 -0.1203
   6823SM   H3F 8862   3.244   0.453   6.413  0.2252 -0.8709 -0.2251
   6823SM   H3G 8863   3.412   0.416   6.468 -0.7675 -0.7001  1.7034
   6823SM   C4F 8864   3.372   0.629   6.420  0.0195  0.6744  0.0987
   6823SM   H4F 8865   3.280   0.690   6.408 -0.2909  0.3398  0.7450
   6823SM   H4G 8866   3.408   0.613   6.316 -0.5603 -2.6804  0.2989
   6823SM   C5F 8867   3.487   0.697   6.503  0.7021 -0.4623  0.0412
   6823SM   H5F 8868   3.565   0.619   6.513  0.4405 -1.3258 -3.3305
   6823SM   H5G 8869   3.446   0.710   6.605  1.1863 -0.8809  0.2922
   6823SM   C6F 8870   3.544   0.833   6.449  0.2581 -0.1241 -0.1391
   6823SM   H6F 8871   3.620   0.871   6.520  1.1181 -0.5763 -0.7908
   6823SM   H6G 8872   3.469   0.914   6.446  0.8724  0.4324 -0.5868
   6823SM   C7F 8873   3.600   0.821   6.311 -0.7185  0.2595  0.1542
   6823SM   H7F 8874   3.524   0.782   6.240  0.0618  1.6418 -1.5185
   6823SM   H7G 8875   3.690   0.756   6.320  0.8453  2.4656  1.7470
   6823SM   C8F 8876   3.644   0.952   6.244 -0.1214  0.2578 -0.1087
   6823SM   H8F 8877   3.547   1.002   6.224 -0.3402 -0.1406 -0.0451
   6823SM   H8G 8878   3.717   0.936   6.161  0.5608 -0.9360  0.6875
   6823SM   C9F 8879   3.731   1.048   6.324 -0.2924  0.1275  0.3958
   6823SM   H9F 8880   3.832   1.001   6.320 -0.3016  0.1328  0.0179
   6823SM   H9G 8881   3.686   1.028   6.424  1.6547 -2.0706  0.9129
   6823SM  C10F 8882   3.747   1.194   6.266 -0.4422  1.2908  0.1228
   6823SM  H10F 8883   3.647   1.237   6.244 -1.1716 -0.5316 -0.3152
   6823SM  H10G 8884   3.795   1.192   6.166  0.3684  3.9756  0.3703
   6823SM  C11F 8885   3.838   1.281   6.348 -0.1809 -0.3810 -0.2554
   6823SM  H11F 8886   3.808   1.287   6.455 -0.1403 -1.7389 -0.1514
   6823SM  H11G 8887   3.832   1.387   6.317 -0.3172  0.1316  1.4209
   6823SM  C12F 8888   3.987   1.235   6.350 -0.6613 -0.2051 -0.6533
   6823SM  H12F 8889   4.013   1.202   6.247  0.4063 -2.9937  0.4155
   6823SM  H12G 8890   4.007   1.145   6.412 -0.2903  0.8228  0.7739
   6823SM  C13F 8891   4.078   1.346   6.401 -0.7511  0.1736  0.1529
   6823SM  H13F 8892   4.047   1.387   6.499 -2.1080 -0.3849 -0.0207
   6823SM  H13G 8893   4.069   1.435   6.334 -1.0742  0.0775  0.0698
   6823SM  C14F 8894   4.228   1.315   6.425 -0.7691 -0.1030  0.3863
   6823SM  H14F 8895   4.278   1.408   6.456 -0.0359 -0.3865  0.0628
   6823SM  H14G 8896   4.272   1.268   6.335 -2.2373 -2.3340  0.7306
   6823SM  C15F 8897   4.243   1.213   6.543 -0.0518  0.2355  0.4292
   6823SM  H15F 8898   4.184   1.123   6.513  1.7982 -0.9721  0.2631
   6823SM  H15G 8899   4.186   1.262   6.625  0.6242  1.1713  0.3582
   6823SM  C16F 8900   4.388   1.194   6.583  0.2308  0.1160  0.0342
   6823SM  H16F 8901   4.395   1.168   6.691 -2.0980 -0.5760  0.0586
   6823SM  H16G 8902   4.446   1.289   6.575 -0.5083  0.6548  0.8740
   6823SM  C17F 8903   4.459   1.094   6.495 -0.3292  0.9420  0.0781
   6823SM  H17F 8904   4.437   1.125   6.390 -0.5100  1.1109  0.1657
   6823SM  H17G 8905   4.406   0.998   6.512 -0.6690  0.7733 -1.6879
   6823SM  C18F 8906   4.609   1.095   6.501  0.7064  0.0370 -0.3844
   6823SM  H18F 8907   4.632   1.099   6.609  1.6849  2.0428 -0.6220
   6823SM  H18G 8908   4.654   1.189   6.463  2.4288 -0.6932 -0.2450
   6823SM  C19F 8909   4.671   0.975   6.433  0.1363 -0.4480  0.2585
   6823SM  H19F 8910   4.631   0.877   6.467  0.9680 -0.5669  0.9459
   6823SM  H19G 8911   4.779   0.982   6.457 -0.0528 -0.8753  1.2891
   6823SM  C20F 8912   4.659   0.976   6.282  0.0795 -0.3698  0.5091
   6823SM  H20F 8913   4.550   0.967   6.265  0.0625  0.9465 -0.2587
   6823SM  H20G 8914   4.715   0.892   6.235  1.0052  0.5263 -0.0478
   6823SM  C21F 8915   4.704   1.104   6.205  0.5493 -0.6899  0.6661
   6823SM  H21F 8916   4.656   1.186   6.263 -0.8587 -0.6051 -0.5513
   6823SM  H21G 8917   4.659   1.117   6.104  0.2507 -0.0759  0.8748
   6823SM  C22F 8918   4.857   1.131   6.193 -0.4241  0.2545 -0.0823
   6823SM  H22F 8919   4.904   1.074   6.276 -1.0168  1.4114  1.0728
   6823SM  H22G 8920   4.866   1.240   6.208  1.5414 -0.0894  1.5739
   6823SM  C23F 8921   4.917   1.083   6.054 -0.0336  0.2198 -0.3000
   6823SM  H23F 8922   4.903   1.160   5.975 -2.5803  0.4063  0.2335
   6823SM  H23G 8923   4.864   0.993   6.015  1.2932 -0.0186 -1.6178
   6823SM  H23H 8924   5.024   1.061   6.072  0.1258  0.9073 -0.3929
   6923SM     N 8925   6.102   1.806   7.493  0.3400  0.0100  0.2128
   6923SM   C15 8926   6.207   1.729   7.562 -0.0560 -0.4182  0.5074
   6923SM  H15A 8927   6.273   1.793   7.619 -0.5617  1.0741 -0.5278
   6923SM  H15B 8928   6.267   1.686   7.484 -0.5883  1.1372 -0.8160
   6923SM  H15C 8929   6.168   1.642   7.613 -1.5879  0.1626  0.4104
   6923SM   C14 8930   6.017   1.880   7.592 -0.2545 -1.0993 -0.0603
   6923SM  H14A 8931   6.083   1.959   7.622  1.5281 -1.6316 -2.2778
   6923SM  H14B 8932   5.983   1.823   7.677  1.5222 -0.1082  1.3786
   6923SM  H14C 8933   5.935   1.917   7.533  1.6602  2.1183 -0.9509
   6923SM   C13 8934   6.162   1.904   7.404  0.2502  0.2046  0.2558
   6923SM  H13A 8935   6.093   1.973   7.357 -0.0575 -0.3330 -0.0944
   6923SM  H13B 8936   6.226   1.858   7.330  0.7028 -0.9192  1.3033
   6923SM  H13C 8937   6.222   1.967   7.469 -0.5416  1.3191 -0.0665
   6923SM   C12 8938   6.018   1.709   7.419  0.0515  0.2086  0.4162
   6923SM  H12A 8939   5.957   1.658   7.492  1.5134 -1.8707  0.2806
   6923SM  H12B 8940   6.075   1.630   7.372 -0.4132  0.4763 -0.6341
   6923SM   C11 8941   5.929   1.749   7.298  0.3889  0.0719 -0.0761
   6923SM  H11A 8942   5.886   1.654   7.259  0.6380 -0.1235  0.1299
   6923SM  H11B 8943   5.994   1.795   7.220  2.2843  1.4417  2.1564
   6923SM     P 8944   5.706   1.790   7.433 -0.0364  0.0293  0.1163
   6923SM   O13 8945   5.727   1.653   7.486 -0.7193  0.3019 -0.1898
   6923SM   O14 8946   5.684   1.904   7.524  0.0982 -0.2545 -0.4101
   6923SM   O11 8947   5.586   1.781   7.334  1.0347  0.2534 -0.2864
   6923SM   O12 8948   5.831   1.837   7.345  0.4386  0.3222  0.0322
   6923SM   C1S 8949   5.514   1.907   7.300 -0.5870  0.3869 -0.2000
   6923SM   H1S 8950   5.530   1.992   7.370  0.4834 -0.3956  0.5378
   6923SM   H1T 8951   5.406   1.885   7.309 -0.4102  0.2399  4.7555
   6923SM    NF 8952   5.496   2.080   7.121 -0.3470  0.8812  0.3090
   6923SM   HNF 8953   5.440   2.083   7.039 -1.7370  1.8381  1.2593
   6923SM   C2S 8954   5.549   1.943   7.154  0.0211 -0.3508  1.4228
   6923SM   H2S 8955   5.659   1.951   7.145 -0.0634  1.6155  1.5960
   6923SM   C3S 8956   5.499   1.833   7.057  0.0229 -0.1377  0.3992
   6923SM   H3S 8957   5.390   1.813   7.070  0.1743 -1.3271 -0.0970
   6923SM    O3 8958   5.558   1.709   7.082  0.7134 -0.6183  0.0942
   6923SM   HO3 8959   5.579   1.715   7.175 -3.4094 -0.5620  1.2187
   6923SM   C4S 8960   5.539   1.882   6.919  0.0052  0.6622  0.5604
   6923SM   H4S 8961   5.449   1.914   6.865  0.6042 -0.3985 -1.1173
   6923SM   C5S 8962   5.662   1.892   6.870  0.0660  0.2755 -0.3722
   6923SM   H5S 8963   5.746   1.859   6.934 -1.0787 -0.3834  0.8369
   6923SM   C6S 8964   5.707   1.944   6.738 -0.9717  0.0180  0.0468
   6923SM   H6S 8965   5.797   1.885   6.709 -1.3394 -0.7254  0.3972
   6923SM   H6T 8966   5.728   2.053   6.736 -1.8980  0.2409  1.3894
   6923SM   C7S 8967   5.594   1.930   6.630 -0.9850  0.4134 -0.2410
   6923SM   H7S 8968   5.510   1.996   6.661 -1.2098 -0.2518  0.6175
   6923SM   H7T 8969   5.557   1.827   6.610  2.3082 -0.7256 -1.2082
   6923SM   C8S 8970   5.630   1.983   6.487 -0.7254  0.7700  0.0737
   6923SM   H8S 8971   5.685   2.079   6.486 -0.9413  0.9031  0.6800
   6923SM   H8T 8972   5.538   1.993   6.427 -1.7950 -0.3416  1.4632
   6923SM   C9S 8973   5.720   1.882   6.413 -0.3352 -0.4194 -1.0530
   6923SM   H9S 8974   5.646   1.814   6.366  0.9860 -2.8414  0.1914
   6923SM   H9T 8975   5.778   1.822   6.487 -0.2067  0.3603 -0.5096
   6923SM  C10S 8976   5.814   1.941   6.308 -0.1301  0.9186  0.6255
   6923SM  H10S 8977   5.872   2.024   6.354 -0.2110  2.9009 -2.5595
   6923SM  H10T 8978   5.761   1.993   6.226  0.9850  0.3853 -0.4632
   6923SM  C11S 8979   5.923   1.848   6.241  0.0222 -0.2890  0.5996
   6923SM  H11S 8980   5.874   1.800   6.154 -0.4067  0.6932  0.2797
   6923SM  H11T 8981   5.943   1.767   6.314 -0.6756 -1.6398 -0.6651
   6923SM  C12S 8982   6.052   1.918   6.197 -0.7409 -0.6804 -0.8599
   6923SM  H12S 8983   6.089   1.969   6.289  0.8602 -2.0972 -0.6583
   6923SM  H12T 8984   6.034   1.988   6.113 -1.4659 -2.3685 -2.1611
   6923SM  C13S 8985   6.162   1.826   6.155  0.1294  0.2854 -0.3761
   6923SM  H13S 8986   6.156   1.813   6.045  2.2656 -1.9426 -0.3206
   6923SM  H13T 8987   6.158   1.725   6.203 -0.7811  0.2515 -0.5006
   6923SM  C14S 8988   6.299   1.876   6.191  0.1519 -0.0416 -0.1387
   6923SM  H14S 8989   6.310   1.890   6.301  0.1017  1.9404 -0.3586
   6923SM  H14T 8990   6.309   1.979   6.151  0.7666 -0.3416 -0.7660
   6923SM  C15S 8991   6.412   1.775   6.149  0.2228  0.4584  0.1909
   6923SM  H15S 8992   6.405   1.688   6.218 -3.4941 -0.3359 -0.9234
   6923SM  H15T 8993   6.515   1.815   6.161  1.3791 -2.2306 -0.0479
   6923SM  C16S 8994   6.407   1.726   6.002 -0.5592 -1.2068 -0.5122
   6923SM  H16S 8995   6.398   1.819   5.942 -1.2448  0.2627  1.7401
   6923SM  H16T 8996   6.317   1.665   5.978 -1.5630  0.0732 -0.1098
   6923SM  C17S 8997   6.525   1.640   5.949 -0.1349 -0.3242 -0.5950
   6923SM  H17S 8998   6.623   1.687   5.968 -0.8310  0.4404  1.3139
   6923SM  H17T 8999   6.503   1.615   5.843 -1.7720 -1.3073 -0.0627
   6923SM  C18S 9000   6.538   1.504   6.020  0.1979  0.1753  0.0358
   6923SM  H18S 9001   6.623   1.444   5.980 -0.2156 -0.6455  0.3678
   6923SM  H18T 9002   6.448   1.442   6.001 -1.0870  2.0984 -0.4120
   6923SM  H18U 9003   6.540   1.521   6.129  3.3623 -0.1869  0.1311
   6923SM   C1F 9004   5.559   2.184   7.166 -0.1887 -0.4226 -0.3630
   6923SM    OF 9005   5.636   2.192   7.265 -0.4068  0.3624  0.0203
   6923SM   C2F 9006   5.527   2.309   7.086 -0.3693 -0.6123 -0.3959
   6923SM   H2F 9007   5.535   2.391   7.159 -1.1619 -1.0687  0.2180
   6923SM   H2G 9008   5.421   2.310   7.054  0.1618 -0.4222 -2.2779
   6923SM   C3F 9009   5.602   2.327   6.954 -0.3449  0.3590 -0.1029
   6923SM   H3F 9010   5.562   2.259   6.876 -1.8554 -0.6334  1.4768
   6923SM   H3G 9011   5.710   2.305   6.968 -0.4488 -1.4286 -1.6930
   6923SM   C4F 9012   5.572   2.466   6.896  0.6507  0.0622  0.3859
   6923SM   H4F 9013   5.620   2.530   6.973  0.1863 -0.1043  0.8236
   6923SM   H4G 9014   5.465   2.493   6.905  0.0957 -1.7717 -0.1317
   6923SM   C5F 9015   5.628   2.486   6.752 -0.0276  0.0824 -0.1422
   6923SM   H5F 9016   5.729   2.439   6.746  1.3266  2.9606 -1.7530
   6923SM   H5G 9017   5.648   2.593   6.728  0.9269 -0.0190  0.1623
   6923SM   C6F 9018   5.538   2.445   6.641  0.3280  0.0008  0.3852
   6923SM   H6F 9019   5.437   2.488   6.657 -0.8539 -2.2903 -0.3490
   6923SM   H6G 9020   5.532   2.335   6.659 -1.3688 -0.4371 -2.3100
   6923SM   C7F 9021   5.594   2.468   6.496  0.0151  0.1091 -0.1742
   6923SM   H7F 9022   5.699   2.432   6.507 -0.9763 -2.2173  2.4957
   6923SM   H7G 9023   5.599   2.579   6.484  0.5940  0.3470  1.9071
   6923SM   C8F 9024   5.534   2.392   6.375  0.0781 -0.5004  0.4355
   6923SM   H8F 9025   5.424   2.388   6.394  0.0631  1.4080  0.9356
   6923SM   H8G 9026   5.564   2.285   6.380 -0.7552 -0.7202  0.9704
   6923SM   C9F 9027   5.568   2.461   6.243  0.2519  0.6784 -0.2545
   6923SM   H9F 9028   5.678   2.470   6.238  0.4996  1.7023  3.4662
   6923SM   H9G 9029   5.530   2.565   6.255 -1.5822 -0.0262  0.5131
   6923SM  C10F 9030   5.526   2.391   6.111  0.0189 -0.2946  0.0724
   6923SM  H10F 9031   5.579   2.294   6.098  2.0479  0.9313 -1.3929
   6923SM  H10G 9032   5.555   2.460   6.029  2.7614  0.2306  1.3903
   6923SM  C11F 9033   5.372   2.368   6.103  0.2732  0.2844 -0.3362
   6923SM  H11F 9034   5.326   2.467   6.122 -0.0751  0.2150 -0.7850
   6923SM  H11G 9035   5.332   2.305   6.185 -0.3428 -1.1633 -1.6886
   6923SM  C12F 9036   5.329   2.326   5.966 -0.4020  0.6255  0.1755
   6923SM  H12F 9037   5.384   2.232   5.941 -1.7576  0.1906 -1.4251
   6923SM  H12G 9038   5.350   2.417   5.906 -0.7000  1.5369  1.4203
   6923SM  C13F 9039   5.184   2.285   5.954  0.4913 -0.0822 -0.5680
   6923SM  H13F 9040   5.121   2.373   5.976 -0.1361 -0.0982 -2.1760
   6923SM  H13G 9041   5.161   2.207   6.030 -0.1624  1.1996  0.5849
   6923SM  C14F 9042   5.147   2.219   5.817  0.0534 -1.1456  0.3245
   6923SM  H14F 9043   5.180   2.113   5.818  0.7046 -0.9612 -0.2871
   6923SM  H14G 9044   5.208   2.269   5.739 -1.2734 -0.0819 -0.0784
   6923SM  C15F 9045   4.998   2.244   5.787 -0.6932 -0.3427  0.2067
   6923SM  H15F 9046   4.988   2.348   5.751  2.2373  0.5292  1.5868
   6923SM  H15G 9047   4.952   2.235   5.888  0.2111 -1.8291  0.5182
   6923SM  C16F 9048   4.945   2.143   5.691 -0.1208 -0.1181 -0.4327
   6923SM  H16F 9049   4.979   2.040   5.718 -0.4468  0.1114  0.9282
   6923SM  H16G 9050   4.985   2.156   5.589  1.3310  0.5728  0.2062
   6923SM  C17F 9051   4.795   2.144   5.671 -0.2890 -0.2209 -0.0151
   6923SM  H17F 9052   4.752   2.241   5.639  2.1510  0.6132 -1.0382
   6923SM  H17G 9053   4.744   2.110   5.763  0.6578 -1.8361 -0.0327
   6923SM  C18F 9054   4.754   2.044   5.556 -0.6788 -0.1130  0.1396
   6923SM  H18F 9055   4.816   1.954   5.576 -1.1197 -0.2902  0.7282
   6923SM  H18G 9056   4.793   2.099   5.467  0.6076 -0.7103  0.3207
   6923SM  C19F 9057   4.606   2.009   5.542 -0.4480 -0.4011  0.0919
   6923SM  H19F 9058   4.571   1.963   5.637  0.1130 -0.6437  0.1806
   6923SM  H19G 9059   4.584   1.933   5.464 -0.8959  1.3389 -1.5455
   6923SM  C20F 9060   4.512   2.128   5.511 -0.1852  0.1842 -1.0405
   6923SM  H20F 9061   4.526   2.210   5.585 -2.1103 -0.8032  0.5164
   6923SM  H20G 9062   4.408   2.091   5.516 -0.3379  0.7770  0.7958
   6923SM  C21F 9063   4.539   2.182   5.376  0.2144 -0.3343  0.3434
   6923SM  H21F 9064   4.642   2.224   5.374  0.1955 -0.3068 -1.9714
   6923SM  H21G 9065   4.471   2.269   5.364 -0.7866 -0.7506  2.4595
   6923SM  C22F 9066   4.523   2.085   5.257  0.1155  0.4276  0.1311
   6923SM  H22F 9067   4.416   2.052   5.258 -0.1186  0.9737 -2.3038
   6923SM  H22G 9068   4.591   1.998   5.260  0.7632  0.8549 -1.4161
   6923SM  C23F 9069   4.550   2.153   5.126 -0.3637 -0.3492  0.0243
   6923SM  H23F 9070   4.461   2.198   5.078 -0.3010  1.2337  1.2852
   6923SM  H23G 9071   4.590   2.075   5.058 -2.7183  0.2549 -2.2330
   6923SM  H23H 9072   4.624   2.235   5.140  1.1279 -1.8256  1.2675
   7023SM     N 9073   4.779   1.276   7.581  0.4119 -0.3082 -0.3364
   7023SM   C15 9074   4.888   1.372   7.630 -0.1554 -0.6321  0.6604
   7023SM  H15A 9075   4.851   1.472   7.648 -0.7580  0.1315 -3.6643
   7023SM  H15B 9076   4.964   1.382   7.554  1.5584  2.0553  2.5553
   7023SM  H15C 9077   4.945   1.330   7.711  0.7922 -0.7840 -0.0725
   7023SM   C14 9078   4.839   1.140   7.583 -0.0084 -0.1720 -0.5543
   7023SM  H14A 9079   4.876   1.103   7.678  0.6705 -0.1908 -0.8199
   7023SM  H14B 9080   4.926   1.140   7.520 -0.4060  1.5577 -1.1778
   7023SM  H14C 9081   4.761   1.071   7.555 -0.5721  0.3194 -0.2366
   7023SM   C13 9082   4.664   1.285   7.675 -0.3960 -0.0547  0.0198
   7023SM  H13A 9083   4.584   1.219   7.646  2.2315 -3.2476 -0.4813
   7023SM  H13B 9084   4.630   1.388   7.676 -0.6406 -0.1260 -0.5754
   7023SM  H13C 9085   4.687   1.268   7.779 -1.7743 -0.1440  0.3338
   7023SM   C12 9086   4.728   1.325   7.439 -0.2399 -0.9161  0.3256
   7023SM  H12A 9087   4.664   1.411   7.444  0.6884 -0.2486  0.8843
   7023SM  H12B 9088   4.657   1.250   7.406 -0.7616  0.2339 -1.2832
   7023SM   C11 9089   4.843   1.342   7.324 -0.2131 -0.1610 -0.2486
   7023SM  H11A 9090   4.789   1.370   7.231 -0.4570  0.3341  0.0397
   7023SM  H11B 9091   4.895   1.245   7.313 -0.7030 -0.6875  1.6466
   7023SM     P 9092   4.921   1.589   7.331 -0.2692  0.1517  0.3357
   7023SM   O13 9093   4.778   1.628   7.343  0.4757 -0.2305  0.1588
   7023SM   O14 9094   5.012   1.672   7.409 -0.2095  0.2490  0.3042
   7023SM   O11 9095   4.964   1.599   7.177  0.1421 -0.3783 -0.0298
   7023SM   O12 9096   4.935   1.441   7.364  0.0699  0.4497 -0.2973
   7023SM   C1S 9097   4.929   1.511   7.063  0.1304 -0.0772 -0.2871
   7023SM   H1S 9098   4.818   1.500   7.056 -0.1488  1.4415  1.1372
   7023SM   H1T 9099   4.975   1.412   7.082 -0.1707  0.2584  2.6492
   7023SM    NF 9100   4.926   1.505   6.802  0.6033  0.1412  0.1382
   7023SM   HNF 9101   4.983   1.427   6.780 -0.3285 -0.3722 -0.5397
   7023SM   C2S 9102   4.973   1.574   6.922 -0.3557  0.0106 -0.1743
   7023SM   H2S 9103   4.935   1.678   6.920  1.7468  0.8572  1.2976
   7023SM   C3S 9104   5.128   1.587   6.935  0.1413  0.2765  0.9792
   7023SM   H3S 9105   5.164   1.484   6.956  1.0561  0.3262 -0.2154
   7023SM    O3 9106   5.176   1.669   7.038  0.0817 -0.0457 -0.1542
   7023SM   HO3 9107   5.099   1.665   7.095 -0.5348 -1.5353 -1.0224
   7023SM   C4S 9108   5.181   1.630   6.803 -0.5802 -0.2956  0.0435
   7023SM   H4S 9109   5.256   1.565   6.756 -0.2095 -0.2762  0.5897
   7023SM   C5S 9110   5.157   1.748   6.750 -0.1026  0.3197  0.4208
   7023SM   H5S 9111   5.094   1.828   6.791  0.7515  1.6778 -0.8003
   7023SM   C6S 9112   5.206   1.792   6.612 -0.5583  0.1672 -0.3582
   7023SM   H6S 9113   5.272   1.878   6.640  0.4879 -0.8070  0.2893
   7023SM   H6T 9114   5.122   1.829   6.551 -1.5291 -1.3934 -0.0182
   7023SM   C7S 9115   5.289   1.686   6.524  0.5339 -0.2175 -0.1431
   7023SM   H7S 9116   5.225   1.598   6.503  0.0759  0.4478 -1.7461
   7023SM   H7T 9117   5.375   1.636   6.573 -0.1418  0.1364  1.4361
   7023SM   C8S 9118   5.347   1.745   6.387 -0.1713 -0.0787  0.2109
   7023SM   H8S 9119   5.442   1.799   6.405  0.6109 -0.5255 -2.2719
   7023SM   H8T 9120   5.270   1.816   6.348  1.1901  1.5377  0.3374
   7023SM   C9S 9121   5.364   1.647   6.268 -0.0444  0.5708 -0.1241
   7023SM   H9S 9122   5.275   1.581   6.262 -1.5646  2.5957 -0.6991
   7023SM   H9T 9123   5.459   1.591   6.286  1.2166  1.7445 -2.6893
   7023SM  C10S 9124   5.365   1.726   6.136  0.0596 -0.1481  0.0303
   7023SM  H10S 9125   5.276   1.790   6.118  0.5871  0.4346 -0.5937
   7023SM  H10T 9126   5.363   1.653   6.052  2.3543 -0.2492 -0.0043
   7023SM  C11S 9127   5.486   1.820   6.112  0.3377  0.5896  0.6050
   7023SM  H11S 9128   5.576   1.756   6.121 -1.6081 -2.1396  2.5030
   7023SM  H11T 9129   5.484   1.897   6.193  1.9020  0.3057  0.9352
   7023SM  C12S 9130   5.476   1.909   5.980 -0.6379 -0.6697  0.0311
   7023SM  H12S 9131   5.385   1.972   5.974 -0.6348 -0.7720 -1.1493
   7023SM  H12T 9132   5.468   1.845   5.890  2.6499  0.1590 -0.9643
   7023SM  C13S 9133   5.592   2.003   5.964  0.4252  0.2458 -0.3904
   7023SM  H13S 9134   5.685   1.943   5.970  0.6920  0.6879 -0.0605
   7023SM  H13T 9135   5.604   2.062   6.058  3.4443 -1.7469  0.6323
   7023SM  C14S 9136   5.594   2.088   5.833  0.2362  0.4851 -0.4782
   7023SM  H14S 9137   5.494   2.137   5.837 -0.0788 -0.1884  0.0699
   7023SM  H14T 9138   5.594   2.023   5.743  0.7523  0.1520 -0.2410
   7023SM  C15S 9139   5.698   2.200   5.822  0.0977  0.1240 -0.3577
   7023SM  H15S 9140   5.801   2.159   5.810  0.5190  0.9147  0.3953
   7023SM  H15T 9141   5.693   2.263   5.913 -0.2374 -0.4612  0.0281
   7023SM  C16S 9142   5.683   2.297   5.701  0.1201  0.3301 -0.1914
   7023SM  H16S 9143   5.661   2.241   5.607 -0.4617 -1.2309  0.8378
   7023SM  H16T 9144   5.775   2.356   5.683  1.5646 -0.9838  2.3443
   7023SM  C17S 9145   5.559   2.395   5.712 -0.4486  0.3919 -0.0008
   7023SM  H17S 9146   5.551   2.448   5.809 -0.7952 -0.9316  0.7262
   7023SM  H17T 9147   5.472   2.327   5.702  0.1627 -0.3828 -0.2458
   7023SM  C18S 9148   5.569   2.509   5.607  1.2173  0.3397 -0.3253
   7023SM  H18S 9149   5.666   2.562   5.616  0.7914  1.5357 -2.3434
   7023SM  H18T 9150   5.480   2.576   5.610  1.8804  1.2390 -0.3502
   7023SM  H18U 9151   5.567   2.456   5.510  0.7602  0.6423 -0.4883
   7023SM   C1F 9152   4.791   1.499   6.775 -0.4757 -0.1146  0.0840
   7023SM    OF 9153   4.711   1.566   6.834 -0.5456 -0.0557 -0.5947
   7023SM   C2F 9154   4.757   1.402   6.667 -0.1749 -0.1645 -0.5775
   7023SM   H2F 9155   4.654   1.372   6.695  0.2069  1.7121  3.6494
   7023SM   H2G 9156   4.823   1.314   6.678  1.3790  0.9560 -0.5363
   7023SM   C3F 9157   4.781   1.467   6.534  0.5614 -0.2169 -0.1194
   7023SM   H3F 9158   4.726   1.563   6.533  0.9965  0.0732  1.1145
   7023SM   H3G 9159   4.738   1.396   6.460 -0.3818 -0.0388  0.2526
   7023SM   C4F 9160   4.924   1.498   6.486  0.5246  0.2446  0.3578
   7023SM   H4F 9161   4.999   1.416   6.486  0.4841  0.1404  2.7426
   7023SM   H4G 9162   4.964   1.574   6.556  2.3985 -1.0812  0.8080
   7023SM   C5F 9163   4.916   1.550   6.342 -0.2132 -0.1088  0.5241
   7023SM   H5F 9164   4.870   1.482   6.268 -1.2084  0.1454  0.8949
   7023SM   H5G 9165   5.022   1.564   6.312 -0.3945  0.6836  0.2189
   7023SM   C6F 9166   4.844   1.690   6.321 -0.0810  0.6131 -0.9218
   7023SM   H6F 9167   4.894   1.763   6.388  1.4610  0.7211 -2.1512
   7023SM   H6G 9168   4.742   1.682   6.365  0.0494 -0.6308 -0.8172
   7023SM   C7F 9169   4.842   1.737   6.173 -0.4370  0.3541 -0.1522
   7023SM   H7F 9170   4.788   1.834   6.165 -1.3683 -0.2925 -2.5795
   7023SM   H7G 9171   4.783   1.668   6.110 -1.0556  1.8061 -1.2138
   7023SM   C8F 9172   4.986   1.735   6.112  0.2797 -0.4894 -0.0736
   7023SM   H8F 9173   5.037   1.639   6.090  2.3589  0.8499 -1.4915
   7023SM   H8G 9174   5.055   1.783   6.185  1.4694 -0.5402 -1.1250
   7023SM   C9F 9175   4.991   1.820   5.977 -0.5369 -0.0537 -1.0149
   7023SM   H9F 9176   5.097   1.840   5.950 -1.0225  2.7114 -1.1325
   7023SM   H9G 9177   4.934   1.912   6.000 -2.1390 -1.7325  2.5940
   7023SM  C10F 9178   4.922   1.756   5.861  0.1251  0.1309  0.0564
   7023SM  H10F 9179   4.912   1.834   5.783  0.8014  1.5350  1.3246
   7023SM  H10G 9180   4.821   1.718   5.885  0.0019 -0.8126 -1.7601
   7023SM  C11F 9181   4.992   1.636   5.802  0.0843 -1.2298  0.1196
   7023SM  H11F 9182   4.978   1.549   5.870 -1.5962  0.8948  2.7188
   7023SM  H11G 9183   5.100   1.659   5.790  0.4320 -3.0698 -0.4832
   7023SM  C12F 9184   4.936   1.613   5.660  0.7185  0.1052  0.1622
   7023SM  H12F 9185   4.998   1.534   5.612  2.5492  1.3500  0.3656
   7023SM  H12G 9186   4.948   1.707   5.602 -1.7374  0.2249 -0.2549
   7023SM  C13F 9187   4.794   1.567   5.661 -0.0964 -0.3488  0.3279
   7023SM  H13F 9188   4.725   1.640   5.709 -0.2375 -0.3299  0.0959
   7023SM  H13G 9189   4.788   1.474   5.722  0.6551  0.9075  2.4244
   7023SM  C14F 9190   4.750   1.525   5.522  0.0155 -0.2174  0.5895
   7023SM  H14F 9191   4.791   1.429   5.484 -2.9060 -0.3369 -2.7353
   7023SM  H14G 9192   4.794   1.600   5.453 -0.0194 -1.7504 -1.1584
   7023SM  C15F 9193   4.595   1.516   5.514  0.1731  0.2027  0.4955
   7023SM  H15F 9194   4.553   1.612   5.553 -0.7369 -0.3193  0.8314
   7023SM  H15G 9195   4.563   1.432   5.580  2.9453 -0.7619  0.7359
   7023SM  C16F 9196   4.539   1.502   5.375 -0.4874  0.7116  0.7714
   7023SM  H16F 9197   4.428   1.500   5.379 -0.4786 -0.4280  0.8295
   7023SM  H16G 9198   4.570   1.399   5.348 -0.2145  0.9433  0.1939
   7023SM  C17F 9199   4.595   1.606   5.269 -0.2317  0.2032 -0.4719
   7023SM  H17F 9200   4.704   1.585   5.270 -0.6948 -2.7140  1.2124
   7023SM  H17G 9201   4.567   1.704   5.314  0.3830  0.6433 -1.0316
   7023SM  C18F 9202   4.525   1.610   5.131  0.6156 -0.9218  0.1640
   7023SM  H18F 9203   4.417   1.588   5.144  0.4332 -0.1824 -0.0879
   7023SM  H18G 9204   4.567   1.519   5.083  2.2074  0.5114 -1.3199
   7023SM  C19F 9205   4.558   1.724   5.038 -0.3545  0.5152 -0.0321
   7023SM  H19F 9206   4.669   1.731   5.046 -0.5228  4.3696  0.5147
   7023SM  H19G 9207   4.529   1.824   5.076  0.7333  0.4785  0.9662
   7023SM  C20F 9208   4.515   1.697   4.891 -0.4191 -0.4859  0.5920
   7023SM  H20F 9209   4.507   1.790   4.831 -2.9518 -2.2191 -2.0021
   7023SM  H20G 9210   4.407   1.672   4.903 -0.8892  0.1977 -1.7475
   7023SM  C21F 9211   4.591   1.588   4.811 -0.2579 -0.0415  0.7961
   7023SM  H21F 9212   4.587   1.489   4.861 -0.3812 -0.4983 -0.1045
   7023SM  H21G 9213   4.699   1.612   4.798 -0.7050  1.0633 -1.5349
   7023SM  C22F 9214   4.522   1.579   4.669 -0.6813  0.5705  0.3982
   7023SM  H22F 9215   4.534   1.678   4.619  0.4746  0.1510 -0.1804
   7023SM  H22G 9216   4.418   1.548   4.691 -0.6132 -0.1601 -0.2703
   7023SM  C23F 9217   4.578   1.480   4.562  0.1744 -0.0231 -0.2986
   7023SM  H23F 9218   4.605   1.385   4.612 -0.6001  0.2940  0.7549
   7023SM  H23G 9219   4.674   1.521   4.523 -0.6628  0.8660 -1.4823
   7023SM  H23H 9220   4.503   1.461   4.483 -1.0810  0.0591  0.8366
   7123SM     N 9221   4.797   0.066   7.464  0.3408 -0.1163  0.3196
   7123SM   C15 9222   4.863   0.136   7.576 -0.3570 -0.0337 -0.5536
   7123SM  H15A 9223   4.971   0.138   7.575 -0.3231 -0.3156  0.5807
   7123SM  H15B 9224   4.838   0.099   7.674  0.2009  0.9672 -0.0117
   7123SM  H15C 9225   4.823   0.236   7.569  0.2838  0.4191  1.4479
   7123SM   C14 9226   4.804  -0.085   7.478 -0.7142 -0.1091 -0.2984
   7123SM  H14A 9227   4.791  -0.142   7.387 -1.5628  1.6692 -1.3378
   7123SM  H14B 9228   4.734  -0.123   7.550 -0.3668  0.3012  0.2636
   7123SM  H14C 9229   4.901  -0.111   7.518 -0.8605 -1.1468 -0.5778
   7123SM   C13 9230   4.646   0.102   7.469 -0.3701 -0.4251  0.1854
   7123SM  H13A 9231   4.613   0.088   7.366 -0.0122 -1.6032  0.2184
   7123SM  H13B 9232   4.615   0.202   7.497 -3.4413 -1.0988 -0.3907
   7123SM  H13C 9233   4.594   0.031   7.531 -1.7722 -1.8584 -2.4098
   7123SM   C12 9234   4.856   0.115   7.330 -0.5225  0.3217  0.4539
   7123SM  H12A 9235   4.964   0.108   7.330 -0.2020  2.7532 -3.2336
   7123SM  H12B 9236   4.836   0.221   7.332  0.8453  0.6282 -0.5709
   7123SM   C11 9237   4.801   0.057   7.195 -0.3305  0.7282 -0.0650
   7123SM  H11A 9238   4.825  -0.051   7.198 -1.0216  0.6000  2.5637
   7123SM  H11B 9239   4.857   0.112   7.116  0.5612  3.0706  2.0460
   7123SM     P 9240   4.605   0.206   7.097  0.2957 -0.3103  0.4413
   7123SM   O13 9241   4.458   0.189   7.066 -0.4613 -0.5029 -0.0116
   7123SM   O14 9242   4.650   0.337   7.155  0.1928  0.4634 -0.0629
   7123SM   O11 9243   4.675   0.192   6.956  0.1672  0.0110  0.2364
   7123SM   O12 9244   4.663   0.088   7.186  0.4030 -0.0104 -0.0515
   7123SM   C1S 9245   4.664   0.073   6.880 -0.1669 -0.4636  0.5452
   7123SM   H1S 9246   4.557   0.056   6.855  0.3703 -4.1024  0.0555
   7123SM   H1T 9247   4.697  -0.019   6.933 -0.5925 -0.8627  0.1238
   7123SM    NF 9248   4.713  -0.059   6.668  0.4983  0.2652  0.4551
   7123SM   HNF 9249   4.791  -0.118   6.649 -0.4028 -0.9174  0.2937
   7123SM   C2S 9250   4.738   0.067   6.741 -0.3080 -0.3107  0.5408
   7123SM   H2S 9251   4.700   0.142   6.668 -1.1294 -1.3576 -0.1174
   7123SM   C3S 9252   4.893   0.099   6.768 -0.0877 -0.3649  0.8017
   7123SM   H3S 9253   4.914   0.009   6.830  0.6171  0.0652  1.2018
   7123SM    O3 9254   4.914   0.214   6.858  0.5111 -0.0743  0.4582
   7123SM   HO3 9255   4.823   0.230   6.884  0.4320  0.2078  0.0203
   7123SM   C4S 9256   4.974   0.105   6.641  0.0277 -0.7267  0.0170
   7123SM   H4S 9257   5.016   0.009   6.607  2.2750  0.4092 -0.6110
   7123SM   C5S 9258   4.997   0.219   6.570 -0.0214 -0.0301  0.4115
   7123SM   H5S 9259   4.942   0.308   6.604  0.2865 -0.1571  1.2681
   7123SM   C6S 9260   5.073   0.224   6.444  0.6375  0.0806 -0.3214
   7123SM   H6S 9261   5.144   0.139   6.442 -0.3176 -0.7310 -0.4448
   7123SM   H6T 9262   5.139   0.313   6.439  0.6288  0.2129  1.2654
   7123SM   C7S 9263   4.980   0.235   6.326  0.0140 -0.6168 -0.0329
   7123SM   H7S 9264   5.045   0.232   6.236 -0.3579 -1.6229 -0.2767
   7123SM   H7T 9265   4.926   0.332   6.330  2.2733  0.6659  2.3183
   7123SM   C8S 9266   4.892   0.115   6.303  0.5758 -1.0069 -0.4060
   7123SM   H8S 9267   4.822   0.133   6.218  0.2108  1.6255  0.3343
   7123SM   H8T 9268   4.823   0.105   6.390 -0.1207 -1.4301 -0.9968
   7123SM   C9S 9269   4.968  -0.021   6.298 -0.4132 -0.0728  0.0021
   7123SM   H9S 9270   5.036  -0.034   6.385 -2.0538 -1.2069  1.1639
   7123SM   H9T 9271   5.043  -0.020   6.215  0.2293 -1.4052  0.5333
   7123SM  C10S 9272   4.884  -0.149   6.288 -0.0018  0.0866  0.2680
   7123SM  H10S 9273   4.785  -0.132   6.336 -1.3654  1.2958 -2.6861
   7123SM  H10T 9274   4.938  -0.231   6.339  0.0093 -1.6818 -2.3931
   7123SM  C11S 9275   4.864  -0.200   6.149  0.0329 -0.1655 -0.0607
   7123SM  H11S 9276   4.833  -0.307   6.151  0.7053 -0.3588  0.1198
   7123SM  H11T 9277   4.952  -0.184   6.084 -0.2297  2.1281  0.0732
   7123SM  C12S 9278   4.742  -0.136   6.076  0.0557  0.1017 -1.0477
   7123SM  H12S 9279   4.761  -0.028   6.059  1.6126  0.0373  0.0833
   7123SM  H12T 9280   4.657  -0.134   6.147 -0.7110 -1.8708 -1.8313
   7123SM  C13S 9281   4.712  -0.194   5.945  0.5354 -0.0852  0.6117
   7123SM  H13S 9282   4.806  -0.187   5.885  0.6577  0.0870  0.8215
   7123SM  H13T 9283   4.630  -0.144   5.890  0.3178 -1.7956 -0.6979
   7123SM  C14S 9284   4.675  -0.345   5.940  0.3540  0.5472  0.0401
   7123SM  H14S 9285   4.575  -0.353   5.988  0.1028  3.1364  0.0831
   7123SM  H14T 9286   4.755  -0.403   5.990 -1.0443 -2.0812 -0.5695
   7123SM  C15S 9287   4.675  -0.400   5.789 -0.2109 -0.1309 -0.1048
   7123SM  H15S 9288   4.772  -0.400   5.735  0.2395 -0.0788  0.6779
   7123SM  H15T 9289   4.621  -0.321   5.733  1.1926  0.3431 -0.8204
   7123SM  C16S 9290   4.610  -0.533   5.779  0.4442  0.0467  0.2779
   7123SM  H16S 9291   4.587  -0.545   5.671  2.5446  1.8677 -0.4381
   7123SM  H16T 9292   4.504  -0.528   5.814  0.1370 -2.0259 -0.2166
   7123SM  C17S 9293   4.682  -0.654   5.832  0.0585  0.0584 -0.8774
   7123SM  H17S 9294   4.692  -0.642   5.942  2.1873  0.2403 -1.0468
   7123SM  H17T 9295   4.784  -0.654   5.787  0.5911  2.4225  0.2156
   7123SM  C18S 9296   4.624  -0.791   5.819  0.1026  0.1924 -0.4824
   7123SM  H18S 9297   4.692  -0.864   5.868 -0.4324  1.2159  1.9339
   7123SM  H18T 9298   4.614  -0.826   5.714  2.5877 -1.9237 -0.1190
   7123SM  H18U 9299   4.522  -0.788   5.864 -0.6942  2.6536 -2.2432
   7123SM   C1F 9300   4.593  -0.095   6.627 -0.1694  0.1123  0.5243
   7123SM    OF 9301   4.492  -0.040   6.658  0.1851  0.2997  0.1167
   7123SM   C2F 9302   4.588  -0.221   6.550 -0.5972 -0.5710  0.2656
   7123SM   H2F 9303   4.536  -0.302   6.607 -1.9579 -0.0796 -0.2288
   7123SM   H2G 9304   4.692  -0.254   6.534 -0.4272  0.2630 -0.4155
   7123SM   C3F 9305   4.497  -0.213   6.431  1.0034  0.3077 -0.1302
   7123SM   H3F 9306   4.527  -0.123   6.373  2.2509  0.3456  0.5451
   7123SM   H3G 9307   4.389  -0.214   6.459  1.2114  0.5014  0.6975
   7123SM   C4F 9308   4.514  -0.334   6.341  0.5428  0.4730  0.0810
   7123SM   H4F 9309   4.620  -0.363   6.325  0.2346 -1.3906  1.1158
   7123SM   H4G 9310   4.478  -0.301   6.242 -1.2497  3.6787  1.6443
   7123SM   C5F 9311   4.436  -0.462   6.377  0.7093  0.8768 -0.6923
   7123SM   H5F 9312   4.327  -0.443   6.366  0.5680  1.4800  1.2981
   7123SM   H5G 9313   4.460  -0.494   6.481  0.9715  1.8847 -0.4335
   7123SM   C6F 9314   4.464  -0.583   6.285  0.1631  0.4698 -0.2676
   7123SM   H6F 9315   4.575  -0.580   6.293  0.5194  2.1095 -3.6498
   7123SM   H6G 9316   4.437  -0.556   6.180  0.2628  0.3786 -0.3180
   7123SM   C7F 9317   4.407  -0.716   6.331 -0.2884  0.2444  0.1012
   7123SM   H7F 9318   4.300  -0.711   6.361 -0.0764  1.2621  0.7179
   7123SM   H7G 9319   4.464  -0.736   6.424  0.5775 -0.3609 -0.5413
   7123SM   C8F 9320   4.437  -0.836   6.231  0.3336 -0.4304 -0.0406
   7123SM   H8F 9321   4.385  -0.822   6.134  2.1845 -1.6144 -1.2706
   7123SM   H8G 9322   4.387  -0.925   6.275  1.2149 -0.4643  0.9553
   7123SM   C9F 9323   4.587  -0.860   6.208  0.2019  0.3094  0.0709
   7123SM   H9F 9324   4.636  -0.766   6.175  0.7324 -0.4318 -1.3040
   7123SM   H9G 9325   4.597  -0.927   6.120  1.2198  1.1522 -0.4779
   7123SM  C10F 9326   4.673  -0.920   6.329  0.1151  0.4581  0.6002
   7123SM  H10F 9327   4.672  -0.842   6.408  1.0357  3.2910 -1.9944
   7123SM  H10G 9328   4.781  -0.929   6.305 -0.1465  1.7333 -1.2956
   7123SM  C11F 9329   4.638  -1.066   6.378 -0.4838 -0.4835  0.1714
   7123SM  H11F 9330   4.536  -1.067   6.423 -0.7251  0.9838 -0.2776
   7123SM  H11G 9331   4.699  -1.084   6.469  1.8336  2.4294 -0.6444
   7123SM  C12F 9332   4.651  -1.181   6.276  0.1345 -0.0638  0.5365
   7123SM  H12F 9333   4.579  -1.169   6.193 -1.3726  5.1022  2.1837
   7123SM  H12G 9334   4.623  -1.274   6.330 -1.1328  0.4281  0.7457
   7123SM  C13F 9335   4.795  -1.210   6.233  0.2998  0.2027  0.6547
   7123SM  H13F 9336   4.852  -1.229   6.326 -1.0367  0.7445  1.6129
   7123SM  H13G 9337   4.840  -1.121   6.183  1.3687 -0.7567 -0.1299
   7123SM  C14F 9338   4.820  -1.347   6.164 -0.5295  0.7614 -0.3887
   7123SM  H14F 9339   4.759  -1.358   6.071 -2.0204 -2.0030  0.7971
   7123SM  H14G 9340   4.779  -1.430   6.224  1.1120 -0.5680 -1.0285
   7123SM  C15F 9341   4.969  -1.373   6.137  0.4709  0.8894  0.0001
   7123SM  H15F 9342   5.026  -1.327   6.220 -0.7259  2.0219  0.2229
   7123SM  H15G 9343   4.983  -1.319   6.041 -0.7948  0.2373 -0.5703
   7123SM  C16F 9344   5.010  -1.524   6.126 -0.2028 -0.7397 -0.2151
   7123SM  H16F 9345   4.965  -1.562   6.031 -1.6928  0.6643 -0.1141
   7123SM  H16G 9346   4.972  -1.580   6.214 -0.8162 -0.1591 -0.1054
   7123SM  C17F 9347   5.167  -1.531   6.108  0.2954  0.7416  0.5941
   7123SM  H17F 9348   5.206  -1.501   6.208 -0.4877 -1.1075  1.4942
   7123SM  H17G 9349   5.204  -1.463   6.028  1.4777 -2.3096 -1.6447
   7123SM  C18F 9350   5.203  -1.673   6.070  0.1337 -0.3789 -0.3917
   7123SM  H18F 9351   5.163  -1.704   5.971  1.8249 -2.6822 -0.4370
   7123SM  H18G 9352   5.160  -1.740   6.148  1.3390  1.0532  1.5812
   7123SM  C19F 9353   5.356  -1.708   6.065 -0.0270 -0.4457  0.9596
   7123SM  H19F 9354   5.349  -1.811   6.023 -0.4205  0.4797 -1.4451
   7123SM  H19G 9355   5.410  -1.708   6.162 -0.3935 -2.9835  1.2161
   7123SM  C20F 9356   5.449  -1.630   5.966 -0.2007  0.4083  0.0707
   7123SM  H20F 9357   5.403  -1.597   5.870 -1.8142  0.3615  0.7993
   7123SM  H20G 9358   5.533  -1.692   5.929 -2.0821 -0.7585 -2.5731
   7123SM  C21F 9359   5.514  -1.499   6.025 -0.5893 -0.6156  0.2844
   7123SM  H21F 9360   5.569  -1.503   6.122  1.8919 -0.7047 -1.0364
   7123SM  H21G 9361   5.434  -1.422   6.027  0.4613  0.5815 -1.2513
   7123SM  C22F 9362   5.630  -1.445   5.937  0.7695  0.0955 -0.5296
   7123SM  H22F 9363   5.589  -1.464   5.835  0.9821 -2.8513 -0.1497
   7123SM  H22G 9364   5.719  -1.510   5.950 -1.7018 -3.2064  1.3908
   7123SM  C23F 9365   5.650  -1.297   5.965  0.0578  0.7548  0.4360
   7123SM  H23F 9366   5.670  -1.274   6.072  1.1219 -1.8577  0.8774
   7123SM  H23G 9367   5.557  -1.250   5.927 -0.1753  0.4230  0.5944
   7123SM  H23H 9368   5.739  -1.266   5.907  0.5171 -0.9354  0.2101
   7223SM     N 9369   6.926   3.862   7.365 -0.1547 -0.2320 -0.1879
   7223SM   C15 9370   6.958   4.012   7.367  0.5655 -0.2893  0.1875
   7223SM  H15A 9371   7.017   4.028   7.455  0.2830  0.9959  0.1574
   7223SM  H15B 9372   6.871   4.075   7.365 -0.9150 -2.2405 -1.7531
   7223SM  H15C 9373   7.023   4.039   7.285  1.1964 -2.4681 -0.1023
   7223SM   C14 9374   7.046   3.781   7.412  0.0749 -0.0863  0.1049
   7223SM  H14A 9375   7.082   3.823   7.504  1.1526  0.8339 -0.7202
   7223SM  H14B 9376   7.121   3.794   7.336  0.1047  0.7684  0.2693
   7223SM  H14C 9377   7.012   3.679   7.423  0.5866 -0.3613 -0.7767
   7223SM   C13 9378   6.818   3.839   7.466  0.1533 -0.3845 -0.6678
   7223SM  H13A 9379   6.818   3.919   7.538 -2.1794 -1.8406  1.0584
   7223SM  H13B 9380   6.843   3.748   7.518 -1.9057 -1.2581 -1.1169
   7223SM  H13C 9381   6.724   3.833   7.414  0.5021 -3.3482 -1.1166
   7223SM   C12 9382   6.885   3.824   7.233  0.1765 -0.6868  0.2189
   7223SM  H12A 9383   6.883   3.716   7.230  2.1155 -0.8213  1.6486
   7223SM  H12B 9384   6.963   3.840   7.160  0.2264  1.2115  0.6378
   7223SM   C11 9385   6.752   3.877   7.176 -0.0578  0.4241  0.0278
   7223SM  H11A 9386   6.750   3.873   7.065 -0.8799 -0.6092  0.0629
   7223SM  H11B 9387   6.743   3.987   7.190 -1.4687  0.3737 -0.3151
   7223SM     P 9388   6.500   3.840   7.205 -0.1041 -0.1139 -0.1074
   7223SM   O13 9389   6.431   3.721   7.250  0.2709  0.1205 -0.1522
   7223SM   O14 9390   6.454   3.970   7.259  0.3093 -0.0089 -0.1877
   7223SM   O11 9391   6.476   3.849   7.046  0.4868  0.0495  0.0266
   7223SM   O12 9392   6.648   3.804   7.239 -0.0960 -0.1395 -0.1368
   7223SM   C1S 9393   6.512   3.747   6.953 -0.0217 -0.2959  0.3157
   7223SM   H1S 9394   6.430   3.672   6.947 -1.4222  1.1198  1.2429
   7223SM   H1T 9395   6.597   3.685   6.990 -0.9994 -3.1310 -1.7731
   7223SM    NF 9396   6.574   3.675   6.733 -0.0079 -0.3588  0.3254
   7223SM   HNF 9397   6.665   3.676   6.693 -0.5258 -0.2537 -0.9004
   7223SM   C2S 9398   6.537   3.797   6.807  0.0065  0.5581 -0.0447
   7223SM   H2S 9399   6.438   3.832   6.769 -0.5366 -0.7956  0.0749
   7223SM   C3S 9400   6.642   3.904   6.808 -0.3459  0.1539  0.0410
   7223SM   H3S 9401   6.736   3.861   6.850 -0.0273  0.2441 -0.5580
   7223SM    O3 9402   6.621   4.021   6.893 -0.2447 -0.4423  0.0376
   7223SM   HO3 9403   6.540   4.004   6.943  0.2695 -0.2447  0.9712
   7223SM   C4S 9404   6.675   3.942   6.668 -0.0695 -0.2702  0.2957
   7223SM   H4S 9405   6.585   3.936   6.605 -1.6374  2.4202  2.0268
   7223SM   C5S 9406   6.804   3.959   6.623  0.5018  0.2832 -0.1398
   7223SM   H5S 9407   6.888   3.929   6.687  0.4891 -0.3844 -0.4349
   7223SM   C6S 9408   6.845   3.995   6.480  0.2449  0.5322 -0.7282
   7223SM   H6S 9409   6.765   3.969   6.408 -0.4363 -0.9319  0.5171
   7223SM   H6T 9410   6.934   3.939   6.445  1.7031  2.3264 -0.0317
   7223SM   C7S 9411   6.867   4.145   6.447 -0.2262 -0.3218 -0.0260
   7223SM   H7S 9412   6.968   4.176   6.483  0.0189 -1.6280  0.4523
   7223SM   H7T 9413   6.797   4.210   6.504  0.5547  0.7245 -0.2248
   7223SM   C8S 9414   6.852   4.176   6.290  0.6234  0.6511  0.2559
   7223SM   H8S 9415   6.880   4.283   6.280  2.1916  0.2557  0.1241
   7223SM   H8T 9416   6.746   4.156   6.266 -0.2205  2.5778  2.0658
   7223SM   C9S 9417   6.934   4.095   6.193 -0.6388  0.4662  0.3973
   7223SM   H9S 9418   6.892   3.993   6.182  3.7163 -1.3190 -2.3004
   7223SM   H9T 9419   7.040   4.084   6.224 -0.4321  0.3796 -0.3076
   7223SM  C10S 9420   6.942   4.173   6.049 -0.5128  0.0937 -0.9228
   7223SM  H10S 9421   6.969   4.277   6.078  0.0340 -0.0416 -0.9354
   7223SM  H10T 9422   6.835   4.163   6.021 -0.4331  1.0439 -1.6076
   7223SM  C11S 9423   7.044   4.118   5.946  0.3628 -0.7799  0.9683
   7223SM  H11S 9424   7.062   4.009   5.964 -0.5604 -1.3546 -1.2255
   7223SM  H11T 9425   7.141   4.170   5.963 -0.3324  0.4094  1.3639
   7223SM  C12S 9426   6.992   4.140   5.796 -0.3381 -0.3323  0.7379
   7223SM  H12S 9427   6.983   4.250   5.782  3.4291 -0.1078 -1.4465
   7223SM  H12T 9428   6.892   4.094   5.792 -0.9107  0.9164 -3.4663
   7223SM  C13S 9429   7.096   4.076   5.695 -0.6262 -0.1300 -0.1030
   7223SM  H13S 9430   7.139   3.982   5.735  2.9962  1.6711  0.7574
   7223SM  H13T 9431   7.183   4.145   5.704 -2.6006  2.2132  4.0796
   7223SM  C14S 9432   7.032   4.062   5.557 -0.3408  0.0825 -0.7548
   7223SM  H14S 9433   6.991   4.154   5.511  0.7035  0.5596 -0.7709
   7223SM  H14T 9434   6.931   4.018   5.565 -0.2594 -0.7924 -3.3885
   7223SM  C15S 9435   7.110   3.977   5.457  0.0052  0.1873  0.8763
   7223SM  H15S 9436   7.138   3.876   5.495 -0.7028 -0.7002 -0.8373
   7223SM  H15T 9437   7.204   4.028   5.427 -0.4219  0.6862  0.3584
   7223SM  C16S 9438   7.016   3.949   5.331  0.6274  0.4105  0.3734
   7223SM  H16S 9439   6.996   4.050   5.290 -0.2978  0.2551  0.4206
   7223SM  H16T 9440   6.922   3.907   5.374  1.7195 -2.5548  0.0823
   7223SM  C17S 9441   7.085   3.864   5.225 -0.5456 -0.1546 -0.3453
   7223SM  H17S 9442   7.037   3.882   5.126 -0.0898  0.0504 -0.5274
   7223SM  H17T 9443   7.087   3.755   5.248 -1.2132  0.1275  1.1842
   7223SM  C18S 9444   7.226   3.912   5.179 -1.0850 -0.0650 -0.2638
   7223SM  H18S 9445   7.235   4.023   5.179  0.2993 -0.1571  0.5975
   7223SM  H18T 9446   7.259   3.877   5.079  0.4648  2.1667 -0.5909
   7223SM  H18U 9447   7.301   3.879   5.253  1.2189  1.1022 -1.9639
   7223SM   C1F 9448   6.485   3.581   6.700  0.3744  0.2333  0.0621
   7223SM    OF 9449   6.364   3.588   6.724 -0.1225  0.3041  0.0180
   7223SM   C2F 9450   6.535   3.471   6.616  0.3212 -0.0384  0.6959
   7223SM   H2F 9451   6.501   3.385   6.678  0.6743  0.4384  1.5717
   7223SM   H2G 9452   6.646   3.472   6.617  0.3380 -0.8025  0.4525
   7223SM   C3F 9453   6.466   3.465   6.479  0.7015 -0.6660  0.0509
   7223SM   H3F 9454   6.460   3.563   6.427  1.0114 -0.2267  0.8299
   7223SM   H3G 9455   6.360   3.437   6.501  0.4504 -0.0681 -0.3726
   7223SM   C4F 9456   6.521   3.363   6.376  0.8860  0.6013 -0.1696
   7223SM   H4F 9457   6.515   3.256   6.406 -1.8925 -0.2330 -3.1466
   7223SM   H4G 9458   6.624   3.401   6.359  0.6781  1.1626 -0.1807
   7223SM   C5F 9459   6.438   3.356   6.246 -0.6011  0.2908 -0.0164
   7223SM   H5F 9460   6.337   3.319   6.272 -0.4325 -1.3208 -1.4313
   7223SM   H5G 9461   6.478   3.283   6.172 -0.9669  1.9563 -1.9549
   7223SM   C6F 9462   6.419   3.484   6.173 -0.1770 -0.3551  0.0324
   7223SM   H6F 9463   6.515   3.539   6.164  0.0970 -0.5413  1.5047
   7223SM   H6G 9464   6.341   3.546   6.223 -1.9908 -1.5421 -1.2154
   7223SM   C7F 9465   6.357   3.462   6.034  0.1119  0.2545 -0.7446
   7223SM   H7F 9466   6.325   3.557   5.985 -1.3889 -0.6434 -1.5817
   7223SM   H7G 9467   6.265   3.402   6.045 -0.0887  0.7744  0.4682
   7223SM   C8F 9468   6.455   3.403   5.925  0.2491 -0.1482  0.2596
   7223SM   H8F 9469   6.509   3.311   5.955 -2.4989 -2.2441 -0.7797
   7223SM   H8G 9470   6.536   3.476   5.903  1.3766 -0.4613  3.0067
   7223SM   C9F 9471   6.383   3.372   5.799 -0.0863  0.5626  0.1639
   7223SM   H9F 9472   6.336   3.466   5.762 -0.3674  1.6576  3.0372
   7223SM   H9G 9473   6.295   3.306   5.812  0.2770 -0.0334 -0.4155
   7223SM  C10F 9474   6.463   3.311   5.688 -0.2192 -0.0290  0.5228
   7223SM  H10F 9475   6.479   3.204   5.712 -0.9811  0.0804  1.6263
   7223SM  H10G 9476   6.561   3.363   5.683 -0.6525  0.9056  1.3363
   7223SM  C11F 9477   6.409   3.323   5.548  0.4536 -0.7663  0.8892
   7223SM  H11F 9478   6.401   3.431   5.523 -0.1096 -1.2792 -1.4181
   7223SM  H11G 9479   6.307   3.277   5.546  0.2348 -0.3009 -1.6307
   7223SM  C12F 9480   6.507   3.258   5.456  0.2609  0.2103  0.9109
   7223SM  H12F 9481   6.506   3.148   5.477  1.7080 -0.0261 -0.1330
   7223SM  H12G 9482   6.608   3.300   5.473  0.6815 -0.6285  0.5131
   7223SM  C13F 9483   6.478   3.282   5.301 -0.3453  0.1333  0.2188
   7223SM  H13F 9484   6.368   3.281   5.289 -0.2457  0.4475 -0.8330
   7223SM  H13G 9485   6.518   3.193   5.248  1.3331  0.7049  0.4783
   7223SM  C14F 9486   6.522   3.414   5.246  0.1077  0.0541  0.0894
   7223SM  H14F 9487   6.627   3.406   5.210  0.3710 -0.5624  0.9588
   7223SM  H14G 9488   6.520   3.495   5.321 -0.8436 -0.7362  0.9563
   7223SM  C15F 9489   6.429   3.445   5.127  0.1610  0.4419  0.1430
   7223SM  H15F 9490   6.458   3.548   5.098  0.7415  0.7789  1.8068
   7223SM  H15G 9491   6.323   3.455   5.156  0.0065 -0.2146 -0.1716
   7223SM  C16F 9492   6.432   3.341   5.009 -0.4777  0.2713  0.6410
   7223SM  H16F 9493   6.386   3.246   5.043 -4.4436  1.2621 -1.3510
   7223SM  H16G 9494   6.542   3.326   4.999 -0.3985  1.2951 -0.2949
   7223SM  C17F 9495   6.361   3.385   4.880 -0.2346 -0.1974  0.2856
   7223SM  H17F 9496   6.267   3.442   4.893  1.1671  3.0401 -2.3307
   7223SM  H17G 9497   6.353   3.297   4.812 -0.0548  0.5351 -0.7089
   7223SM  C18F 9498   6.466   3.483   4.816  0.0945  0.5188  0.1027
   7223SM  H18F 9499   6.557   3.425   4.789 -0.1942 -0.8389  1.8135
   7223SM  H18G 9500   6.499   3.565   4.883  0.0823  2.2717 -1.9301
   7223SM  C19F 9501   6.409   3.568   4.700  0.3483  0.2910  0.0614
   7223SM  H19F 9502   6.342   3.646   4.743  1.4110  0.7978  0.8405
   7223SM  H19G 9503   6.359   3.511   4.619  2.8565  1.6222 -2.6039
   7223SM  C20F 9504   6.530   3.633   4.622  1.1151  0.1220  0.7878
   7223SM  H20F 9505   6.582   3.544   4.579 -1.2484 -1.2097  0.5394
   7223SM  H20G 9506   6.602   3.678   4.694  1.4877  0.1491  0.4010
   7223SM  C21F 9507   6.485   3.742   4.523 -0.4275  0.3455 -0.1013
   7223SM  H21F 9508   6.428   3.808   4.593  0.2545 -1.9762  2.8582
   7223SM  H21G 9509   6.412   3.691   4.457 -2.4266  2.8957 -0.0324
   7223SM  C22F 9510   6.599   3.825   4.469 -0.1781  0.2989  0.7296
   7223SM  H22F 9511   6.657   3.869   4.553  0.9889 -1.2870  0.8158
   7223SM  H22G 9512   6.559   3.913   4.415 -0.2378 -1.7205 -2.8013
   7223SM  C23F 9513   6.695   3.759   4.366 -0.0625 -0.4224 -0.0195
   7223SM  H23F 9514   6.762   3.696   4.428 -1.0773  0.1015  1.6853
   7223SM  H23G 9515   6.758   3.838   4.318 -2.1892  0.0892 -2.1522
   7223SM  H23H 9516   6.640   3.694   4.295 -0.2194 -0.0771 -0.2162
   7323SM     N 9517   5.347   1.472   7.392  0.1366 -0.4218 -0.2957
   7323SM   C15 9518   5.318   1.599   7.298 -0.2483  0.4697  0.5561
   7323SM  H15A 9519   5.399   1.668   7.316 -0.2691  0.5919  0.1936
   7323SM  H15B 9520   5.227   1.652   7.324 -1.2137 -0.9786  0.2305
   7323SM  H15C 9521   5.317   1.573   7.193  2.0319 -0.1066  0.6137
   7323SM   C14 9522   5.486   1.426   7.360 -0.0323  0.2837 -0.6962
   7323SM  H14A 9523   5.499   1.397   7.257 -1.4466 -0.9994 -0.5560
   7323SM  H14B 9524   5.509   1.330   7.403 -1.0606 -0.1855 -1.1567
   7323SM  H14C 9525   5.559   1.493   7.404  0.6197 -1.8060  1.6328
   7323SM   C13 9526   5.352   1.506   7.536  0.4638  0.1383 -0.8731
   7323SM  H13A 9527   5.255   1.507   7.582  1.8126  0.2376  2.2006
   7323SM  H13B 9528   5.400   1.601   7.550  2.4918 -1.0752  1.0269
   7323SM  H13C 9529   5.411   1.433   7.590 -0.4010 -0.5279 -0.8012
   7323SM   C12 9530   5.243   1.370   7.376 -0.0331 -0.0695  0.7537
   7323SM  H12A 9531   5.251   1.329   7.276  0.5872 -0.2655  0.8814
   7323SM  H12B 9532   5.142   1.405   7.390 -0.1797 -0.5373  0.8925
   7323SM   C11 9533   5.249   1.248   7.469  0.2958 -0.3545 -0.3658
   7323SM  H11A 9534   5.241   1.289   7.572  0.2489  0.2955 -0.6227
   7323SM  H11B 9535   5.345   1.196   7.446  0.4269  0.7473 -2.6167
   7323SM     P 9536   5.140   1.059   7.317  0.2501 -0.0918 -0.0454
   7323SM   O13 9537   5.248   0.963   7.344  0.5514  0.5404  0.4320
   7323SM   O14 9538   5.002   1.010   7.294  0.1735 -0.4084 -0.0488
   7323SM   O11 9539   5.188   1.151   7.197 -0.1462 -0.4375 -0.0094
   7323SM   O12 9540   5.137   1.160   7.438 -0.3017 -0.1539  0.0781
   7323SM   C1S 9541   5.184   1.103   7.062  1.0589 -0.3313 -0.3692
   7323SM   H1S 9542   5.076   1.095   7.036  0.7079 -1.1547  1.2448
   7323SM   H1T 9543   5.232   1.004   7.050 -1.8712 -1.6620 -2.3354
   7323SM    NF 9544   5.232   1.142   6.828  0.4655 -0.3828 -1.0673
   7323SM   HNF 9545   5.313   1.105   6.783  2.0696  0.0604  1.3212
   7323SM   C2S 9546   5.257   1.192   6.958  0.4108  0.1257  0.3455
   7323SM   H2S 9547   5.206   1.290   6.970 -0.5169 -0.4610  1.3776
   7323SM   C3S 9548   5.405   1.203   6.985  0.1531 -0.2077 -0.1159
   7323SM   H3S 9549   5.445   1.099   6.976 -1.1915 -0.8207  0.6609
   7323SM    O3 9550   5.430   1.241   7.120 -0.3027 -0.5930  0.0901
   7323SM   HO3 9551   5.353   1.216   7.172 -0.3098  0.5135  0.6480
   7323SM   C4S 9552   5.475   1.286   6.889 -0.5716  0.2227  0.1072
   7323SM   H4S 9553   5.534   1.223   6.821 -0.2468 -2.4535  2.6512
   7323SM   C5S 9554   5.488   1.419   6.867  0.2763  0.3722  0.9644
   7323SM   H5S 9555   5.444   1.490   6.939 -0.3182 -0.8399  1.8339
   7323SM   C6S 9556   5.556   1.494   6.750 -0.1165 -0.1549  0.0469
   7323SM   H6S 9557   5.639   1.551   6.797  1.1631 -1.5788 -0.4248
   7323SM   H6T 9558   5.499   1.577   6.703  0.4191  0.3859  0.3375
   7323SM   C7S 9559   5.616   1.410   6.642 -0.4917 -0.2655 -0.0710
   7323SM   H7S 9560   5.536   1.354   6.589 -1.2595 -0.1529  0.9411
   7323SM   H7T 9561   5.692   1.343   6.687 -0.0009 -0.6716 -1.4391
   7323SM   C8S 9562   5.693   1.498   6.537 -0.9352  0.2896  0.1476
   7323SM   H8S 9563   5.772   1.560   6.586 -1.6544  1.1885  0.1970
   7323SM   H8T 9564   5.631   1.582   6.499 -1.7752  0.7707  2.4019
   7323SM   C9S 9565   5.745   1.411   6.425 -0.8337  0.2066  0.4983
   7323SM   H9S 9566   5.676   1.334   6.387  1.4622 -0.2913 -3.1586
   7323SM   H9T 9567   5.831   1.348   6.456 -0.5935 -0.4388 -1.3909
   7323SM  C10S 9568   5.780   1.498   6.299 -0.7082  0.0336 -0.3829
   7323SM  H10S 9569   5.881   1.544   6.298 -0.7318  0.1464  0.8502
   7323SM  H10T 9570   5.714   1.588   6.302 -0.7246 -0.0105  0.8455
   7323SM  C11S 9571   5.757   1.433   6.168 -1.0565 -0.1317 -0.5160
   7323SM  H11S 9572   5.653   1.395   6.161 -0.7239 -0.9870 -0.8401
   7323SM  H11T 9573   5.832   1.351   6.172  0.6325  1.3755  1.1898
   7323SM  C12S 9574   5.780   1.523   6.039 -0.5953 -0.3355  0.5736
   7323SM  H12S 9575   5.886   1.552   6.031 -0.5862  0.0779  1.8837
   7323SM  H12T 9576   5.726   1.618   6.061  1.0799  0.5056  1.2076
   7323SM  C13S 9577   5.736   1.438   5.922 -0.2054 -0.3900  0.2417
   7323SM  H13S 9578   5.627   1.421   5.925 -0.2434 -0.4461 -0.9990
   7323SM  H13T 9579   5.780   1.336   5.920 -2.7254 -1.5263 -0.0555
   7323SM  C14S 9580   5.762   1.487   5.775 -0.2128 -0.0475 -0.4346
   7323SM  H14S 9581   5.669   1.467   5.717 -2.4308  3.0708  1.7325
   7323SM  H14T 9582   5.851   1.434   5.735 -0.1059 -0.6875  0.6106
   7323SM  C15S 9583   5.785   1.635   5.759  0.1792  0.4224 -0.2155
   7323SM  H15S 9584   5.878   1.673   5.807 -0.3269 -0.2610  1.3400
   7323SM  H15T 9585   5.701   1.671   5.822  0.3910  0.0160  0.3058
   7323SM  C16S 9586   5.770   1.682   5.614 -0.0136  0.6177 -0.4312
   7323SM  H16S 9587   5.682   1.750   5.613 -0.1668  0.4421  0.3027
   7323SM  H16T 9588   5.745   1.594   5.550  2.1455  0.8078 -1.6149
   7323SM  C17S 9589   5.887   1.747   5.548  0.4474  0.3470  0.8356
   7323SM  H17S 9590   5.896   1.739   5.437 -0.1299 -0.1702  0.8236
   7323SM  H17T 9591   5.975   1.700   5.596 -0.8052 -0.3824  2.4918
   7323SM  C18S 9592   5.891   1.890   5.579  0.1662 -0.3566 -0.1327
   7323SM  H18S 9593   5.821   1.921   5.660 -0.0237  1.2308 -0.8588
   7323SM  H18T 9594   5.885   1.947   5.484  1.1400 -0.3599 -0.2063
   7323SM  H18U 9595   5.993   1.930   5.600 -0.5110  1.7427 -0.5603
   7323SM   C1F 9596   5.110   1.156   6.768  0.1850 -0.4230 -0.4007
   7323SM    OF 9597   5.034   1.242   6.808  0.3219  0.1397  0.0395
   7323SM   C2F 9598   5.074   1.060   6.658  0.6259  0.2777 -0.1392
   7323SM   H2F 9599   4.972   1.022   6.682  1.6299 -0.7733  2.9470
   7323SM   H2G 9600   5.149   0.978   6.654 -0.4163 -0.7127  0.0791
   7323SM   C3F 9601   5.064   1.125   6.523  0.5480  0.7136  0.0269
   7323SM   H3F 9602   4.983   1.200   6.529  1.4601  1.7163  0.0911
   7323SM   H3G 9603   5.034   1.046   6.451  0.5641  0.4054  0.3567
   7323SM   C4F 9604   5.196   1.181   6.471 -0.2877  0.2024 -0.2389
   7323SM   H4F 9605   5.269   1.097   6.474 -0.7665 -0.2797 -1.3910
   7323SM   H4G 9606   5.231   1.263   6.537 -1.9855  0.7489  0.0445
   7323SM   C5F 9607   5.205   1.231   6.327  0.0855 -0.5849  0.0115
   7323SM   H5F 9608   5.131   1.311   6.306 -1.2239 -2.1755 -1.9862
   7323SM   H5G 9609   5.165   1.152   6.259 -1.0955 -0.7038  0.8087
   7323SM   C6F 9610   5.338   1.285   6.276  0.0134  0.8560 -0.1111
   7323SM   H6F 9611   5.411   1.202   6.285 -0.8983  0.1544  1.0056
   7323SM   H6G 9612   5.371   1.367   6.343 -0.8400  0.9348  0.2159
   7323SM   C7F 9613   5.330   1.328   6.128 -0.4511 -0.2879  0.0466
   7323SM   H7F 9614   5.429   1.373   6.105 -1.0524  0.9591 -0.1567
   7323SM   H7G 9615   5.245   1.397   6.110  1.4056  1.4725 -2.5688
   7323SM   C8F 9616   5.305   1.208   6.035 -0.1194 -0.0952  0.0616
   7323SM   H8F 9617   5.207   1.160   6.058  0.7806 -1.4794  1.1654
   7323SM   H8G 9618   5.376   1.127   6.061  0.4471  1.1365  2.7218
   7323SM   C9F 9619   5.303   1.254   5.892 -0.1450  0.7551  0.3160
   7323SM   H9F 9620   5.398   1.305   5.863  1.3517  0.0563  3.5189
   7323SM   H9G 9621   5.221   1.328   5.883 -1.0667 -0.3207 -0.3623
   7323SM  C10F 9622   5.268   1.136   5.801  0.2803  0.2340 -0.4132
   7323SM  H10F 9623   5.175   1.096   5.846  0.7525 -2.5987 -1.7573
   7323SM  H10G 9624   5.351   1.064   5.822 -1.0842 -0.9133  1.3516
   7323SM  C11F 9625   5.255   1.177   5.649  0.2465 -0.3875  0.0471
   7323SM  H11F 9626   5.350   1.230   5.626 -1.1230  2.2904  0.1038
   7323SM  H11G 9627   5.178   1.256   5.637  0.6607  0.1000  0.5472
   7323SM  C12F 9628   5.233   1.064   5.551 -0.2045  0.4696 -0.2478
   7323SM  H12F 9629   5.142   1.004   5.572 -0.2810  0.2208 -1.2612
   7323SM  H12G 9630   5.317   0.991   5.557 -1.8085 -1.3608  1.8165
   7323SM  C13F 9631   5.224   1.109   5.405  0.2534  0.1764 -0.0470
   7323SM  H13F 9632   5.126   1.156   5.381  0.2320  0.0131 -0.2797
   7323SM  H13G 9633   5.221   1.023   5.335  1.8338  1.7895 -2.2451
   7323SM  C14F 9634   5.320   1.212   5.345  0.1850  0.8409  0.1034
   7323SM  H14F 9635   5.414   1.156   5.327  0.1490  0.2472  1.5924
   7323SM  H14G 9636   5.324   1.294   5.419  2.0817 -0.2459  1.2713
   7323SM  C15F 9637   5.265   1.251   5.200  0.3187  0.3364  0.3215
   7323SM  H15F 9638   5.337   1.322   5.155  1.1658 -0.4794  0.3675
   7323SM  H15G 9639   5.169   1.307   5.207 -1.0357 -1.3924 -2.5688
   7323SM  C16F 9640   5.251   1.134   5.101  0.6088  0.2667 -0.2793
   7323SM  H16F 9641   5.201   1.047   5.148  0.5977  0.7414  0.6144
   7323SM  H16G 9642   5.358   1.107   5.085  0.1124 -0.7378 -2.1727
   7323SM  C17F 9643   5.211   1.180   4.960  0.0248 -0.7932 -0.1304
   7323SM  H17F 9644   5.285   1.252   4.919 -1.4444 -0.3150 -2.0854
   7323SM  H17G 9645   5.115   1.234   4.976 -0.6819 -2.3837  1.3285
   7323SM  C18F 9646   5.194   1.062   4.866 -0.8901 -0.4027  0.5951
   7323SM  H18F 9647   5.103   1.008   4.900  0.2426 -2.3123  0.7387
   7323SM  H18G 9648   5.279   0.995   4.890 -1.3133 -0.5857  1.6503
   7323SM  C19F 9649   5.192   1.102   4.720  0.3394  0.4532 -0.4551
   7323SM  H19F 9650   5.296   1.117   4.682  1.4020  0.3691  2.1858
   7323SM  H19G 9651   5.136   1.198   4.718  1.7357  1.2941 -0.6584
   7323SM  C20F 9652   5.118   0.994   4.639 -0.4929  0.0833  0.4784
   7323SM  H20F 9653   5.012   0.986   4.674  0.2530  0.8406  3.1237
   7323SM  H20G 9654   5.156   0.890   4.647 -0.1551  0.1425 -0.3139
   7323SM  C21F 9655   5.106   1.034   4.493  0.1205  0.1933 -0.4836
   7323SM  H21F 9656   5.207   1.030   4.448 -0.1140  1.6149 -1.2111
   7323SM  H21G 9657   5.077   1.142   4.485  0.3316  0.5056  2.1622
   7323SM  C22F 9658   5.009   0.936   4.419 -0.2022  0.1443  0.7550
   7323SM  H22F 9659   4.902   0.953   4.446 -0.5903  0.0250 -0.6264
   7323SM  H22G 9660   5.023   0.829   4.443  0.2930 -0.1338 -0.7050
   7323SM  C23F 9661   5.019   0.957   4.266  0.6815  0.4140 -1.0152
   7323SM  H23F 9662   4.934   0.906   4.216  1.6277 -2.5803  0.1659
   7323SM  H23G 9663   5.109   0.911   4.219 -0.9543 -2.7535 -1.3826
   7323SM  H23H 9664   5.029   1.065   4.242  3.0281  0.7171  0.9542
   7423SM     N 9665   7.666   4.962   7.005  0.5055 -0.2556  0.0766
   7423SM   C15 9666   7.523   4.909   7.001  0.4080 -0.0408 -0.4646
   7423SM  H15A 9667   7.487   4.875   7.097  1.9551  1.8458  0.8739
   7423SM  H15B 9668   7.528   4.828   6.930  0.1564 -1.2696  0.8835
   7423SM  H15C 9669   7.462   4.992   6.968  0.5925  1.1104  1.9053
   7423SM   C14 9670   7.675   5.043   6.874 -0.3200  0.5413 -0.0330
   7423SM  H14A 9671   7.589   5.108   6.865 -1.1449 -0.4898  0.2070
   7423SM  H14B 9672   7.677   4.983   6.785 -0.2649  1.7871 -0.8981
   7423SM  H14C 9673   7.760   5.109   6.862  0.5178 -0.6383 -0.7820
   7423SM   C13 9674   7.673   5.058   7.124  0.2637 -0.2317  0.2375
   7423SM  H13A 9675   7.587   5.122   7.109 -0.7184 -1.5625 -0.0074
   7423SM  H13B 9676   7.761   5.120   7.121 -0.2523  0.5833  1.3431
   7423SM  H13C 9677   7.660   5.009   7.219 -1.9319 -0.7538 -0.2665
   7423SM   C12 9678   7.776   4.864   7.010 -0.2033  0.2601  0.4048
   7423SM  H12A 9679   7.785   4.815   7.106  0.5855  1.1809  0.8131
   7423SM  H12B 9680   7.871   4.914   7.013 -0.8861  1.5961  0.5502
   7423SM   C11 9681   7.781   4.746   6.899 -0.0803 -0.5972  0.0857
   7423SM  H11A 9682   7.876   4.689   6.898  0.5070  0.3429  0.4485
   7423SM  H11B 9683   7.771   4.790   6.798 -2.1658 -2.5682 -0.6404
   7423SM     P 9684   7.664   4.566   7.051  0.3672 -0.1008 -0.0855
   7423SM   O13 9685   7.717   4.634   7.173  0.1745 -0.1230  0.4888
   7423SM   O14 9686   7.528   4.516   7.070  0.6662  0.2302  0.8532
   7423SM   O11 9687   7.755   4.439   7.020  0.8397  0.2446 -0.2583
   7423SM   O12 9688   7.675   4.659   6.926 -0.2338  0.0013  0.7330
   7423SM   C1S 9689   7.741   4.362   6.895 -0.0758 -0.1039  1.0583
   7423SM   H1S 9690   7.636   4.365   6.858  0.8402  0.4716 -1.7192
   7423SM   H1T 9691   7.760   4.254   6.909 -0.5831 -0.4046 -0.3780
   7423SM    NF 9692   7.801   4.335   6.653 -0.3410 -0.6738  0.0700
   7423SM   HNF 9693   7.878   4.284   6.615 -0.0215 -0.9201  1.0295
   7423SM   C2S 9694   7.835   4.400   6.780 -0.4806 -0.0784  0.5267
   7423SM   H2S 9695   7.819   4.509   6.761  0.4594 -0.0542 -0.2185
   7423SM   C3S 9696   7.992   4.387   6.816  0.7690  0.2471  0.6693
   7423SM   H3S 9697   8.012   4.278   6.822 -0.6729 -0.0031  1.0812
   7423SM    O3 9698   8.018   4.443   6.946  0.2079  0.1387 -0.1512
   7423SM   HO3 9699   7.935   4.455   6.993 -0.1462 -1.6933 -0.2347
   7423SM   C4S 9700   8.086   4.459   6.718 -0.0991  0.1797 -0.3056
   7423SM   H4S 9701   8.085   4.569   6.721  2.7665  0.3393 -1.6193
   7423SM   C5S 9702   8.159   4.398   6.625  1.1889 -0.4391  0.4048
   7423SM   H5S 9703   8.174   4.289   6.622  0.2426 -0.5553 -1.0815
   7423SM   C6S 9704   8.251   4.469   6.532  1.1575 -0.5107 -0.0824
   7423SM   H6S 9705   8.346   4.410   6.533  0.3988 -1.7796  1.5358
   7423SM   H6T 9706   8.273   4.573   6.563 -0.5167 -0.2274  0.2167
   7423SM   C7S 9707   8.193   4.476   6.394 -0.5915 -0.0573  0.1052
   7423SM   H7S 9708   8.087   4.509   6.397  0.0938  2.2664  1.3861
   7423SM   H7T 9709   8.191   4.370   6.359 -0.1306 -0.0019 -0.0866
   7423SM   C8S 9710   8.264   4.550   6.280 -0.3233 -0.0651 -0.4368
   7423SM   H8S 9711   8.368   4.512   6.273  0.0436  0.9769 -0.9824
   7423SM   H8T 9712   8.265   4.661   6.291 -1.7502 -0.0011 -0.6828
   7423SM   C9S 9713   8.197   4.533   6.140  0.5505  0.1266  0.1667
   7423SM   H9S 9714   8.089   4.556   6.155  0.4661 -0.0351 -0.1858
   7423SM   H9T 9715   8.188   4.426   6.113 -1.4349  0.0269  1.0749
   7423SM  C10S 9716   8.267   4.615   6.029  0.6454  0.1364  0.2637
   7423SM  H10S 9717   8.365   4.566   6.009  0.0264 -0.6880 -0.8754
   7423SM  H10T 9718   8.297   4.713   6.072 -2.0679  1.5825 -0.9042
   7423SM  C11S 9719   8.182   4.629   5.904  0.8076 -0.0210  0.6766
   7423SM  H11S 9720   8.087   4.672   5.943 -1.1497 -2.4470 -1.0511
   7423SM  H11T 9721   8.160   4.531   5.856  1.2810  0.4336 -0.4722
   7423SM  C12S 9722   8.253   4.716   5.799 -0.2684  0.6227 -0.6560
   7423SM  H12S 9723   8.345   4.665   5.764  1.4154  3.6397 -0.9806
   7423SM  H12T 9724   8.294   4.810   5.842  1.3359 -0.0990 -0.5563
   7423SM  C13S 9725   8.160   4.744   5.677 -0.6964  0.5250 -0.3573
   7423SM  H13S 9726   8.078   4.810   5.714 -2.4381 -0.5210 -2.1151
   7423SM  H13T 9727   8.122   4.641   5.656  0.9933 -0.6119  1.7174
   7423SM  C14S 9728   8.227   4.801   5.557  0.2938 -0.8854 -0.3978
   7423SM  H14S 9729   8.309   4.730   5.533  2.6878  1.3330  0.7508
   7423SM  H14T 9730   8.278   4.898   5.575  0.6956 -1.2880  0.6715
   7423SM  C15S 9731   8.144   4.808   5.423 -0.1938 -0.3533  0.3248
   7423SM  H15S 9732   8.041   4.842   5.448 -0.3011  1.9660 -2.5822
   7423SM  H15T 9733   8.138   4.700   5.398 -1.5742 -0.9117  2.7855
   7423SM  C16S 9734   8.219   4.893   5.322 -0.7931 -0.0609  0.5135
   7423SM  H16S 9735   8.324   4.862   5.303 -0.7387  0.3919  0.0657
   7423SM  H16T 9736   8.209   5.001   5.347 -0.9053  0.5137 -1.8163
   7423SM  C17S 9737   8.154   4.871   5.179  0.2834  0.3066  0.2849
   7423SM  H17S 9738   8.055   4.919   5.162 -1.0397 -2.3267  0.0999
   7423SM  H17T 9739   8.145   4.761   5.165 -0.2030  0.4579 -0.7931
   7423SM  C18S 9740   8.245   4.921   5.064 -0.3797  0.0726 -0.2465
   7423SM  H18S 9741   8.317   4.997   5.101 -2.1289  0.8231  1.7695
   7423SM  H18T 9742   8.188   4.959   4.977 -1.1691  2.3469  1.1787
   7423SM  H18U 9743   8.296   4.830   5.025 -0.7520 -1.7523  3.1746
   7423SM   C1F 9744   7.693   4.357   6.583  0.0638 -0.7761  0.2033
   7423SM    OF 9745   7.601   4.426   6.617  0.6962 -0.9658  0.3329
   7423SM   C2F 9746   7.689   4.286   6.449  0.7148 -0.6200 -0.1219
   7423SM   H2F 9747   7.608   4.334   6.391  2.0969  0.6602 -1.0558
   7423SM   H2G 9748   7.658   4.179   6.456 -0.7643 -0.2179 -0.2717
   7423SM   C3F 9749   7.821   4.290   6.367  0.0500 -0.3666 -0.2750
   7423SM   H3F 9750   7.911   4.247   6.417  0.7062  2.1191  0.8234
   7423SM   H3G 9751   7.844   4.398   6.358  1.0142 -0.5778 -0.3983
   7423SM   C4F 9752   7.813   4.224   6.231 -0.2041  0.2393  0.1812
   7423SM   H4F 9753   7.716   4.183   6.197 -2.0790  3.0870  1.7362
   7423SM   H4G 9754   7.890   4.143   6.233  0.3718  0.7905  1.3030
   7423SM   C5F 9755   7.864   4.318   6.125  0.0178 -0.0016  0.0171
   7423SM   H5F 9756   7.924   4.408   6.151 -0.4111  0.5399 -0.8162
   7423SM   H5G 9757   7.774   4.369   6.086 -0.1443 -1.4270 -1.5748
   7423SM   C6F 9758   7.928   4.246   6.006 -0.4499 -0.3919 -0.0185
   7423SM   H6F 9759   7.874   4.151   5.990 -0.9226  0.0103 -0.9042
   7423SM   H6G 9760   8.036   4.238   6.031 -0.3707  1.0391  0.2234
   7423SM   C7F 9761   7.924   4.332   5.876  0.7285 -0.4872 -0.5595
   7423SM   H7F 9762   7.991   4.419   5.893  1.7841 -1.4561  0.4365
   7423SM   H7G 9763   7.821   4.372   5.867  0.6083 -0.0107  2.1586
   7423SM   C8F 9764   7.955   4.252   5.752 -0.2860 -0.2275  0.2981
   7423SM   H8F 9765   7.887   4.165   5.751 -2.1957  1.1970 -0.4352
   7423SM   H8G 9766   8.058   4.211   5.760 -0.0085  0.2686 -0.5951
   7423SM   C9F 9767   7.952   4.341   5.624  0.2182  0.5378 -0.1768
   7423SM   H9F 9768   8.031   4.418   5.628 -0.1066  0.8876 -0.4054
   7423SM   H9G 9769   7.856   4.394   5.608 -0.4496 -0.6450 -0.2446
   7423SM  C10F 9770   7.975   4.257   5.494  0.5094  0.2044  0.0189
   7423SM  H10F 9771   7.875   4.215   5.468  0.5109 -0.4463  1.0012
   7423SM  H10G 9772   8.053   4.184   5.523  1.7671  1.8318  0.8694
   7423SM  C11F 9773   8.033   4.346   5.380  0.2491 -0.1720  0.6092
   7423SM  H11F 9774   8.139   4.373   5.398  0.6026 -1.1201  0.0517
   7423SM  H11G 9775   7.975   4.441   5.381  0.4030  0.0019 -1.8424
   7423SM  C12F 9776   8.017   4.282   5.238 -0.2417  0.1251 -0.1581
   7423SM  H12F 9777   7.917   4.234   5.234 -1.2742  2.0497  0.9835
   7423SM  H12G 9778   8.094   4.204   5.221 -1.3859 -0.8739 -0.8588
   7423SM  C13F 9779   8.039   4.376   5.119 -0.0271 -0.0306 -0.3499
   7423SM  H13F 9780   7.975   4.466   5.123 -0.5737 -0.2784 -2.4259
   7423SM  H13G 9781   8.008   4.316   5.031  0.6383 -0.9596  0.0251
   7423SM  C14F 9782   8.185   4.422   5.123 -0.4830 -0.4138 -0.1086
   7423SM  H14F 9783   8.254   4.336   5.140 -0.6888 -0.6357 -0.3717
   7423SM  H14G 9784   8.201   4.478   5.217 -2.1467 -1.1448  0.6556
   7423SM  C15F 9785   8.226   4.507   5.006  1.2458 -0.0284 -0.4947
   7423SM  H15F 9786   8.185   4.609   5.022 -1.3522 -0.8235 -1.5172
   7423SM  H15G 9787   8.180   4.464   4.914  1.5888 -1.9398  0.1931
   7423SM  C16F 9788   8.377   4.524   5.010 -0.1464  0.3338 -0.3575
   7423SM  H16F 9789   8.403   4.579   4.917 -1.1779  1.7635  0.1543
   7423SM  H16G 9790   8.422   4.423   5.004  2.3075  1.2949  0.4241
   7423SM  C17F 9791   8.440   4.601   5.128  0.0801 -0.2092  0.3346
   7423SM  H17F 9792   8.386   4.581   5.223 -0.4311 -0.7265 -0.0572
   7423SM  H17G 9793   8.435   4.710   5.109  0.5508 -0.2715 -0.1788
   7423SM  C18F 9794   8.595   4.570   5.143  0.7777  0.4953 -0.3475
   7423SM  H18F 9795   8.652   4.632   5.070  0.4817 -0.5337 -1.4978
   7423SM  H18G 9796   8.619   4.462   5.130  1.5920  0.6428 -0.1210
   7423SM  C19F 9797   8.641   4.602   5.292  0.0431  0.2683  0.1610
   7423SM  H19F 9798   8.564   4.558   5.358 -0.8340 -2.5564 -2.5194
   7423SM  H19G 9799   8.629   4.710   5.317 -1.9996  0.7938 -2.6288
   7423SM  C20F 9800   8.788   4.563   5.330 -0.4554 -0.5956 -0.0096
   7423SM  H20F 9801   8.812   4.454   5.334  1.4142 -0.3100 -2.0259
   7423SM  H20G 9802   8.814   4.614   5.425 -0.3803  1.6093 -1.1664
   7423SM  C21F 9803   8.888   4.604   5.225  0.2450  0.0507  0.6973
   7423SM  H21F 9804   8.876   4.714   5.217  0.6865  0.0670  0.2158
   7423SM  H21G 9805   8.869   4.553   5.128  1.6262  1.2403 -0.2438
   7423SM  C22F 9806   9.033   4.564   5.256 -0.5902 -0.1732  0.3262
   7423SM  H22F 9807   9.030   4.458   5.290  0.9513  0.7848  3.9255
   7423SM  H22G 9808   9.073   4.619   5.344  0.0612  0.3352 -0.2768
   7423SM  C23F 9809   9.133   4.578   5.143  0.7661 -0.7287 -0.2428
   7423SM  H23F 9810   9.091   4.530   5.052  2.0850  0.1275 -1.3387
   7423SM  H23G 9811   9.227   4.527   5.174 -0.2842 -2.8242 -0.3331
   7423SM  H23H 9812   9.155   4.683   5.115  1.7132 -0.9029 -0.1837
   7523SM     N 9813   6.113   6.364   7.170 -0.1907 -0.5945  0.5517
   7523SM   C15 9814   6.101   6.262   7.063  0.0931 -0.3536  0.3636
   7523SM  H15A 9815   6.028   6.302   6.994 -0.4677 -1.4328  0.3212
   7523SM  H15B 9816   6.049   6.173   7.095 -0.5360  0.5412  2.0035
   7523SM  H15C 9817   6.198   6.238   7.024 -0.1773  0.2739 -0.7524
   7523SM   C14 9818   5.979   6.415   7.194  0.6036  0.2497  0.4990
   7523SM  H14A 9819   5.917   6.335   7.233  1.2447 -0.2246  0.5603
   7523SM  H14B 9820   5.926   6.452   7.107 -0.3485  0.1840  1.0387
   7523SM  H14C 9821   5.983   6.497   7.264  0.8251  1.4444 -0.8581
   7523SM   C13 9822   6.176   6.309   7.292  0.6612  0.1925  0.3182
   7523SM  H13A 9823   6.185   6.380   7.373 -2.6294  0.6024  0.4547
   7523SM  H13B 9824   6.272   6.265   7.269 -0.2699 -1.7953  0.0551
   7523SM  H13C 9825   6.116   6.225   7.325  0.2031  0.9204  1.3816
   7523SM   C12 9826   6.201   6.480   7.114  0.5529  0.2444 -0.4832
   7523SM  H12A 9827   6.247   6.531   7.198 -0.1438  0.0894  0.0047
   7523SM  H12B 9828   6.129   6.551   7.076 -1.7491 -0.8512  1.5462
   7523SM   C11 9829   6.320   6.442   7.021  0.9511  0.1072 -0.4465
   7523SM  H11A 9830   6.374   6.534   6.989  0.3444 -0.0701 -2.0980
   7523SM  H11B 9831   6.285   6.402   6.923  0.4853 -0.8941  0.1141
   7523SM     P 9832   6.458   6.225   6.998  0.0035 -0.2653  0.3826
   7523SM   O13 9833   6.583   6.186   7.064  0.1264 -0.4627  0.3214
   7523SM   O14 9834   6.345   6.127   6.970  0.8392  0.2936  0.1514
   7523SM   O11 9835   6.510   6.293   6.870 -0.1274 -0.5116  0.6067
   7523SM   O12 9836   6.399   6.342   7.078 -0.3236 -0.1654 -0.3091
   7523SM   C1S 9837   6.486   6.244   6.738  0.1558 -0.7245 -0.6039
   7523SM   H1S 9838   6.383   6.203   6.733 -0.2040 -0.4607  2.4999
   7523SM   H1T 9839   6.562   6.168   6.709 -1.0011 -1.5712 -1.5470
   7523SM    NF 9840   6.492   6.301   6.496  0.2754 -0.0197 -0.0769
   7523SM   HNF 9841   6.576   6.285   6.444  0.5031 -0.5102  0.4203
   7523SM   C2S 9842   6.504   6.357   6.628 -0.2810  0.7886 -0.4924
   7523SM   H2S 9843   6.419   6.424   6.653 -0.4641  0.7244 -0.9499
   7523SM   C3S 9844   6.638   6.436   6.656  0.4042 -0.5401  0.2644
   7523SM   H3S 9845   6.727   6.370   6.643 -0.1371 -1.1602 -0.3977
   7523SM    O3 9846   6.652   6.493   6.795  0.2960 -0.5146 -0.1972
   7523SM   HO3 9847   6.590   6.444   6.848 -1.2922  0.3605 -1.1776
   7523SM   C4S 9848   6.634   6.547   6.554 -0.2398  0.1391  0.0738
   7523SM   H4S 9849   6.532   6.589   6.557 -1.0328 -1.7295  1.9686
   7523SM   C5S 9850   6.725   6.587   6.469  0.4567  0.4220 -0.6137
   7523SM   H5S 9851   6.826   6.546   6.481  1.3758  2.8543  0.8010
   7523SM   C6S 9852   6.702   6.692   6.369  0.4280  0.1033 -1.3158
   7523SM   H6S 9853   6.791   6.757   6.381 -0.4161  0.8336  1.6884
   7523SM   H6T 9854   6.607   6.751   6.372 -0.7939 -1.7147 -2.2696
   7523SM   C7S 9855   6.692   6.635   6.229 -0.0560  0.0002 -0.1258
   7523SM   H7S 9856   6.613   6.557   6.227 -0.6732  0.6101  0.1084
   7523SM   H7T 9857   6.790   6.586   6.210  0.0181 -0.2472  0.8609
   7523SM   C8S 9858   6.651   6.747   6.137  0.1564  0.0245 -0.3228
   7523SM   H8S 9859   6.724   6.831   6.134 -1.2380  1.3668  1.4052
   7523SM   H8T 9860   6.556   6.793   6.172 -0.3878 -2.2210  1.4203
   7523SM   C9S 9861   6.628   6.700   5.988 -0.1663  0.0027  0.7381
   7523SM   H9S 9862   6.588   6.789   5.936  0.0686 -0.0390  0.4834
   7523SM   H9T 9863   6.553   6.617   5.984  0.8040 -0.8737  0.0674
   7523SM  C10S 9864   6.753   6.645   5.917  0.6483 -0.7645  0.1835
   7523SM  H10S 9865   6.714   6.603   5.822 -1.6182  1.9125 -0.2237
   7523SM  H10T 9866   6.791   6.564   5.982  1.0008 -0.9011 -0.1892
   7523SM  C11S 9867   6.860   6.748   5.888 -0.4746 -0.2873 -0.4732
   7523SM  H11S 9868   6.924   6.784   5.971 -1.6621  3.2711 -0.9467
   7523SM  H11T 9869   6.807   6.838   5.852 -0.8349 -1.3330 -2.7324
   7523SM  C12S 9870   6.956   6.690   5.783 -0.2486 -0.8771  0.0427
   7523SM  H12S 9871   6.896   6.641   5.703  0.1194  0.7834 -1.2875
   7523SM  H12T 9872   7.025   6.616   5.829  0.2857 -1.4527 -1.6129
   7523SM  C13S 9873   7.047   6.793   5.714 -0.4477  0.2001  0.4864
   7523SM  H13S 9874   7.124   6.816   5.791  0.1925  0.1010 -0.1070
   7523SM  H13T 9875   6.998   6.890   5.691  0.9660  1.0543  0.9289
   7523SM  C14S 9876   7.111   6.730   5.587  1.0125  0.3522 -0.3854
   7523SM  H14S 9877   7.026   6.705   5.519 -0.5567  1.3434  1.1390
   7523SM  H14T 9878   7.161   6.632   5.602 -0.1922 -0.3401 -0.7339
   7523SM  C15S 9879   7.213   6.817   5.511  0.5662  0.9617  0.3321
   7523SM  H15S 9880   7.174   6.918   5.487 -0.7613 -0.1021 -2.4657
   7523SM  H15T 9881   7.232   6.769   5.413 -0.8453 -0.4929  0.7150
   7523SM  C16S 9882   7.343   6.832   5.583 -0.0086 -0.0709 -0.7789
   7523SM  H16S 9883   7.331   6.858   5.690  0.3799  0.9989 -0.9848
   7523SM  H16T 9884   7.385   6.924   5.537  1.1607 -0.8982 -1.4322
   7523SM  C17S 9885   7.440   6.710   5.584  0.3894  0.1330  0.5875
   7523SM  H17S 9886   7.451   6.673   5.479  0.3651  1.4190  0.1188
   7523SM  H17T 9887   7.390   6.627   5.639  0.7402  0.3613  1.2499
   7523SM  C18S 9888   7.576   6.747   5.638  0.0863  0.3882  0.0096
   7523SM  H18S 9889   7.654   6.673   5.609  0.6982  0.5249  1.2256
   7523SM  H18T 9890   7.585   6.737   5.749  2.6814 -1.6593 -0.2815
   7523SM  H18U 9891   7.615   6.850   5.618  2.1440 -0.4501 -0.5341
   7523SM   C1F 9892   6.375   6.278   6.431 -0.4048 -0.2222  0.0216
   7523SM    OF 9893   6.268   6.306   6.485  0.3038  0.0085 -0.0318
   7523SM   C2F 9894   6.389   6.216   6.294 -0.3408  0.0121 -0.1479
   7523SM   H2F 9895   6.292   6.221   6.241 -0.5104  1.3501  0.2464
   7523SM   H2G 9896   6.431   6.114   6.293 -0.8337 -0.1972  0.0974
   7523SM   C3F 9897   6.477   6.304   6.198 -1.0415  0.1242 -0.9173
   7523SM   H3F 9898   6.576   6.321   6.245 -1.0844 -1.2980 -0.2322
   7523SM   H3G 9899   6.428   6.397   6.162  0.0274  0.3204 -1.9189
   7523SM   C4F 9900   6.512   6.209   6.079 -0.2526  0.0485 -0.1900
   7523SM   H4F 9901   6.418   6.170   6.036  1.2308 -2.5729 -1.2780
   7523SM   H4G 9902   6.571   6.122   6.114 -0.3423 -0.4376 -1.2328
   7523SM   C5F 9903   6.603   6.259   5.974 -0.1499  0.0985  0.1006
   7523SM   H5F 9904   6.691   6.313   6.014 -2.2374  2.6164  1.6620
   7523SM   H5G 9905   6.553   6.335   5.910 -0.1334 -1.3457 -1.7070
   7523SM   C6F 9906   6.647   6.151   5.881  0.6074  0.3485 -0.3530
   7523SM   H6F 9907   6.561   6.099   5.836  0.1246  1.0850 -0.2920
   7523SM   H6G 9908   6.701   6.078   5.946  1.4731  0.8060 -0.5346
   7523SM   C7F 9909   6.745   6.183   5.769  0.0053 -0.3850 -0.2574
   7523SM   H7F 9910   6.713   6.273   5.712 -2.4040 -0.1613  1.3108
   7523SM   H7G 9911   6.753   6.092   5.705  1.3891 -3.1511  3.5070
   7523SM   C8F 9912   6.879   6.193   5.838  0.1954 -0.2368 -0.5383
   7523SM   H8F 9913   6.901   6.105   5.903  1.5014  0.8551  0.5610
   7523SM   H8G 9914   6.878   6.279   5.909  1.1959 -0.8668  0.2718
   7523SM   C9F 9915   6.995   6.200   5.743 -0.2686  0.0739  0.2584
   7523SM   H9F 9916   7.009   6.100   5.696 -2.7153  0.0364 -0.5067
   7523SM   H9G 9917   7.088   6.228   5.798 -0.7430  0.8307  0.6946
   7523SM  C10F 9918   6.975   6.298   5.630  0.0833  1.0669  0.3143
   7523SM  H10F 9919   6.951   6.393   5.683  2.0576  1.0439  1.3355
   7523SM  H10G 9920   6.895   6.272   5.558  0.3503  0.9892  0.0456
   7523SM  C11F 9921   7.115   6.313   5.560  0.3843  0.1670 -0.3571
   7523SM  H11F 9922   7.139   6.211   5.522 -0.6890 -0.4549  0.5701
   7523SM  H11G 9923   7.208   6.329   5.619 -0.9148 -0.5750  1.9925
   7523SM  C12F 9924   7.111   6.404   5.428  0.1601 -0.5133 -0.2699
   7523SM  H12F 9925   7.080   6.505   5.462  5.3790  2.0562 -1.9840
   7523SM  H12G 9926   7.034   6.352   5.367 -0.3511  0.9627 -0.9063
   7523SM  C13F 9927   7.241   6.421   5.359 -0.5804  0.3285 -0.6554
   7523SM  H13F 9928   7.289   6.321   5.349 -0.1686  0.3486  0.9224
   7523SM  H13G 9929   7.305   6.480   5.428 -0.7842 -1.4958  1.1959
   7523SM  C14F 9930   7.221   6.478   5.217  0.4086 -0.1117 -0.1814
   7523SM  H14F 9931   7.301   6.553   5.204  1.2920 -0.7318  1.4473
   7523SM  H14G 9932   7.124   6.531   5.203 -0.4702 -1.7444 -0.5986
   7523SM  C15F 9933   7.227   6.360   5.116  0.6563  0.4016 -0.3825
   7523SM  H15F 9934   7.143   6.290   5.131  0.3005  0.4509 -2.0422
   7523SM  H15G 9935   7.327   6.315   5.136  1.0657  1.6032  0.4042
   7523SM  C16F 9936   7.217   6.411   4.972 -0.2624  0.5580  0.0102
   7523SM  H16F 9937   7.235   6.326   4.904  1.7811  2.3297 -1.7935
   7523SM  H16G 9938   7.297   6.485   4.954  1.0156 -0.3158  1.8094
   7523SM  C17F 9939   7.081   6.478   4.943 -0.2510  0.2103  0.5245
   7523SM  H17F 9940   7.082   6.580   4.986  1.2944  0.3860  0.1433
   7523SM  H17G 9941   6.994   6.426   4.987 -0.6416 -0.8783 -1.4057
   7523SM  C18F 9942   7.053   6.503   4.791  0.3107  0.5723  0.3824
   7523SM  H18F 9943   7.031   6.406   4.742  2.3221 -0.5516  1.5878
   7523SM  H18G 9944   7.141   6.552   4.746 -1.0411  2.5387 -0.2466
   7523SM  C19F 9945   6.928   6.585   4.776 -0.2618  0.3701  0.2024
   7523SM  H19F 9946   6.901   6.597   4.669 -2.1236 -0.7916  0.4813
   7523SM  H19G 9947   6.954   6.685   4.815  4.0501 -0.6557  0.4131
   7523SM  C20F 9948   6.798   6.543   4.845 -0.0882 -0.1982 -0.3012
   7523SM  H20F 9949   6.817   6.552   4.954  0.3950  3.3182 -0.5578
   7523SM  H20G 9950   6.760   6.439   4.831  2.0281 -1.0770  0.1785
   7523SM  C21F 9951   6.686   6.655   4.827 -0.1770 -0.6483 -0.6751
   7523SM  H21F 9952   6.710   6.758   4.861 -2.2700 -0.4180  0.2326
   7523SM  H21G 9953   6.604   6.612   4.888 -1.5246  1.0413 -1.2326
   7523SM  C22F 9954   6.617   6.652   4.688  0.0329 -0.7090  0.2451
   7523SM  H22F 9955   6.594   6.551   4.647 -1.4703 -0.9147  1.4806
   7523SM  H22G 9956   6.685   6.684   4.607  2.5349  0.3934  2.6400
   7523SM  C23F 9957   6.486   6.745   4.691 -0.2467  0.8275 -0.4576
   7523SM  H23F 9958   6.443   6.742   4.588  1.9529  2.7002 -1.5309
   7523SM  H23G 9959   6.515   6.851   4.708 -0.2298  0.5923  1.1481
   7523SM  H23H 9960   6.401   6.709   4.753  1.5454 -0.1004  1.5750
   7623SM     N 9961   0.053   5.960   7.215  0.4918  0.2824  0.3109
   7623SM   C15 9962  -0.061   5.999   7.121 -0.0304 -0.3901  0.0794
   7623SM  H15A 9963  -0.153   6.007   7.178  0.0526 -0.4448  0.2247
   7623SM  H15B 9964  -0.077   5.921   7.048  0.4276 -0.1405 -0.2908
   7623SM  H15C 9965  -0.046   6.085   7.059  1.9255 -0.0177  0.9789
   7623SM   C14 9966   0.184   5.959   7.146  0.1747 -0.2194 -0.4050
   7623SM  H14A 9967   0.216   6.050   7.099  0.6752  0.0898  0.5162
   7623SM  H14B 9968   0.182   5.896   7.058 -0.9873  0.5110 -0.9166
   7623SM  H14C 9969   0.262   5.921   7.211  0.3323 -2.1161 -1.6019
   7623SM   C13 9970   0.065   6.055   7.325 -0.3145  0.5042  0.5904
   7623SM  H13A 9971  -0.014   6.044   7.398  0.2436  0.4817  1.1978
   7623SM  H13B 9972   0.066   6.152   7.277  0.6253 -0.3182 -1.1462
   7623SM  H13C 9973   0.156   6.060   7.383  0.2892  3.7816 -0.4654
   7623SM   C12 9974   0.028   5.824   7.275  0.4692 -0.0740  0.3866
   7623SM  H12A 9975  -0.056   5.827   7.343  0.7661  0.3934  0.7422
   7623SM  H12B 9976   0.118   5.802   7.330  0.5528 -2.4793 -0.6221
   7623SM   C11 9977  -0.004   5.714   7.174 -0.3947  0.1416 -0.2747
   7623SM  H11A 9978   0.064   5.718   7.086  1.9239 -0.2584  1.3938
   7623SM  H11B 9979  -0.110   5.717   7.142 -0.6143  3.6612  0.4079
   7623SM     P 9980   0.157   5.533   7.272  0.4146 -0.1502 -0.4811
   7623SM   O13 9981   0.209   5.621   7.381 -0.1421 -0.0554  0.4055
   7623SM   O14 9982   0.146   5.384   7.293  0.4043 -0.0203  0.0625
   7623SM   O11 9983   0.238   5.559   7.141  0.1887 -0.1392  0.5505
   7623SM   O12 9984   0.012   5.586   7.237  0.7196 -0.0814 -0.9209
   7623SM   C1S 9985   0.333   5.472   7.073  0.8311  0.0177 -0.9746
   7623SM   H1S 9986   0.304   5.373   7.115 -1.1741  1.5125  1.4298
   7623SM   H1T 9987   0.430   5.505   7.114  1.3719 -1.4131 -1.0245
   7623SM    NF 9988   0.384   5.371   6.856  0.0118 -0.1083  0.2641
   7623SM   HNF 9989   0.484   5.376   6.853  0.1512  0.0970  2.9567
   7623SM   C2S 9990   0.323   5.484   6.923  0.0371 -0.6154  0.1531
   7623SM   H2S 9991   0.218   5.490   6.889  0.7725 -0.3902 -2.3149
   7623SM   C3S 9992   0.377   5.620   6.878  0.1960  0.0809 -0.0216
   7623SM   H3S 9993   0.481   5.633   6.914 -0.4945  0.9458  1.7925
   7623SM    O3 9994   0.300   5.720   6.937 -0.1805 -0.3360  0.2808
   7623SM   HO3 9995   0.242   5.667   6.992 -0.8582  0.2277  0.1152
   7623SM   C4S 9996   0.372   5.631   6.733  0.5351  0.2661  0.2575
   7623SM   H4S 9997   0.276   5.590   6.698  1.8835 -1.9631 -1.0358
   7623SM   C5S 9998   0.458   5.689   6.650 -0.3103 -0.7520 -0.3331
   7623SM   H5S 9999   0.547   5.744   6.683 -1.4100  0.7057  0.2806
   7623SM   C6S10000   0.423   5.708   6.505 -0.6215  0.4100 -0.2986
   7623SM   H6S10001   0.349   5.636   6.464 -0.1345 -0.7476  0.7882
   7623SM   H6T10002   0.510   5.684   6.440 -1.5653 -2.5584 -0.6496
   7623SM   C7S10003   0.376   5.849   6.481  0.3848 -0.4155  0.0979
   7623SM   H7S10004   0.370   5.859   6.371  2.3121 -1.3431 -0.1215
   7623SM   H7T10005   0.445   5.930   6.513  1.9041 -0.7516 -2.1125
   7623SM   C8S10006   0.233   5.871   6.531  0.3389  0.4219  0.2599
   7623SM   H8S10007   0.226   5.896   6.639  1.7667  0.3890  0.3735
   7623SM   H8T10008   0.173   5.784   6.496 -0.0158  0.6785  0.2284
   7623SM   C9S10009   0.164   5.998   6.471 -0.4527  0.1043 -0.1864
   7623SM   H9S10010   0.211   5.998   6.370  1.1304 -0.1351  0.5205
   7623SM   H9T10011   0.202   6.089   6.523  0.5971  0.8287 -2.0883
   7623SM  C10S10012   0.014   5.991   6.475 -0.2684 -0.1073  0.0745
   7623SM  H10S10013  -0.018   5.952   6.574  1.0867 -0.3418  0.4391
   7623SM  H10T10014  -0.015   5.905   6.410 -1.8160  0.5675 -0.1570
   7623SM  C11S10015  -0.046   6.119   6.436  0.1628 -0.5598 -0.0296
   7623SM  H11S10016  -0.155   6.118   6.415  0.3360  0.0166 -1.0515
   7623SM  H11T10017   0.000   6.161   6.344 -1.0531  1.8128  0.3432
   7623SM  C12S10018  -0.023   6.234   6.538 -0.0047 -0.0156 -0.0492
   7623SM  H12S10019   0.085   6.260   6.540 -0.1922  0.7646  2.6751
   7623SM  H12T10020  -0.056   6.202   6.639 -0.0050  2.3357  0.7575
   7623SM  C13S10021  -0.099   6.361   6.511 -0.2760 -0.6545 -0.1112
   7623SM  H13S10022  -0.048   6.444   6.563  1.3289 -0.8379 -1.3070
   7623SM  H13T10023  -0.206   6.352   6.538  0.4369  0.0973  3.4562
   7623SM  C14S10024  -0.101   6.413   6.370  0.2489 -0.0267  0.7639
   7623SM  H14S10025  -0.181   6.489   6.363 -1.2376 -1.5221  0.6535
   7623SM  H14T10026  -0.147   6.338   6.301 -0.9634  0.1259  1.3699
   7623SM  C15S10027   0.030   6.460   6.311 -0.5494  0.5803  0.4536
   7623SM  H15S10028   0.100   6.376   6.293 -0.3843  0.8431 -0.1702
   7623SM  H15T10029   0.080   6.531   6.380 -0.0373 -0.3170  1.0187
   7623SM  C16S10030   0.002   6.538   6.175  0.5747 -0.4273  0.1896
   7623SM  H16S10031   0.102   6.584   6.155  2.2005 -3.2863  1.1289
   7623SM  H16T10032  -0.073   6.618   6.189  2.0900  1.0182  0.3805
   7623SM  C17S10033  -0.034   6.457   6.057 -0.0167  0.6779  0.7033
   7623SM  H17S10034  -0.131   6.405   6.072  0.8744 -1.4399 -0.4691
   7623SM  H17T10035   0.042   6.379   6.034 -0.5398  0.5389 -0.6389
   7623SM  C18S10036  -0.062   6.548   5.929  0.8993  0.1470  0.0272
   7623SM  H18S10037  -0.127   6.632   5.958  0.7481  1.3486 -3.3809
   7623SM  H18T10038  -0.112   6.486   5.852  0.6019  0.1491  0.2176
   7623SM  H18U10039   0.031   6.586   5.882  0.3496 -1.2413 -2.3725
   7623SM   C1F10040   0.307   5.260   6.858 -0.9207 -0.0405 -0.1131
   7623SM    OF10041   0.196   5.255   6.912  0.5339 -0.3333  0.2930
   7623SM   C2F10042   0.375   5.137   6.808 -0.1036  0.2802 -0.1985
   7623SM   H2F10043   0.313   5.063   6.862 -0.3802  2.2354  2.4085
   7623SM   H2G10044   0.479   5.132   6.846 -0.6336  2.5090  1.8546
   7623SM   C3F10045   0.380   5.110   6.659  0.3482  0.0770 -0.0179
   7623SM   H3F10046   0.439   5.186   6.603 -0.9613  1.9945  1.0856
   7623SM   H3G10047   0.275   5.116   6.623  0.8621 -1.0509 -1.8967
   7623SM   C4F10048   0.425   4.969   6.625 -0.6456  0.1235 -0.4561
   7623SM   H4F10049   0.347   4.901   6.667  0.6224 -0.4929  0.9850
   7623SM   H4G10050   0.523   4.952   6.675 -2.4968  2.4081  4.6641
   7623SM   C5F10051   0.441   4.948   6.471 -0.4106  0.3951  0.1436
   7623SM   H5F10052   0.463   4.843   6.441 -2.2847  0.0304 -0.0789
   7623SM   H5G10053   0.532   5.004   6.442 -0.6762  2.2360  2.5365
   7623SM   C6F10054   0.327   5.007   6.386  0.0177  0.1298 -0.6121
   7623SM   H6F10055   0.322   5.117   6.400 -3.2990  0.0350 -0.1408
   7623SM   H6G10056   0.229   4.967   6.420 -0.1890 -0.7649 -2.1701
   7623SM   C7F10057   0.343   4.985   6.241  0.8581  0.8853  0.8217
   7623SM   H7F10058   0.252   4.948   6.190  1.3674 -0.0026  0.5419
   7623SM   H7G10059   0.420   4.905   6.231  0.8424  1.1300 -3.1565
   7623SM   C8F10060   0.394   5.101   6.156 -0.7339  0.0215 -0.1062
   7623SM   H8F10061   0.488   5.151   6.185 -1.9153  2.1002  0.3474
   7623SM   H8G10062   0.314   5.178   6.158 -0.9241 -0.1615 -0.4441
   7623SM   C9F10063   0.412   5.068   6.009 -0.2711 -0.5303 -0.1662
   7623SM   H9F10064   0.314   5.033   5.970 -0.5948  1.0877 -0.9351
   7623SM   H9G10065   0.487   4.988   5.994  0.5643  0.2456 -0.1978
   7623SM  C10F10066   0.457   5.185   5.924 -0.1397 -0.3184 -0.2677
   7623SM  H10F10067   0.562   5.217   5.934  0.3137 -1.6142 -0.6187
   7623SM  H10G10068   0.392   5.268   5.959  1.3083  1.0899 -0.8527
   7623SM  C11F10069   0.443   5.150   5.774  0.6522  0.2038 -0.5062
   7623SM  H11F10070   0.342   5.113   5.748  0.1042  0.2407  1.4726
   7623SM  H11G10071   0.506   5.064   5.741  1.9609  0.4211  1.2977
   7623SM  C12F10072   0.472   5.273   5.691  0.4988  0.0667 -0.0089
   7623SM  H12F10073   0.579   5.299   5.709  0.6444  1.3512 -2.2887
   7623SM  H12G10074   0.422   5.364   5.731 -0.3240  0.8168 -2.4989
   7623SM  C13F10075   0.450   5.239   5.544 -0.4949 -0.3727 -0.1264
   7623SM  H13F10076   0.525   5.162   5.517 -1.4112 -1.6655  0.9076
   7623SM  H13G10077   0.471   5.332   5.487 -0.9372 -0.7735 -0.9766
   7623SM  C14F10078   0.303   5.209   5.514 -0.6748 -0.0770 -0.1731
   7623SM  H14F10079   0.228   5.277   5.560 -0.2603  0.7908 -0.7493
   7623SM  H14G10080   0.276   5.106   5.544  2.4397 -0.9666 -0.0169
   7623SM  C15F10081   0.283   5.215   5.362 -0.4475 -0.0892 -0.3841
   7623SM  H15F10082   0.376   5.173   5.317  0.9737 -0.4487  2.6433
   7623SM  H15G10083   0.283   5.322   5.333 -2.2993 -0.5073 -2.2177
   7623SM  C16F10084   0.163   5.152   5.310 -0.2964 -0.2036 -0.0913
   7623SM  H16F10085   0.071   5.196   5.355 -0.8472 -3.2228  2.0685
   7623SM  H16G10086   0.152   5.043   5.330 -0.3792 -0.4056 -1.1606
   7623SM  C17F10087   0.149   5.167   5.161 -0.0542  0.3684 -0.0923
   7623SM  H17F10088   0.220   5.097   5.112  0.1578  1.4733 -1.4351
   7623SM  H17G10089   0.182   5.267   5.126 -0.2389  1.1698  1.8914
   7623SM  C18F10090   0.009   5.145   5.116  0.1544  0.3127 -0.2875
   7623SM  H18F10091  -0.065   5.222   5.148  0.9937  1.5197 -1.1611
   7623SM  H18G10092  -0.028   5.053   5.166  1.1069 -0.0958 -0.3026
   7623SM  C19F10093  -0.004   5.130   4.962  0.7499  0.2768  0.2650
   7623SM  H19F10094   0.087   5.082   4.920 -0.4403 -1.7411 -0.1421
   7623SM  H19G10095   0.007   5.236   4.930  1.8938  0.3554  0.8451
   7623SM  C20F10096  -0.131   5.072   4.911  0.1394  0.2212 -0.2572
   7623SM  H20F10097  -0.214   5.143   4.930  0.0846 -0.6306  3.2668
   7623SM  H20G10098  -0.144   4.973   4.960 -0.8458 -0.0475 -1.0009
   7623SM  C21F10099  -0.115   5.056   4.763  0.2014 -0.1119  0.4884
   7623SM  H21F10100  -0.021   5.002   4.741 -0.9972 -1.1119 -2.6772
   7623SM  H21G10101  -0.113   5.161   4.725 -1.4137  0.1203  0.9652
   7623SM  C22F10102  -0.235   4.980   4.704 -0.3460 -0.1530  0.1091
   7623SM  H22F10103  -0.328   5.030   4.741  0.1700 -0.1776  1.5054
   7623SM  H22G10104  -0.235   4.883   4.758  0.9957  1.1631  2.6750
   7623SM  C23F10105  -0.244   4.971   4.552  0.2997 -0.6535  0.8181
   7623SM  H23F10106  -0.163   4.905   4.513 -0.4328 -0.9534 -0.2295
   7623SM  H23G10107  -0.240   5.069   4.500 -0.0912 -0.6230  0.8472
   7623SM  H23H10108  -0.335   4.924   4.509  1.5134 -0.6576 -1.9686
   7723SM     N10109   0.473   2.086   7.258  1.0820  0.2637  0.2865
   7723SM   C1510110   0.577   2.029   7.347  0.7672  0.2292 -0.2016
   7723SM  H15A10111   0.631   2.101   7.407 -0.0467 -0.0024  0.8408
   7723SM  H15B10112   0.651   1.977   7.288 -0.9218 -1.7213 -0.7005
   7723SM  H15C10113   0.526   1.952   7.404 -0.4796  0.4768 -0.9471
   7723SM   C1410114   0.407   1.971   7.190 -0.2117 -0.5891 -0.8332
   7723SM  H14A10115   0.404   1.891   7.262 -0.4714  0.8377  0.8035
   7723SM  H14B10116   0.447   1.928   7.099  0.6593  0.1415 -0.8070
   7723SM  H14C10117   0.302   1.990   7.172 -0.4839 -1.0657  0.1933
   7723SM   C1310118   0.369   2.160   7.339 -0.5276  0.4990 -0.6480
   7723SM  H13A10119   0.290   2.185   7.269 -1.1930  1.3873  0.3870
   7723SM  H13B10120   0.417   2.247   7.382  2.5157 -1.1297 -0.4805
   7723SM  H13C10121   0.339   2.100   7.424  1.3244  1.5305  0.8255
   7723SM   C1210122   0.531   2.180   7.156  0.2122  0.5830 -0.0454
   7723SM  H12A10123   0.448   2.200   7.090 -0.9707 -0.7204  0.9937
   7723SM  H12B10124   0.614   2.132   7.106 -0.0424 -0.3062  0.3769
   7723SM   C1110125   0.593   2.312   7.200 -0.9101  0.3017 -0.5843
   7723SM  H11A10126   0.638   2.360   7.111 -0.0505 -1.4092 -1.1125
   7723SM  H11B10127   0.679   2.289   7.266 -1.5629 -1.5684 -0.3302
   7723SM     P10128   0.388   2.470   7.170 -0.1112 -0.2065 -0.4138
   7723SM   O1310129   0.249   2.413   7.186  0.0925  0.4573  0.5860
   7723SM   O1410130   0.389   2.615   7.211 -0.0822  0.0871 -0.0908
   7723SM   O1110131   0.438   2.459   7.024  0.4916  0.3687  0.0749
   7723SM   O1210132   0.487   2.390   7.261 -0.1837 -0.0412  0.0133
   7723SM   C1S10133   0.353   2.511   6.925  0.3765  0.4862  1.2490
   7723SM   H1S10134   0.365   2.621   6.924 -0.0452  0.5303 -0.0038
   7723SM   H1T10135   0.244   2.489   6.938 -0.0600  1.8776  0.1935
   7723SM    NF10136   0.323   2.517   6.670  0.2476 -0.5470 -0.4516
   7723SM   HNF10137   0.236   2.481   6.638 -0.1271 -0.3489  0.3316
   7723SM   C2S10138   0.383   2.450   6.778  0.5339  0.3138 -0.0560
   7723SM   H2S10139   0.493   2.464   6.772  0.7774 -0.9779  0.9335
   7723SM   C3S10140   0.359   2.300   6.782 -0.6912  0.5124 -0.3288
   7723SM   H3S10141   0.252   2.287   6.812 -0.7099 -1.5298 -1.1270
   7723SM    O310142   0.448   2.233   6.877 -0.0212  0.2211  0.1074
   7723SM   HO310143   0.490   2.300   6.932  0.0986 -0.5110  0.9356
   7723SM   C4S10144   0.363   2.235   6.647 -0.5104 -0.5895  0.1932
   7723SM   H4S10145   0.279   2.268   6.584  1.1697  1.4508 -1.0978
   7723SM   C5S10146   0.452   2.149   6.595 -0.0825  0.2106  0.3576
   7723SM   H5S10147   0.537   2.115   6.656  0.7987  0.8638 -0.4729
   7723SM   C6S10148   0.440   2.095   6.459  0.0566 -0.8320  0.3022
   7723SM   H6S10149   0.425   1.985   6.464 -0.8391 -0.7075  0.5468
   7723SM   H6T10150   0.525   2.132   6.397  1.3829  1.3507  3.2005
   7723SM   C7S10151   0.308   2.126   6.380 -0.3189  0.1384 -0.2443
   7723SM   H7S10152   0.299   2.236   6.367  1.3168  0.2646 -0.6241
   7723SM   H7T10153   0.223   2.070   6.421  2.5709 -3.5977  1.1932
   7723SM   C8S10154   0.316   2.061   6.238 -0.1029 -0.2299 -0.2751
   7723SM   H8S10155   0.335   1.955   6.267 -2.6980 -1.3776 -2.3489
   7723SM   H8T10156   0.400   2.113   6.186 -0.7969  1.7973  0.5171
   7723SM   C9S10157   0.181   2.062   6.163  0.7839 -0.1022  0.5851
   7723SM   H9S10158   0.133   2.162   6.161  2.9392  1.1165 -3.9325
   7723SM   H9T10159   0.117   1.989   6.217  2.4667 -0.9473  1.5250
   7723SM  C10S10160   0.182   2.005   6.013  0.0676  0.1370 -1.2024
   7723SM  H10S10161   0.240   1.912   5.995 -1.0443 -0.1017 -4.1894
   7723SM  H10T10162   0.218   2.086   5.947 -2.1820 -0.2757 -3.1024
   7723SM  C11S10163   0.036   1.970   5.969 -0.2389  0.7584 -0.5322
   7723SM  H11S10164  -0.031   2.056   5.991  0.7097  1.0105  1.6403
   7723SM  H11T10165   0.003   1.884   6.031  1.2386  0.5167 -0.0150
   7723SM  C12S10166   0.026   1.924   5.820 -0.4639 -0.4142 -0.9172
   7723SM  H12S10167   0.089   1.833   5.812  0.0139 -0.0695 -1.1076
   7723SM  H12T10168   0.073   2.017   5.783  0.1021 -0.3449 -0.0575
   7723SM  C13S10169  -0.115   1.897   5.778 -0.0060 -0.8616  0.4705
   7723SM  H13S10170  -0.171   1.992   5.778  1.2839 -0.0752  0.3196
   7723SM  H13T10171  -0.170   1.825   5.842 -2.3550 -1.0416 -1.6023
   7723SM  C14S10172  -0.111   1.859   5.627  0.0698 -0.6956  0.2095
   7723SM  H14S10173  -0.046   1.769   5.618  2.3503  0.6541  2.0880
   7723SM  H14T10174  -0.064   1.937   5.565 -0.2399 -1.0668 -0.5034
   7723SM  C15S10175  -0.252   1.830   5.577  0.3388  0.3200 -0.1406
   7723SM  H15S10176  -0.308   1.926   5.570 -1.2751 -0.6207 -0.5345
   7723SM  H15T10177  -0.309   1.766   5.648  0.3146 -0.4495 -0.8413
   7723SM  C16S10178  -0.262   1.767   5.443 -0.5637  0.1671 -0.2512
   7723SM  H16S10179  -0.221   1.663   5.447 -0.2755  0.3108  0.9126
   7723SM  H16T10180  -0.193   1.826   5.380  0.4552  1.0001  1.5616
   7723SM  C17S10181  -0.396   1.770   5.376  0.7195 -0.1740 -0.1282
   7723SM  H17S10182  -0.436   1.873   5.384  0.2915 -0.4786  2.2257
   7723SM  H17T10183  -0.463   1.708   5.438 -1.4918  0.3697 -1.8404
   7723SM  C18S10184  -0.387   1.725   5.227 -0.1557  0.4991  0.5999
   7723SM  H18S10185  -0.487   1.746   5.185  1.2439 -0.4368 -3.6386
   7723SM  H18T10186  -0.366   1.616   5.222 -1.9252  0.1699 -0.4401
   7723SM  H18U10187  -0.320   1.778   5.156 -1.1082  1.1385  0.1706
   7723SM   C1F10188   0.371   2.640   6.632 -0.1670  0.3384  0.3003
   7723SM    OF10189   0.472   2.692   6.675  0.2189 -0.9719  0.3108
   7723SM   C2F10190   0.277   2.712   6.544  0.5988 -0.0672 -0.3175
   7723SM   H2F10191   0.245   2.794   6.612  0.4641 -0.2119 -0.2045
   7723SM   H2G10192   0.196   2.645   6.508  0.9377 -0.7364  0.1424
   7723SM   C3F10193   0.348   2.762   6.413  0.5959  0.5389 -0.7630
   7723SM   H3F10194   0.442   2.821   6.426  2.3104 -1.7586 -1.9565
   7723SM   H3G10195   0.270   2.817   6.357 -0.2232 -1.1373 -1.3350
   7723SM   C4F10196   0.391   2.644   6.324 -0.3433 -0.3668  0.2536
   7723SM   H4F10197   0.450   2.573   6.385 -0.3459 -0.0416  0.6385
   7723SM   H4G10198   0.456   2.700   6.253  2.4484  1.2904  3.7941
   7723SM   C5F10199   0.276   2.565   6.263  0.0971 -0.3031 -0.3940
   7723SM   H5F10200   0.214   2.638   6.207  2.0813  2.2866  0.6083
   7723SM   H5G10201   0.214   2.524   6.346 -0.0633  2.1149  0.7635
   7723SM   C6F10202   0.329   2.454   6.163  0.1531 -0.2286 -0.6315
   7723SM   H6F10203   0.248   2.393   6.118  0.1584 -0.0251 -0.9116
   7723SM   H6G10204   0.391   2.391   6.231 -0.1954  0.8760  0.7514
   7723SM   C7F10205   0.400   2.503   6.040  0.3059  0.4811  0.4223
   7723SM   H7F10206   0.445   2.415   5.990 -0.3954  0.8985 -1.0091
   7723SM   H7G10207   0.483   2.572   6.067  0.7923  0.7850 -1.6971
   7723SM   C8F10208   0.313   2.576   5.942  1.0496 -0.0975 -0.4706
   7723SM   H8F10209   0.266   2.663   5.992 -1.3045 -1.9791  0.7863
   7723SM   H8G10210   0.236   2.509   5.898  2.0063 -1.4599 -0.1565
   7723SM   C9F10211   0.403   2.608   5.823 -0.2649 -0.1499  0.3872
   7723SM   H9F10212   0.503   2.648   5.852  1.0016 -2.7328 -0.1382
   7723SM   H9G10213   0.347   2.690   5.774 -0.9305  0.4775  2.1376
   7723SM  C10F10214   0.420   2.492   5.719 -0.0990  0.3858  0.0968
   7723SM  H10F10215   0.330   2.449   5.671  0.8402  0.2224 -1.5968
   7723SM  H10G10216   0.479   2.406   5.756 -1.1790  0.6184  2.5813
   7723SM  C11F10217   0.509   2.528   5.589  0.0775 -0.5443  0.3496
   7723SM  H11F10218   0.617   2.529   5.617  0.6604  0.5618 -1.7166
   7723SM  H11G10219   0.480   2.632   5.561 -3.1491 -1.9421 -1.9622
   7723SM  C12F10220   0.479   2.432   5.466  0.3990 -0.6112 -0.9742
   7723SM  H12F10221   0.527   2.476   5.376 -2.9296  1.1965 -2.0558
   7723SM  H12G10222   0.369   2.423   5.452  0.2292 -1.5052  0.6880
   7723SM  C13F10223   0.539   2.298   5.486  0.1163  0.1139 -0.4176
   7723SM  H13F10224   0.478   2.237   5.556 -0.1881  0.8576 -0.0254
   7723SM  H13G10225   0.641   2.328   5.515  0.9855  0.3777 -3.4001
   7723SM  C14F10226   0.552   2.214   5.361 -0.2551  0.2840  0.0654
   7723SM  H14F10227   0.585   2.279   5.277 -0.8200 -0.4957 -0.7780
   7723SM  H14G10228   0.455   2.175   5.326 -0.2446  1.8517 -1.8976
   7723SM  C15F10229   0.656   2.109   5.376 -0.3184 -0.4857  0.2120
   7723SM  H15F10230   0.661   2.055   5.279 -0.8332 -0.4936  0.1896
   7723SM  H15G10231   0.636   2.030   5.451  0.8241 -1.4230 -0.4315
   7723SM  C16F10232   0.802   2.151   5.395  0.0871 -0.1681  0.4912
   7723SM  H16F10233   0.819   2.192   5.497  2.2341  0.4809 -0.0643
   7723SM  H16G10234   0.842   2.219   5.317 -0.7722 -0.9394 -0.6519
   7723SM  C17F10235   0.887   2.034   5.379 -0.2916  0.1913 -0.3641
   7723SM  H17F10236   0.897   2.013   5.270 -1.1021 -1.2497 -0.1756
   7723SM  H17G10237   0.838   1.945   5.422  0.8053 -1.0896 -1.6621
   7723SM  C18F10238   1.030   2.052   5.435 -0.4385 -0.2074  0.2784
   7723SM  H18F10239   1.018   2.058   5.545  2.2104  0.0839  0.6197
   7723SM  H18G10240   1.091   2.136   5.396 -1.0849  0.1077 -0.0786
   7723SM  C19F10241   1.111   1.926   5.414 -0.3415  0.3055 -0.3717
   7723SM  H19F10242   1.111   1.905   5.305  1.2133  0.3190 -0.4001
   7723SM  H19G10243   1.059   1.840   5.462  1.2214 -0.8327 -0.6396
   7723SM  C20F10244   1.256   1.933   5.454  0.3600  0.6046  0.3696
   7723SM  H20F10245   1.257   1.991   5.549 -2.2911  1.4860 -0.0362
   7723SM  H20G10246   1.299   1.992   5.371  0.2765 -0.5396 -0.5200
   7723SM  C21F10247   1.335   1.803   5.457 -0.2541 -0.0829 -0.2524
   7723SM  H21F10248   1.320   1.725   5.380  0.1055 -2.3149  1.8134
   7723SM  H21G10249   1.291   1.751   5.545 -0.2134  0.4414  0.0868
   7723SM  C22F10250   1.481   1.851   5.476  0.1755 -0.1134  0.4769
   7723SM  H22F10251   1.477   1.921   5.562  0.1578  0.6292 -0.1215
   7723SM  H22G10252   1.520   1.904   5.386 -0.2333 -0.4958  0.0727
   7723SM  C23F10253   1.587   1.738   5.486  0.4152  0.4360  0.3828
   7723SM  H23F10254   1.560   1.687   5.581 -0.5473 -1.0403 -0.6357
   7723SM  H23G10255   1.694   1.764   5.503  0.1030  1.3493  1.0520
   7723SM  H23H10256   1.572   1.680   5.393 -0.5562 -0.0158  0.8121
   7823SM     N10257   1.860   0.133   6.865 -0.0272 -0.2018 -0.2035
   7823SM   C1510258   1.960   0.026   6.871  0.3290  0.1162  0.3598
   7823SM  H15A10259   1.947  -0.032   6.782 -3.1706 -0.3504  1.0339
   7823SM  H15B10260   1.927  -0.035   6.953 -0.4835  0.2973  0.1691
   7823SM  H15C10261   2.061   0.062   6.891  0.3638 -0.1444  0.6598
   7823SM   C1410262   1.894   0.253   6.949  0.0301 -0.9136  0.0270
   7823SM  H14A10263   1.866   0.247   7.053  1.6948  1.3075  0.6610
   7823SM  H14B10264   1.841   0.340   6.912  0.5776  0.6808  2.7105
   7823SM  H14C10265   2.000   0.272   6.940 -0.3601  0.5330 -3.9676
   7823SM   C1310266   1.859   0.171   6.718 -0.3882 -0.9234  0.0478
   7823SM  H13A10267   1.958   0.213   6.701 -0.4607 -0.5140  0.5895
   7823SM  H13B10268   1.793   0.251   6.689 -0.4655 -0.8385  0.4474
   7823SM  H13C10269   1.826   0.081   6.670 -0.2539 -0.5545 -0.7458
   7823SM   C1210270   1.718   0.089   6.900 -0.5500 -0.4078  0.3998
   7823SM  H12A10271   1.682   0.016   6.828 -0.3914  0.8936 -1.0393
   7823SM  H12B10272   1.645   0.168   6.893 -1.6118 -1.4916 -1.9168
   7823SM   C1110273   1.699   0.033   7.047  0.4471  0.3329 -0.0488
   7823SM  H11A10274   1.591   0.035   7.070  0.7387 -0.3333  1.5623
   7823SM  H11B10275   1.733   0.112   7.118 -2.0107  1.0896  0.3707
   7823SM     P10276   1.683  -0.228   7.042 -0.1827 -0.0100  0.2419
   7823SM   O1310277   1.763  -0.335   7.102 -0.0619  0.1493  0.6725
   7823SM   O1410278   1.540  -0.213   7.080 -0.5012  0.0858 -0.6946
   7823SM   O1110279   1.693  -0.235   6.890 -0.1443  0.0371 -0.3215
   7823SM   O1210280   1.756  -0.092   7.082 -0.4798  0.2208  1.0681
   7823SM   C1S10281   1.643  -0.350   6.816 -0.0206 -0.3639 -0.7036
   7823SM   H1S10282   1.534  -0.329   6.807 -0.4589 -1.5725  1.2048
   7823SM   H1T10283   1.659  -0.445   6.870 -0.6078  0.6507  1.3594
   7823SM    NF10284   1.600  -0.435   6.583 -0.5853  0.3297  0.0109
   7823SM   HNF10285   1.635  -0.523   6.553 -1.2855 -0.0966  0.4048
   7823SM   C2S10286   1.698  -0.369   6.664  0.3907 -0.2021 -0.3161
   7823SM   H2S10287   1.701  -0.266   6.623 -0.1882  0.6645  1.7005
   7823SM   C3S10288   1.846  -0.419   6.667 -0.2627 -0.6686  0.5192
   7823SM   H3S10289   1.858  -0.523   6.703  1.8578 -0.1606  1.4329
   7823SM    O310290   1.915  -0.336   6.762 -0.0113  0.6061  0.3816
   7823SM   HO310291   1.849  -0.277   6.800 -0.2439  0.8481 -0.3701
   7823SM   C4S10292   1.924  -0.407   6.533  0.1608  0.3370 -0.6474
   7823SM   H4S10293   1.978  -0.315   6.506 -0.9272  1.5688  1.1766
   7823SM   C5S10294   1.930  -0.507   6.447 -0.0934  0.4299 -0.0900
   7823SM   H5S10295   1.868  -0.595   6.471 -0.8297  1.5021  2.2398
   7823SM   C6S10296   1.990  -0.497   6.315 -0.3312 -0.0676  0.9873
   7823SM   H6S10297   2.072  -0.570   6.300  0.5993  1.5053 -2.3926
   7823SM   H6T10298   2.016  -0.396   6.278 -0.2844 -0.5221 -0.2468
   7823SM   C7S10299   1.887  -0.540   6.208 -0.2077 -0.3472  0.3870
   7823SM   H7S10300   1.791  -0.484   6.211  1.1418  2.1284 -0.0080
   7823SM   H7T10301   1.865  -0.648   6.220 -0.2566 -0.5925 -1.6077
   7823SM   C8S10302   1.937  -0.537   6.064 -0.5914  0.1142  0.2285
   7823SM   H8S10303   2.017  -0.611   6.038 -0.2873  1.4832 -3.3123
   7823SM   H8T10304   1.991  -0.445   6.036  1.1749 -0.2423  2.1741
   7823SM   C9S10305   1.826  -0.562   5.958 -0.1022 -0.1088  0.1358
   7823SM   H9S10306   1.759  -0.474   5.964  0.1138  0.1033 -0.5157
   7823SM   H9T10307   1.773  -0.653   5.994 -0.3594  0.4787  1.3111
   7823SM  C10S10308   1.879  -0.574   5.820 -0.3783  0.5172  1.2114
   7823SM  H10S10309   1.917  -0.675   5.796 -2.4241 -0.0977  0.3302
   7823SM  H10T10310   1.960  -0.498   5.818 -1.8746  2.2364 -1.2458
   7823SM  C11S10311   1.763  -0.550   5.729  0.1312 -0.2757  0.0846
   7823SM  H11S10312   1.728  -0.445   5.739  0.3912 -0.3308  1.9720
   7823SM  H11T10313   1.680  -0.619   5.756  0.5482 -0.8379 -0.0506
   7823SM  C12S10314   1.803  -0.578   5.588 -0.3034  0.6024 -0.6250
   7823SM  H12S10315   1.831  -0.686   5.586  0.9736  0.9053  0.0057
   7823SM  H12T10316   1.899  -0.524   5.573  1.5310 -2.1379  0.4693
   7823SM  C13S10317   1.714  -0.544   5.470 -0.0023  0.0108  1.8057
   7823SM  H13S10318   1.686  -0.436   5.474  0.7948  0.4275 -1.1374
   7823SM  H13T10319   1.613  -0.589   5.470 -0.6811  1.4452  1.4771
   7823SM  C14S10320   1.768  -0.583   5.326 -0.3042 -0.7136 -0.0764
   7823SM  H14S10321   1.829  -0.675   5.331  4.2263  1.8689 -1.7195
   7823SM  H14T10322   1.847  -0.510   5.300  0.1055 -0.2979  2.1288
   7823SM  C15S10323   1.671  -0.610   5.209 -0.2455  0.2540  0.7881
   7823SM  H15S10324   1.621  -0.709   5.217  0.7437 -0.5836 -2.3030
   7823SM  H15T10325   1.721  -0.619   5.110 -0.1737  0.9196  0.7588
   7823SM  C16S10326   1.559  -0.507   5.193 -0.0390  0.2933 -0.2512
   7823SM  H16S10327   1.538  -0.476   5.297  4.1657  0.9012  0.5881
   7823SM  H16T10328   1.464  -0.540   5.145 -1.0824  0.3399  1.7199
   7823SM  C17S10329   1.600  -0.380   5.126 -0.4643 -0.3372 -1.0531
   7823SM  H17S10330   1.694  -0.353   5.180 -0.0431 -1.5665 -1.1211
   7823SM  H17T10331   1.528  -0.299   5.149 -1.7313 -2.2132  2.2729
   7823SM  C18S10332   1.649  -0.390   4.981  0.3783  0.3304 -0.5650
   7823SM  H18S10333   1.721  -0.474   4.971  0.0332 -0.0213 -0.1112
   7823SM  H18T10334   1.701  -0.303   4.934 -1.1478  1.0646 -0.9762
   7823SM  H18U10335   1.565  -0.418   4.913 -0.9673  1.3457  0.6046
   7823SM   C1F10336   1.483  -0.397   6.546 -0.4258 -0.6102 -0.0484
   7823SM    OF10337   1.449  -0.289   6.591  0.2624 -0.7096  0.1702
   7823SM   C2F10338   1.396  -0.475   6.441 -0.5666  0.0502 -0.4737
   7823SM   H2F10339   1.339  -0.556   6.492 -1.4389  0.6540 -0.4599
   7823SM   H2G10340   1.458  -0.517   6.359 -0.5579 -1.4514  0.2672
   7823SM   C3F10341   1.297  -0.371   6.384  0.1976 -0.3883  0.7150
   7823SM   H3F10342   1.363  -0.289   6.348  1.2269 -0.1440  2.9747
   7823SM   H3G10343   1.231  -0.333   6.464  0.6310  1.6856  0.1528
   7823SM   C4F10344   1.226  -0.425   6.261  0.3828  0.3000 -0.0781
   7823SM   H4F10345   1.150  -0.355   6.221  1.0308  0.0828 -1.7695
   7823SM   H4G10346   1.180  -0.522   6.290 -0.0787  0.9287  1.4044
   7823SM   C5F10347   1.317  -0.466   6.140 -0.1256 -0.3790 -0.5652
   7823SM   H5F10348   1.379  -0.555   6.164 -0.1460 -0.8030 -1.9690
   7823SM   H5G10349   1.392  -0.387   6.118 -0.1096 -0.5202 -1.0352
   7823SM   C6F10350   1.229  -0.480   6.016 -0.2035  1.1065 -0.3270
   7823SM   H6F10351   1.171  -0.387   6.002  0.4396  1.8592  1.5890
   7823SM   H6G10352   1.168  -0.570   6.038  1.1357  0.1961 -0.1818
   7823SM   C7F10353   1.307  -0.530   5.894 -0.4428 -0.4432  0.4534
   7823SM   H7F10354   1.382  -0.610   5.912  0.8507  0.7652  0.6052
   7823SM   H7G10355   1.367  -0.441   5.867 -1.7726  0.7264  1.2402
   7823SM   C8F10356   1.215  -0.567   5.769 -0.5576 -0.1103  0.0822
   7823SM   H8F10357   1.166  -0.472   5.737  1.7764  0.9014 -0.6485
   7823SM   H8G10358   1.139  -0.642   5.801  0.2963 -0.1325  2.2393
   7823SM   C9F10359   1.298  -0.622   5.652  0.2825 -0.0686  1.1991
   7823SM   H9F10360   1.373  -0.698   5.685  0.5296 -1.4044 -2.0529
   7823SM   H9G10361   1.360  -0.540   5.611 -2.0112  0.9981 -0.3187
   7823SM  C10F10362   1.203  -0.667   5.532 -0.6286 -0.4913 -0.1234
   7823SM  H10F10363   1.118  -0.596   5.539  0.0912  0.3113  0.7259
   7823SM  H10G10364   1.146  -0.761   5.545 -1.3258  0.3378  4.0467
   7823SM  C11F10365   1.276  -0.657   5.396  0.2843 -0.2767 -0.2769
   7823SM  H11F10366   1.352  -0.737   5.389  2.6427  1.7259  0.8556
   7823SM  H11G10367   1.318  -0.556   5.373  0.6071 -0.8259 -2.2624
   7823SM  C12F10368   1.173  -0.692   5.288  0.1642  0.5613  0.1976
   7823SM  H12F10369   1.220  -0.680   5.188 -1.0597  1.3936 -0.3002
   7823SM  H12G10370   1.089  -0.619   5.282 -0.0754  0.1842 -1.4598
   7823SM  C13F10371   1.106  -0.825   5.299  0.1786 -0.2904 -0.2496
   7823SM  H13F10372   1.024  -0.831   5.374  2.0181  1.8536  2.1178
   7823SM  H13G10373   1.180  -0.903   5.323  1.5023 -0.0736 -3.2121
   7823SM  C14F10374   1.052  -0.857   5.162  0.3256  0.3766  0.0114
   7823SM  H14F10375   1.132  -0.865   5.086  0.7327  0.4316  0.4302
   7823SM  H14G10376   0.988  -0.782   5.112 -0.4116 -1.7231 -2.4247
   7823SM  C15F10377   0.982  -0.997   5.167  0.0250 -0.2831 -0.5606
   7823SM  H15F10378   0.887  -0.988   5.224  0.3788  0.4965 -0.0694
   7823SM  H15G10379   1.044  -1.066   5.227  0.6439  1.1856  0.5553
   7823SM  C16F10380   0.945  -1.053   5.031  0.0694 -0.6009  0.1844
   7823SM  H16F10381   1.030  -1.060   4.960  0.0669 -1.2653  0.2415
   7823SM  H16G10382   0.860  -0.993   4.991  0.3301 -0.3499  0.0093
   7823SM  C17F10383   0.898  -1.201   5.028  0.2574 -0.1241 -0.4416
   7823SM  H17F10384   0.952  -1.256   5.109 -1.8795 -0.6296  0.7116
   7823SM  H17G10385   0.934  -1.253   4.937  2.3525  0.4349  0.0056
   7823SM  C18F10386   0.750  -1.221   5.047 -0.1224 -0.2197 -0.5784
   7823SM  H18F10387   0.691  -1.188   4.959  0.1509 -0.1506 -0.7386
   7823SM  H18G10388   0.718  -1.166   5.138  0.0541  0.5915 -0.9937
   7823SM  C19F10389   0.713  -1.365   5.075 -0.4059  0.9577  0.1603
   7823SM  H19F10390   0.785  -1.417   5.142 -0.1956  0.3177 -0.5499
   7823SM  H19G10391   0.718  -1.425   4.982  0.2929 -0.4624  1.0781
   7823SM  C20F10392   0.571  -1.381   5.137 -1.5092  0.1114  0.1472
   7823SM  H20F10393   0.503  -1.341   5.058 -1.9298  0.6787  0.7921
   7823SM  H20G10394   0.567  -1.317   5.227  0.7598 -0.7020  0.9073
   7823SM  C21F10395   0.526  -1.527   5.163  0.3111 -0.0910 -0.5353
   7823SM  H21F10396   0.601  -1.576   5.228  0.2006  0.2338 -0.1545
   7823SM  H21G10397   0.526  -1.576   5.064  1.0374  0.6518 -0.9176
   7823SM  C22F10398   0.380  -1.543   5.221 -0.1669  0.1783 -0.1878
   7823SM  H22F10399   0.359  -1.650   5.204  1.7037 -0.5109  1.4619
   7823SM  H22G10400   0.302  -1.489   5.162 -0.2991 -0.0166 -0.1922
   7823SM  C23F10401   0.372  -1.506   5.370  0.1561 -0.2450  0.5550
   7823SM  H23F10402   0.452  -1.561   5.423  0.7918 -1.1875 -1.2977
   7823SM  H23G10403   0.281  -1.528   5.430  0.1842  0.2912  0.8092
   7823SM  H23H10404   0.384  -1.396   5.378 -0.3542 -0.1235 -0.2971
   7923SM     N10405   7.517   7.164   7.252 -0.5530 -0.1572  0.3609
   7923SM   C1510406   7.439   7.041   7.229  0.4010 -0.1223 -0.1565
   7923SM  H15A10407   7.470   6.999   7.134  3.0217 -1.0527  1.0417
   7923SM  H15B10408   7.334   7.067   7.226  0.6262  1.0844  1.5232
   7923SM  H15C10409   7.462   6.960   7.296  2.2572 -0.5086 -1.1884
   7923SM   C1410410   7.523   7.176   7.404 -0.1189  0.0863 -0.2864
   7923SM  H14A10411   7.582   7.265   7.422  1.3528 -1.1075  1.1344
   7923SM  H14B10412   7.581   7.090   7.436 -0.3618  0.2873  0.7240
   7923SM  H14C10413   7.423   7.182   7.442 -0.8923 -0.4948 -2.1304
   7923SM   C1310414   7.651   7.153   7.191  0.3637  0.3174  0.1778
   7923SM  H13A10415   7.698   7.063   7.230  0.4266  0.5586  0.6685
   7923SM  H13B10416   7.719   7.235   7.209  0.7268  0.9125 -3.2123
   7923SM  H13C10417   7.639   7.153   7.084 -0.8953 -0.2213  0.2953
   7923SM   C1210418   7.456   7.285   7.191 -0.1205  0.0015 -0.2885
   7923SM  H12A10419   7.369   7.308   7.253  0.9411  0.1796  1.1969
   7923SM  H12B10420   7.410   7.262   7.096 -1.9787  1.1965  0.2580
   7923SM   C1110421   7.536   7.417   7.163  0.1414 -0.5715  0.0014
   7923SM  H11A10422   7.462   7.492   7.128  0.3888 -0.8290 -1.1073
   7923SM  H11B10423   7.621   7.408   7.092  0.7471 -1.1131  0.7773
   7923SM     P10424   7.539   7.579   7.374 -0.2179 -0.3439 -0.0808
   7923SM   O1310425   7.422   7.527   7.444  0.1485  0.8761  0.1720
   7923SM   O1410426   7.651   7.620   7.465 -0.0705 -0.1898  0.1440
   7923SM   O1110427   7.496   7.693   7.275  0.1440  0.2841  0.8427
   7923SM   O1210428   7.599   7.465   7.277  0.3846  0.0815  0.0117
   7923SM   C1S10429   7.577   7.761   7.182 -0.0048  0.2061 -0.8055
   7923SM   H1S10430   7.675   7.712   7.164  0.3431  1.1213 -1.4924
   7923SM   H1T10431   7.599   7.863   7.221  1.4661 -0.4636  0.2129
   7923SM    NF10432   7.593   7.838   6.956  0.7484 -0.9733 -0.5918
   7923SM   HNF10433   7.611   7.934   6.977 -0.4803 -1.3361  2.7513
   7923SM   C2S10434   7.499   7.780   7.050  0.1327 -0.0646 -0.2095
   7923SM   H2S10435   7.467   7.682   7.008  0.7153 -0.4516  0.2272
   7923SM   C3S10436   7.367   7.862   7.072 -0.8541 -0.2165  0.6137
   7923SM   H3S10437   7.381   7.961   7.119  0.3119 -0.6045  1.1233
   7923SM    O310438   7.278   7.793   7.162 -0.3959 -0.1126  0.0408
   7923SM   HO310439   7.333   7.725   7.202  0.2913  0.7451  0.5894
   7923SM   C4S10440   7.298   7.894   6.939  0.2359 -0.3106  0.0984
   7923SM   H4S10441   7.323   7.991   6.893  0.2744 -0.7388 -0.8141
   7923SM   C5S10442   7.204   7.827   6.867 -0.3093 -0.7435 -0.2742
   7923SM   H5S10443   7.171   7.730   6.908 -0.6356 -0.6643 -0.3463
   7923SM   C6S10444   7.140   7.866   6.736 -0.1769  0.5129 -0.2011
   7923SM   H6S10445   7.031   7.850   6.751 -0.0482  1.1573  1.8024
   7923SM   H6T10446   7.179   7.793   6.662 -0.7417 -1.0969  1.0390
   7923SM   C7S10447   7.146   8.013   6.696  0.1880 -0.2188  0.9539
   7923SM   H7S10448   7.254   8.034   6.678 -0.4077  2.3978 -0.1291
   7923SM   H7T10449   7.112   8.090   6.769  0.2421  0.6862  0.0561
   7923SM   C8S10450   7.068   8.040   6.565 -0.8001 -0.1828 -0.2790
   7923SM   H8S10451   7.117   7.970   6.494  0.3405  0.4148 -0.1054
   7923SM   H8T10452   7.095   8.144   6.536  1.1895  0.4589  3.3036
   7923SM   C9S10453   6.919   8.016   6.585  0.9129  0.4065  0.1671
   7923SM   H9S10454   6.878   8.038   6.686 -0.0671  0.7414 -0.2882
   7923SM   H9T10455   6.898   7.907   6.578 -0.0838  0.6933 -2.9322
   7923SM  C10S10456   6.839   8.091   6.477 -0.4352  0.2758 -0.4206
   7923SM  H10S10457   6.874   8.062   6.376  0.8539  3.7257 -1.1006
   7923SM  H10T10458   6.862   8.200   6.480 -1.8946  0.7369 -3.1766
   7923SM  C11S10459   6.688   8.077   6.482 -0.0728 -0.2496 -0.5732
   7923SM  H11S10460   6.643   8.106   6.580  0.8269  0.1123 -0.2599
   7923SM  H11T10461   6.672   7.968   6.469  2.1588 -0.4948 -1.8193
   7923SM  C12S10462   6.614   8.155   6.370 -0.3483 -0.5331  0.1437
   7923SM  H12S10463   6.669   8.131   6.276  0.3775 -0.6266  0.5852
   7923SM  H12T10464   6.622   8.264   6.394  0.4195  0.1058 -2.6543
   7923SM  C13S10465   6.470   8.122   6.355  0.0484  0.1442 -1.2409
   7923SM  H13S10466   6.414   8.198   6.415  0.7662  0.1839 -0.6099
   7923SM  H13T10467   6.463   8.021   6.400  0.7155  1.5934  2.4985
   7923SM  C14S10468   6.427   8.109   6.218 -0.3567 -0.1443  0.2573
   7923SM  H14S10469   6.429   8.199   6.152 -0.0835 -0.9590 -0.8727
   7923SM  H14T10470   6.318   8.088   6.223 -0.6226  0.8867 -0.6987
   7923SM  C15S10471   6.486   7.991   6.133  0.0654  0.0719  0.2404
   7923SM  H15S10472   6.455   7.894   6.177 -0.7892 -0.7412 -2.0235
   7923SM  H15T10473   6.593   7.993   6.105 -0.8264 -1.5457 -4.0497
   7923SM  C16S10474   6.425   7.989   5.993  0.3350 -0.0647 -0.0677
   7923SM  H16S10475   6.419   8.092   5.949  1.1085  0.0456  0.0695
   7923SM  H16T10476   6.318   7.961   5.996 -0.3389  1.7209 -2.9644
   7923SM  C17S10477   6.511   7.918   5.893 -0.2771  0.0240 -0.2128
   7923SM  H17S10478   6.538   7.826   5.950 -2.0903 -0.5253 -0.1721
   7923SM  H17T10479   6.598   7.977   5.859  1.3161 -2.7565 -1.3080
   7923SM  C18S10480   6.432   7.887   5.768 -0.1430  0.2875  0.0452
   7923SM  H18S10481   6.495   7.828   5.698 -0.2966 -1.7384  1.5132
   7923SM  H18T10482   6.398   7.982   5.722  0.4674  0.2608 -0.4689
   7923SM  H18U10483   6.339   7.839   5.806 -0.6344  1.9681  1.0771
   7923SM   C1F10484   7.692   7.766   6.908 -0.2972  0.0186  0.6599
   7923SM    OF10485   7.702   7.645   6.922  1.3492 -0.1913 -0.2071
   7923SM   C2F10486   7.797   7.835   6.828 -0.6408 -0.0708 -0.0446
   7923SM   H2F10487   7.888   7.857   6.888 -0.9923  0.8365  0.1709
   7923SM   H2G10488   7.770   7.939   6.798 -2.3813 -0.6158 -0.4699
   7923SM   C3F10489   7.819   7.756   6.698  0.0279  0.4512 -0.4650
   7923SM   H3F10490   7.869   7.661   6.728  0.0389  0.5579 -0.1445
   7923SM   H3G10491   7.901   7.799   6.636 -0.4243  0.0890 -1.3352
   7923SM   C4F10492   7.701   7.733   6.606  0.3700  0.0174 -0.2917
   7923SM   H4F10493   7.617   7.690   6.664 -0.4260 -0.2753 -1.6177
   7923SM   H4G10494   7.740   7.662   6.530  0.1591 -0.8840  0.4252
   7923SM   C5F10495   7.642   7.859   6.540 -0.3296 -0.1687  0.4003
   7923SM   H5F10496   7.707   7.902   6.461 -0.4568  2.5531  1.6818
   7923SM   H5G10497   7.643   7.939   6.617 -0.2445 -0.1330  0.3624
   7923SM   C6F10498   7.503   7.829   6.482 -0.6415  0.5126 -0.2553
   7923SM   H6F10499   7.462   7.923   6.438 -0.8601  1.0231  0.9997
   7923SM   H6G10500   7.446   7.799   6.572 -0.2584  0.5262 -0.0044
   7923SM   C7F10501   7.499   7.717   6.380  0.5490  0.5178 -0.1346
   7923SM   H7F10502   7.547   7.626   6.422  2.0007  0.3636 -2.0041
   7923SM   H7G10503   7.556   7.737   6.287 -0.2933  0.8106 -0.5945
   7923SM   C8F10504   7.358   7.675   6.346 -0.3743 -0.6588 -0.5717
   7923SM   H8F10505   7.310   7.771   6.319  0.3950 -0.5258 -1.4861
   7923SM   H8G10506   7.322   7.646   6.448  0.5636  1.5503  0.4640
   7923SM   C9F10507   7.348   7.575   6.240 -1.0919 -0.2977 -0.5023
   7923SM   H9F10508   7.395   7.485   6.286 -1.4928 -0.9866 -1.3925
   7923SM   H9G10509   7.393   7.609   6.145 -0.5356 -0.6351 -0.3664
   7923SM  C10F10510   7.204   7.529   6.208  0.0949 -0.2015 -0.5753
   7923SM  H10F10511   7.145   7.606   6.154 -0.2083  0.4180  0.6140
   7923SM  H10G10512   7.145   7.523   6.301 -0.5906  1.6238 -0.8454
   7923SM  C11F10513   7.194   7.395   6.137 -0.0119 -0.1376  0.0966
   7923SM  H11F10514   7.094   7.350   6.119  0.0143  0.6630 -2.3635
   7923SM  H11G10515   7.236   7.335   6.221 -1.9991  0.1381  1.3606
   7923SM  C12F10516   7.267   7.358   6.010 -0.8170  0.7720 -0.7245
   7923SM  H12F10517   7.251   7.249   5.993 -1.6460  0.7710 -0.0330
   7923SM  H12G10518   7.375   7.364   6.034 -0.4986  0.6242 -2.0678
   7923SM  C13F10519   7.239   7.429   5.881  0.2814 -0.9952  0.5518
   7923SM  H13F10520   7.320   7.394   5.812  1.2583 -0.1989  1.2681
   7923SM  H13G10521   7.254   7.537   5.903 -0.8896 -0.6907 -0.0721
   7923SM  C14F10522   7.112   7.376   5.817 -0.0604  0.2764  0.2662
   7923SM  H14F10523   7.101   7.428   5.720  1.1925 -0.5688 -0.3551
   7923SM  H14G10524   7.019   7.394   5.875  0.4113 -0.4990  1.3055
   7923SM  C15F10525   7.128   7.226   5.792 -0.4343  0.2495  0.3464
   7923SM  H15F10526   7.092   7.158   5.872 -2.1265 -0.8368 -1.2484
   7923SM  H15G10527   7.236   7.207   5.777 -0.1598  1.2763  0.9932
   7923SM  C16F10528   7.055   7.179   5.665 -0.3491 -0.0703 -0.6321
   7923SM  H16F10529   7.099   7.081   5.637  1.2235 -0.7691  3.6242
   7923SM  H16G10530   7.066   7.256   5.585 -1.2142 -0.1072 -0.7973
   7923SM  C17F10531   6.903   7.153   5.687  0.2255  0.3352  0.2765
   7923SM  H17F10532   6.853   7.251   5.706 -2.4031 -1.1875  1.8361
   7923SM  H17G10533   6.894   7.099   5.783 -2.8511  0.9207  0.4255
   7923SM  C18F10534   6.844   7.079   5.566 -0.0226 -0.3503 -0.2370
   7923SM  H18F10535   6.755   7.024   5.603  0.9929 -1.3639  0.7698
   7923SM  H18G10536   6.924   7.008   5.536 -0.0368 -0.7149  0.5757
   7923SM  C19F10537   6.824   7.179   5.449 -0.3728  0.1214  0.7967
   7923SM  H19F10538   6.921   7.225   5.423 -0.8301  0.6859  0.0272
   7923SM  H19G10539   6.760   7.263   5.485 -0.0179  0.7175  0.0805
   7923SM  C20F10540   6.767   7.105   5.323  0.6040 -0.0975 -0.0631
   7923SM  H20F10541   6.823   7.011   5.305 -1.3337 -1.7177  1.9420
   7923SM  H20G10542   6.783   7.163   5.229 -1.2997 -0.8612 -0.9139
   7923SM  C21F10543   6.618   7.056   5.330  0.5571 -0.1658  0.5598
   7923SM  H21F10544   6.563   7.123   5.400  0.6480 -1.3856  1.8284
   7923SM  H21G10545   6.612   6.953   5.368 -1.6150 -0.1722  0.3306
   7923SM  C22F10546   6.540   7.050   5.195 -0.1984  0.4375 -0.1576
   7923SM  H22F10547   6.537   7.150   5.147 -0.4055 -0.8813 -3.1503
   7923SM  H22G10548   6.435   7.017   5.209  0.0049  0.1690  0.7755
   7923SM  C23F10549   6.591   6.946   5.088 -0.0758  0.3880  0.0476
   7923SM  H23F10550   6.684   6.982   5.038  0.2797 -2.2345 -1.3353
   7923SM  H23G10551   6.516   6.939   5.008  0.1050  3.0245 -0.4220
   7923SM  H23H10552   6.601   6.844   5.131 -1.0231  0.4116  0.3353
   8023SM     N10553   0.529   7.658   7.403 -0.5889 -0.1374 -0.5635
   8023SM   C1510554   0.387   7.611   7.417  0.2521 -0.4891 -0.8586
   8023SM  H15A10555   0.389   7.511   7.456  0.6578 -0.3182 -0.4337
   8023SM  H15B10556   0.342   7.612   7.318 -0.2856 -0.4785 -0.6159
   8023SM  H15C10557   0.327   7.677   7.477  2.3286  0.3174  0.4346
   8023SM   C1410558   0.543   7.769   7.301  0.4508 -0.6349  0.4131
   8023SM  H14A10559   0.503   7.860   7.343  0.3455 -1.2191  1.6293
   8023SM  H14B10560   0.501   7.730   7.209 -1.0752 -0.0610  0.8253
   8023SM  H14C10561   0.648   7.781   7.279  0.3877 -0.8660 -0.0250
   8023SM   C1310562   0.566   7.710   7.545  0.2093  0.0731  0.4574
   8023SM  H13A10563   0.502   7.790   7.579 -0.6570 -0.2451 -0.3659
   8023SM  H13B10564   0.667   7.748   7.533 -0.1610  0.4970 -1.6848
   8023SM  H13C10565   0.567   7.625   7.612  0.1329 -0.4955 -0.2510
   8023SM   C1210566   0.616   7.544   7.368 -0.5976  0.0998 -0.1351
   8023SM  H12A10567   0.596   7.476   7.449  2.2669  0.6370  1.1628
   8023SM  H12B10568   0.720   7.574   7.374 -1.1203  2.4973 -1.6929
   8023SM   C1110569   0.612   7.476   7.232 -0.0973 -0.5376 -0.0124
   8023SM  H11A10570   0.518   7.436   7.188 -1.0100  1.9107 -0.4678
   8023SM  H11B10571   0.674   7.385   7.249 -0.9170 -1.3282 -1.0939
   8023SM     P10572   0.823   7.611   7.159 -0.0332 -0.2287  0.3068
   8023SM   O1310573   0.816   7.760   7.190 -0.4370  0.1183  0.5021
   8023SM   O1410574   0.897   7.526   7.257  0.1189  0.3080  0.2491
   8023SM   O1110575   0.883   7.588   7.011  0.2151 -0.0512 -1.0210
   8023SM   O1210576   0.676   7.564   7.142 -0.1687 -0.0514 -0.1113
   8023SM   C1S10577   0.854   7.695   6.920 -0.2403 -0.0966 -0.8306
   8023SM   H1S10578   0.881   7.794   6.964 -2.1114 -0.2194  0.7621
   8023SM   H1T10579   0.745   7.696   6.903 -0.2286  0.5417 -0.8839
   8023SM    NF10580   0.875   7.790   6.681  0.2052  0.1713 -0.0784
   8023SM   HNF10581   0.797   7.774   6.620 -1.3250  0.7743  1.6337
   8023SM   C2S10582   0.897   7.672   6.773 -0.6418 -0.6941  0.4855
   8023SM   H2S10583   1.008   7.665   6.784 -0.6721  0.7922  2.2579
   8023SM   C3S10584   0.852   7.539   6.720  0.6900 -0.7681  0.0233
   8023SM   H3S10585   0.745   7.557   6.694  1.1718 -1.2187 -2.6054
   8023SM    O310586   0.853   7.425   6.805  0.1309 -0.0025  0.0968
   8023SM   HO310587   0.883   7.458   6.890 -0.8403  0.7408  0.1642
   8023SM   C4S10588   0.917   7.498   6.593 -0.0898  0.0943  0.0068
   8023SM   H4S10589   1.024   7.476   6.600 -0.2514 -0.3878  1.1597
   8023SM   C5S10590   0.845   7.467   6.483  0.0455 -0.8951  0.8530
   8023SM   H5S10591   0.736   7.474   6.475  0.2925  1.5539 -3.4953
   8023SM   C6S10592   0.923   7.445   6.356 -0.1724  0.4758 -0.1433
   8023SM   H6S10593   0.953   7.339   6.342  2.2872  1.0115  0.5978
   8023SM   H6T10594   1.022   7.494   6.363 -1.6577  3.4078  3.1573
   8023SM   C7S10595   0.858   7.480   6.222  0.2046 -0.5356  0.5699
   8023SM   H7S10596   0.860   7.590   6.209  1.1355 -0.6566 -0.4086
   8023SM   H7T10597   0.750   7.453   6.224  0.1152 -0.1965  0.4439
   8023SM   C8S10598   0.922   7.422   6.092 -0.6061 -0.8329 -0.2671
   8023SM   H8S10599   0.926   7.312   6.103  1.4447 -0.7589  0.1192
   8023SM   H8T10600   1.025   7.465   6.087  0.2556 -2.6101  1.1304
   8023SM   C9S10601   0.856   7.467   5.963  0.6647 -0.3694  0.2088
   8023SM   H9S10602   0.826   7.574   5.964  2.1300  0.0760 -0.8712
   8023SM   H9T10603   0.767   7.406   5.937  2.2153 -3.0201  0.7179
   8023SM  C10S10604   0.947   7.449   5.840 -0.8920  0.1302 -0.0563
   8023SM  H10S10605   0.970   7.341   5.828 -0.1014 -0.0234  2.2987
   8023SM  H10T10606   1.050   7.485   5.862 -0.3966 -1.5696  0.5207
   8023SM  C11S10607   0.886   7.507   5.714 -0.1318 -0.8112  0.5039
   8023SM  H11S10608   0.863   7.616   5.722  0.9876 -0.5768  0.6819
   8023SM  H11T10609   0.787   7.461   5.693 -0.2194 -0.0899 -0.7637
   8023SM  C12S10610   0.983   7.480   5.591 -0.0591 -0.1553  0.4620
   8023SM  H12S10611   0.981   7.373   5.563 -0.0503 -0.3940  1.3575
   8023SM  H12T10612   1.085   7.508   5.624  1.1254 -2.9626 -0.5697
   8023SM  C13S10613   0.928   7.548   5.466  0.3150  0.2827  0.4918
   8023SM  H13S10614   0.954   7.656   5.461 -0.3019  0.3793 -2.8053
   8023SM  H13T10615   0.819   7.531   5.454  0.1499  0.8987  1.0168
   8023SM  C14S10616   0.986   7.497   5.335  0.1729  0.6309  0.4044
   8023SM  H14S10617   1.096   7.504   5.344  0.3007 -0.9529  0.3497
   8023SM  H14T10618   0.957   7.566   5.253 -0.5534  0.0837  0.1889
   8023SM  C15S10619   0.941   7.351   5.287 -0.6498 -0.3694  0.1278
   8023SM  H15S10620   0.831   7.358   5.287 -0.6888 -0.8696 -0.8117
   8023SM  H15T10621   0.981   7.272   5.353 -1.7847 -0.5847  0.5698
   8023SM  C16S10622   0.983   7.318   5.146 -0.5528  0.3090 -0.1720
   8023SM  H16S10623   0.941   7.398   5.081 -2.0166 -1.3156 -1.3277
   8023SM  H16T10624   0.936   7.219   5.124  1.5400 -0.7550 -0.1474
   8023SM  C17S10625   1.138   7.301   5.126  0.0008 -0.0047 -0.3342
   8023SM  H17S10626   1.154   7.210   5.065  2.1314  1.4360 -2.1170
   8023SM  H17T10627   1.177   7.288   5.229 -0.6013  0.0967 -0.0866
   8023SM  C18S10628   1.217   7.412   5.058  0.5730  0.0098  0.1151
   8023SM  H18S10629   1.167   7.434   4.961  0.5553  0.6408  0.2656
   8023SM  H18T10630   1.323   7.381   5.049  0.2486 -1.2358  0.3822
   8023SM  H18U10631   1.217   7.505   5.119 -1.2387  0.4861 -0.5575
   8023SM   C1F10632   0.921   7.911   6.692 -0.0238  0.0671  0.1695
   8023SM    OF10633   1.022   7.931   6.756 -0.2614 -0.1614  0.4355
   8023SM   C2F10634   0.844   8.019   6.611  0.3914  0.2781  0.2400
   8023SM   H2F10635   0.744   8.041   6.655  0.0680 -0.3771 -0.1494
   8023SM   H2G10636   0.825   7.966   6.515 -1.5634  1.3440 -0.0291
   8023SM   C3F10637   0.929   8.146   6.569 -0.4954  0.3589  0.0210
   8023SM   H3F10638   1.007   8.115   6.496 -2.3615 -2.1414 -1.0970
   8023SM   H3G10639   0.972   8.188   6.662  0.2374  1.2594 -0.7004
   8023SM   C4F10640   0.839   8.250   6.505 -0.3520  0.0727 -0.3590
   8023SM   H4F10641   0.889   8.349   6.505  0.0405 -0.1099 -1.8117
   8023SM   H4G10642   0.742   8.263   6.560 -0.0949  2.0648 -0.2937
   8023SM   C5F10643   0.801   8.217   6.359 -0.4013 -0.7388  0.2794
   8023SM   H5F10644   0.696   8.243   6.334  0.3381  0.9033 -1.3435
   8023SM   H5G10645   0.803   8.107   6.343 -0.2986 -0.9104  1.3768
   8023SM   C6F10646   0.886   8.294   6.258 -0.1801  0.0171  0.5383
   8023SM   H6F10647   0.991   8.263   6.277 -0.2263 -0.7072 -0.3348
   8023SM   H6G10648   0.883   8.404   6.277  1.8193 -0.1435  2.0368
   8023SM   C7F10649   0.849   8.248   6.115  0.5421 -0.6421 -0.1031
   8023SM   H7F10650   0.890   8.145   6.110  0.8220 -0.4798 -1.5254
   8023SM   H7G10651   0.905   8.313   6.044  0.5955 -1.0831 -0.4691
   8023SM   C8F10652   0.695   8.242   6.083  0.6784  0.0249 -0.0072
   8023SM   H8F10653   0.639   8.336   6.101 -1.0881 -1.1661  1.0586
   8023SM   H8G10654   0.652   8.177   6.162  1.4051  0.5932  0.8754
   8023SM   C9F10655   0.668   8.196   5.940 -0.6772 -0.0758  0.3575
   8023SM   H9F10656   0.558   8.188   5.925 -0.4904 -0.4308 -1.0116
   8023SM   H9G10657   0.705   8.091   5.942  1.0052  0.4981  1.8173
   8023SM  C10F10658   0.729   8.284   5.832 -0.4029  0.2769  0.6213
   8023SM  H10F10659   0.839   8.271   5.838 -0.3385  0.5989  0.1571
   8023SM  H10G10660   0.695   8.389   5.848 -2.2743 -0.0788 -0.6735
   8023SM  C11F10661   0.679   8.250   5.690 -0.0408  0.0830 -0.3883
   8023SM  H11F10662   0.568   8.257   5.692 -0.1544 -1.0858 -1.5154
   8023SM  H11G10663   0.700   8.146   5.655 -1.6075 -1.4202  2.7067
   8023SM  C12F10664   0.715   8.353   5.576 -0.5373 -0.8641 -1.0016
   8023SM  H12F10665   0.826   8.362   5.577 -0.7102  2.1479 -1.0033
   8023SM  H12G10666   0.664   8.450   5.594  2.1831  0.9483 -2.3456
   8023SM  C13F10667   0.678   8.306   5.436  0.0213  0.5093 -0.5894
   8023SM  H13F10668   0.575   8.263   5.437  0.2790 -0.1312 -0.8160
   8023SM  H13G10669   0.737   8.214   5.416 -1.6321 -0.9035  0.6805
   8023SM  C14F10670   0.701   8.415   5.334 -0.3624 -0.0701 -0.5115
   8023SM  H14F10671   0.804   8.455   5.336 -0.2570 -0.2391 -1.8686
   8023SM  H14G10672   0.622   8.492   5.350  0.4587  0.1915  3.3104
   8023SM  C15F10673   0.692   8.368   5.192  0.2427  0.0229  0.0721
   8023SM  H15F10674   0.592   8.322   5.178 -0.6602  1.9627 -0.1490
   8023SM  H15G10675   0.757   8.278   5.184  0.0171 -0.3425  1.8870
   8023SM  C16F10676   0.723   8.473   5.084 -0.5366 -0.8766 -1.0091
   8023SM  H16F10677   0.820   8.519   5.111 -0.2263 -2.1616  0.1668
   8023SM  H16G10678   0.663   8.566   5.101  2.2348  0.5738  2.0387
   8023SM  C17F10679   0.730   8.432   4.939 -0.0685 -0.2239 -0.1842
   8023SM  H17F10680   0.810   8.355   4.936  0.3356 -0.0378  2.8588
   8023SM  H17G10681   0.758   8.524   4.883  1.2481  0.2361  1.1392
   8023SM  C18F10682   0.599   8.366   4.884 -0.0151 -0.5687 -0.1057
   8023SM  H18F10683   0.514   8.418   4.933 -0.8290  0.7896 -2.7976
   8023SM  H18G10684   0.599   8.258   4.914 -1.5724 -0.7787 -0.7780
   8023SM  C19F10685   0.592   8.387   4.734  0.1152  0.2496 -0.2189
   8023SM  H19F10686   0.538   8.308   4.679 -0.4162  0.9850 -0.7779
   8023SM  H19G10687   0.694   8.389   4.688 -1.0660  1.2437 -3.0151
   8023SM  C20F10688   0.539   8.527   4.692  0.6313 -0.6555 -0.4269
   8023SM  H20F10689   0.600   8.609   4.734  0.2964  0.5013 -2.1181
   8023SM  H20G10690   0.442   8.537   4.746  0.3995  1.8353 -1.2012
   8023SM  C21F10691   0.513   8.532   4.544 -0.3303 -0.1651  0.5661
   8023SM  H21F10692   0.457   8.444   4.507 -0.6726  0.0890  0.4745
   8023SM  H21G10693   0.598   8.551   4.475 -2.1439 -1.1048 -2.0581
   8023SM  C22F10694   0.420   8.652   4.518  0.4279  0.2577  0.3903
   8023SM  H22F10695   0.472   8.749   4.533  0.3979  0.3843 -0.2873
   8023SM  H22G10696   0.327   8.648   4.579  0.3750 -1.9445  0.2516
   8023SM  C23F10697   0.364   8.667   4.372  0.0663  0.3123  0.3521
   8023SM  H23F10698   0.281   8.738   4.353 -1.0743 -1.1822 -0.5203
   8023SM  H23G10699   0.318   8.571   4.339 -1.7497  0.2417  2.8194
   8023SM  H23H10700   0.456   8.683   4.311 -0.8188  0.1121 -1.0689
   8123SM     N10701   4.614   4.369   2.655 -0.1583  0.0212 -0.4945
   8123SM   C1510702   4.745   4.433   2.620  0.1943 -0.7225  0.3118
   8123SM  H15A10703   4.807   4.385   2.546 -0.1607 -1.0509  0.2211
   8123SM  H15B10704   4.817   4.425   2.700  2.4464  0.3834 -1.4932
   8123SM  H15C10705   4.726   4.538   2.608 -0.2164 -0.8917 -0.5823
   8123SM   C1410706   4.638   4.222   2.636 -0.2440  0.0786 -0.0464
   8123SM  H14A10707   4.651   4.202   2.531 -1.2771 -0.1367 -0.1455
   8123SM  H14B10708   4.558   4.165   2.682  0.1316  0.0330  0.5652
   8123SM  H14C10709   4.733   4.206   2.684  0.4702 -0.3654 -1.5723
   8123SM   C1310710   4.583   4.406   2.791  0.3795  0.0597 -0.0450
   8123SM  H13A10711   4.571   4.513   2.797 -2.3407 -0.2201  1.3404
   8123SM  H13B10712   4.655   4.369   2.863 -2.2998 -1.4929  2.0556
   8123SM  H13C10713   4.484   4.368   2.814 -0.4499  1.5547 -0.9886
   8123SM   C1210714   4.513   4.415   2.559  0.0264 -0.2156  0.0261
   8123SM  H12A10715   4.420   4.360   2.561 -0.0480 -0.0805  0.3504
   8123SM  H12B10716   4.556   4.395   2.463  1.0702 -1.7939  0.7767
   8123SM   C1110717   4.468   4.563   2.563 -0.0351  0.6285 -0.2107
   8123SM  H11A10718   4.558   4.627   2.575  1.2433 -1.4137  1.7131
   8123SM  H11B10719   4.422   4.595   2.659  1.2445  0.5765  0.4340
   8123SM     P10720   4.393   4.739   2.391  0.4830 -0.3248  0.0635
   8123SM   O1310721   4.506   4.745   2.290 -0.0007 -0.1270 -0.1374
   8123SM   O1410722   4.263   4.792   2.340  0.7949  0.0418  0.1168
   8123SM   O1110723   4.444   4.821   2.512 -0.0121 -0.5661 -0.0372
   8123SM   O1210724   4.377   4.594   2.451 -0.0704 -0.7871  0.4416
   8123SM   C1S10725   4.344   4.866   2.604 -0.2360 -0.2110  0.5352
   8123SM   H1S10726   4.281   4.780   2.638 -1.0491  0.0435 -0.2862
   8123SM   H1T10727   4.290   4.954   2.563 -0.4250  0.0817  1.3751
   8123SM    NF10728   4.321   4.921   2.844 -0.6575 -0.7517  1.4177
   8123SM   HNF10729   4.264   5.002   2.857 -2.7506 -1.8921 -0.1263
   8123SM   C2S10730   4.416   4.920   2.735  0.2916  0.3224  0.1440
   8123SM   H2S10731   4.492   4.841   2.752 -2.0922 -2.4830 -1.3677
   8123SM   C3S10732   4.486   5.056   2.707 -0.0627 -0.2786 -0.3882
   8123SM   H3S10733   4.411   5.136   2.693 -0.2171  0.3543  3.1618
   8123SM    O310734   4.560   5.056   2.587  0.1176  0.3012 -0.0865
   8123SM   HO310735   4.534   4.973   2.547 -0.1969  0.1294  0.4653
   8123SM   C4S10736   4.574   5.096   2.823 -0.0105 -0.2055 -0.3995
   8123SM   H4S10737   4.528   5.151   2.906 -2.0158 -1.3793 -0.6498
   8123SM   C5S10738   4.705   5.057   2.840 -0.0652  0.4470 -0.0575
   8123SM   H5S10739   4.745   4.994   2.759 -1.6772  1.4300 -1.7081
   8123SM   C6S10740   4.808   5.087   2.948 -1.0677 -0.6608 -0.0583
   8123SM   H6S10741   4.896   5.142   2.909 -1.4332  1.6013  2.0271
   8123SM   H6T10742   4.842   4.992   2.995  1.4678 -0.0602 -0.5382
   8123SM   C7S10743   4.773   5.178   3.063  0.9340 -0.1957  0.0141
   8123SM   H7S10744   4.698   5.131   3.130  1.3847 -2.6074 -1.0693
   8123SM   H7T10745   4.717   5.266   3.024 -1.9387 -1.7968  0.2065
   8123SM   C8S10746   4.892   5.222   3.151  0.3763  0.2178  0.6797
   8123SM   H8S10747   4.942   5.296   3.085 -0.6748 -0.0873 -0.5014
   8123SM   H8T10748   4.965   5.139   3.160  0.4631  0.0432 -1.2074
   8123SM   C9S10749   4.857   5.286   3.291 -0.4303  0.3524  0.5090
   8123SM   H9S10750   4.760   5.338   3.284 -1.6638 -1.9981 -1.8259
   8123SM   H9T10751   4.922   5.374   3.309 -0.7913  0.4663  1.2919
   8123SM  C10S10752   4.863   5.183   3.400 -0.3724  0.0347 -0.2729
   8123SM  H10S10753   4.968   5.151   3.417 -0.6264 -1.0778 -0.7426
   8123SM  H10T10754   4.799   5.098   3.371 -1.5968  1.1331 -0.9103
   8123SM  C11S10755   4.805   5.230   3.532 -0.1577 -0.3236 -0.6690
   8123SM  H11S10756   4.701   5.246   3.496 -0.0632 -2.3255 -2.0012
   8123SM  H11T10757   4.850   5.327   3.563 -0.8551  0.5492 -2.2609
   8123SM  C12S10758   4.798   5.124   3.649 -0.0923 -0.0437 -0.0508
   8123SM  H12S10759   4.904   5.093   3.661  0.1447  1.2954  1.9429
   8123SM  H12T10760   4.733   5.041   3.614  1.0621 -0.4684 -1.2672
   8123SM  C13S10761   4.727   5.185   3.771  1.0084 -0.1234 -0.0780
   8123SM  H13S10762   4.626   5.210   3.732  1.2198  1.3285  0.2439
   8123SM  H13T10763   4.775   5.281   3.799 -0.1152  0.6276 -0.6540
   8123SM  C14S10764   4.684   5.098   3.883  0.4321  0.2493 -0.5856
   8123SM  H14S10765   4.768   5.062   3.946  0.5844  2.1172  0.3719
   8123SM  H14T10766   4.616   5.018   3.847 -0.6871 -0.0295  1.9875
   8123SM  C15S10767   4.601   5.178   3.991 -0.6022 -0.3087  0.0036
   8123SM  H15S10768   4.503   5.185   3.939  0.3710  0.3267 -1.8135
   8123SM  H15T10769   4.637   5.282   4.002  1.6402 -1.1145  0.8161
   8123SM  C16S10770   4.609   5.107   4.134 -1.3422 -0.1817  0.5200
   8123SM  H16S10771   4.646   5.002   4.137 -2.9659 -0.7962  0.0227
   8123SM  H16T10772   4.507   5.118   4.176 -0.8292  0.9254  1.5340
   8123SM  C17S10773   4.692   5.188   4.235  0.2848  0.8307 -0.1553
   8123SM  H17S10774   4.682   5.295   4.208 -1.7786  0.0062 -3.1917
   8123SM  H17T10775   4.798   5.158   4.223  0.2838  1.1146 -0.9089
   8123SM  C18S10776   4.642   5.164   4.379  0.6956 -0.1768  0.0567
   8123SM  H18S10777   4.634   5.055   4.395  2.2204 -0.2246  0.6303
   8123SM  H18T10778   4.537   5.201   4.383  0.2355 -1.5508  1.1988
   8123SM  H18U10779   4.707   5.218   4.451  2.9858 -0.2620 -1.8067
   8123SM   C1F10780   4.284   4.802   2.904  0.2274  0.3115  0.0821
   8123SM    OF10781   4.353   4.700   2.902 -0.1956 -0.3847 -0.3708
   8123SM   C2F10782   4.151   4.817   2.985  0.0111  0.0959  0.6535
   8123SM   H2F10783   4.078   4.756   2.928 -0.1425  0.4827  0.4358
   8123SM   H2G10784   4.114   4.920   3.003  0.5483  0.2890  0.6744
   8123SM   C3F10785   4.155   4.756   3.133  0.7236 -0.2265  0.5642
   8123SM   H3F10786   4.221   4.819   3.198 -2.2681  1.1550  2.4895
   8123SM   H3G10787   4.204   4.656   3.129  0.6627 -0.2121 -2.0833
   8123SM   C4F10788   4.016   4.728   3.195  0.3581  0.2490  0.0942
   8123SM   H4F10789   3.969   4.677   3.108  0.9426  1.2937 -0.8597
   8123SM   H4G10790   3.972   4.830   3.201 -0.4381 -0.0616 -0.2728
   8123SM   C5F10791   4.006   4.650   3.327 -0.2985  0.2901  0.0238
   8123SM   H5F10792   4.105   4.607   3.352 -0.7954 -0.2636  1.1110
   8123SM   H5G10793   3.933   4.571   3.301 -0.4739  0.8741 -1.3202
   8123SM   C6F10794   3.960   4.731   3.446  0.0743  0.1444 -0.1253
   8123SM   H6F10795   3.865   4.778   3.414  0.2230  0.1637 -0.5412
   8123SM   H6G10796   4.020   4.821   3.472  0.4092  0.0711 -0.6319
   8123SM   C7F10797   3.907   4.652   3.565 -0.9861 -0.5134 -0.5278
   8123SM   H7F10798   3.984   4.580   3.601 -0.7824  0.0837  0.2626
   8123SM   H7G10799   3.815   4.596   3.542 -1.0316 -1.1316  1.0119
   8123SM   C8F10800   3.867   4.742   3.683 -0.0022  0.1619  0.6715
   8123SM   H8F10801   3.781   4.803   3.648 -1.7202 -1.3414  2.1093
   8123SM   H8G10802   3.959   4.797   3.714 -0.8022  0.8532  1.9080
   8123SM   C9F10803   3.821   4.654   3.797  0.2432 -0.2908 -0.0263
   8123SM   H9F10804   3.902   4.580   3.812  0.9014  0.3253 -0.4830
   8123SM   H9G10805   3.725   4.603   3.777 -0.8709  1.8049 -0.3226
   8123SM  C10F10806   3.813   4.736   3.928  0.2626 -0.4136 -0.0493
   8123SM  H10F10807   3.736   4.815   3.918  0.9824  0.6334  2.0760
   8123SM  H10G10808   3.907   4.794   3.938 -1.1632  2.2786 -1.3003
   8123SM  C11F10809   3.789   4.657   4.057 -0.4276 -0.1493 -0.1834
   8123SM  H11F10810   3.874   4.587   4.067 -1.7609 -2.0058 -1.1879
   8123SM  H11G10811   3.690   4.607   4.053 -0.6717  0.3388 -0.3470
   8123SM  C12F10812   3.779   4.753   4.184 -0.2634  0.3380 -0.0401
   8123SM  H12F10813   3.705   4.828   4.147 -0.4414  0.0643 -0.2504
   8123SM  H12G10814   3.880   4.794   4.203 -1.1468  1.3227  3.0575
   8123SM  C13F10815   3.735   4.691   4.326  0.5779 -0.1953  0.1608
   8123SM  H13F10816   3.792   4.602   4.359 -0.4160 -0.7586  0.4134
   8123SM  H13G10817   3.634   4.646   4.342  0.6788 -0.0014  1.4612
   8123SM  C14F10818   3.746   4.797   4.436  0.3580  0.0186  0.1499
   8123SM  H14F10819   3.660   4.867   4.428 -1.2821 -1.9428 -0.0884
   8123SM  H14G10820   3.842   4.852   4.428  0.3301 -0.0647 -1.0255
   8123SM  C15F10821   3.741   4.732   4.577  0.8256  0.1407  0.1013
   8123SM  H15F10822   3.641   4.687   4.594  0.7775 -0.1437 -0.8700
   8123SM  H15G10823   3.752   4.814   4.651 -0.9569  0.8419 -0.3496
   8123SM  C16F10824   3.855   4.636   4.610 -0.0471  0.1634  0.6899
   8123SM  H16F10825   3.946   4.698   4.593  1.6461 -1.4238  3.3763
   8123SM  H16G10826   3.855   4.541   4.553 -0.7091 -0.1426  1.1887
   8123SM  C17F10827   3.854   4.602   4.768  0.0239 -1.0348 -0.0310
   8123SM  H17F10828   3.751   4.591   4.807  0.1455  1.1573  1.0748
   8123SM  H17G10829   3.889   4.697   4.815 -3.3600  1.0802 -1.4361
   8123SM  C18F10830   3.940   4.485   4.808 -0.1012  0.2312 -1.0161
   8123SM  H18F10831   4.041   4.499   4.763  0.3249 -1.5672 -0.7331
   8123SM  H18G10832   3.900   4.385   4.780 -0.5657 -0.3882  1.6118
   8123SM  C19F10833   3.956   4.471   4.962  0.1687 -0.4591  0.2453
   8123SM  H19F10834   3.859   4.441   5.007 -0.6660 -2.1827 -2.4410
   8123SM  H19G10835   3.986   4.568   5.007 -0.2101  0.0104 -0.4935
   8123SM  C20F10836   4.078   4.375   5.009  0.9896  0.2959  0.3465
   8123SM  H20F10837   4.171   4.402   4.954  1.0784  0.6569  0.6744
   8123SM  H20G10838   4.054   4.270   4.979 -0.0343  0.6086  0.0239
   8123SM  C21F10839   4.106   4.399   5.162  0.6186  0.8681  0.1185
   8123SM  H21F10840   4.008   4.373   5.208  0.5409 -2.0397 -1.4318
   8123SM  H21G10841   4.137   4.503   5.183  1.6215  0.3031  1.5683
   8123SM  C22F10842   4.206   4.298   5.209  0.1452 -0.5280 -0.2791
   8123SM  H22F10843   4.305   4.337   5.177 -0.3102  0.4386 -0.5512
   8123SM  H22G10844   4.182   4.201   5.159  0.5921  0.4955 -2.6274
   8123SM  C23F10845   4.201   4.277   5.364  0.2391 -0.4830 -0.4339
   8123SM  H23F10846   4.103   4.237   5.396 -0.4992 -0.7894 -2.8570
   8123SM  H23G10847   4.223   4.376   5.410 -0.9376 -0.2861 -0.2548
   8123SM  H23H10848   4.284   4.210   5.396  0.6793  1.0335  1.8400
   8223SM     N10849   5.700   4.634   2.629 -0.0434  0.3431  0.3850
   8223SM   C1510850   5.734   4.775   2.626 -0.4907 -0.4801  0.4248
   8223SM  H15A10851   5.818   4.803   2.564 -2.0335  1.2445 -0.9694
   8223SM  H15B10852   5.761   4.815   2.723 -3.9407  2.3007  0.4119
   8223SM  H15C10853   5.650   4.838   2.603 -0.3159 -0.6536 -0.7476
   8223SM   C1410854   5.662   4.585   2.495 -1.0175  0.2053  0.2303
   8223SM  H14A10855   5.612   4.490   2.500  0.2312 -0.4101  1.7193
   8223SM  H14B10856   5.743   4.588   2.424 -1.1319  0.1952  0.0983
   8223SM  H14C10857   5.593   4.666   2.474 -0.7420  1.3523  3.2692
   8223SM   C1310858   5.834   4.565   2.667 -0.0265  0.1087  0.1998
   8223SM  H13A10859   5.819   4.459   2.655 -1.4942  0.3852 -0.6599
   8223SM  H13B10860   5.876   4.591   2.763 -2.1114  1.0884  0.9139
   8223SM  H13C10861   5.911   4.593   2.596 -0.2582  0.8857  0.2415
   8223SM   C1210862   5.594   4.610   2.738  0.3862  0.0656  0.5024
   8223SM  H12A10863   5.511   4.678   2.729  0.2629 -0.2893 -1.7822
   8223SM  H12B10864   5.644   4.630   2.832 -0.5378  1.4599  0.7181
   8223SM   C1110865   5.530   4.468   2.757  0.5795 -0.1982 -0.2890
   8223SM  H11A10866   5.455   4.466   2.839  1.2905 -0.2345  0.3770
   8223SM  H11B10867   5.621   4.412   2.788 -0.3220 -1.7213 -0.2825
   8223SM     P10868   5.331   4.378   2.597 -0.3934 -0.2618 -0.2647
   8223SM   O1310869   5.319   4.457   2.472  0.1265  0.5876 -0.1275
   8223SM   O1410870   5.310   4.238   2.591 -0.1802  0.2088  0.3301
   8223SM   O1110871   5.237   4.446   2.715  0.2927 -0.0035  0.0250
   8223SM   O1210872   5.484   4.407   2.644 -0.0459  0.0907  0.1752
   8223SM   C1S10873   5.146   4.352   2.780  0.8715  0.0993 -0.4998
   8223SM   H1S10874   5.190   4.254   2.808  1.7097  0.1497 -1.5657
   8223SM   H1T10875   5.058   4.321   2.720  0.2709  0.0159  0.3954
   8223SM    NF10876   5.054   4.302   3.002 -0.1566 -0.5446 -0.5966
   8223SM   HNF10877   4.957   4.283   3.011 -0.2893  0.3270 -0.0141
   8223SM   C2S10878   5.090   4.408   2.914  0.0289  0.0747  0.2453
   8223SM   H2S10879   5.172   4.471   2.957  0.1645  1.0326 -1.3132
   8223SM   C3S10880   4.971   4.508   2.896  0.2468  0.6159  0.5927
   8223SM   H3S10881   4.872   4.457   2.902  0.4730 -0.0428 -0.7429
   8223SM    O310882   4.977   4.577   2.766  0.1642  0.5195 -0.2439
   8223SM   HO310883   5.064   4.550   2.734  0.7454 -1.0547  2.3020
   8223SM   C4S10884   4.971   4.603   3.014 -0.0814  0.3216  0.2765
   8223SM   H4S10885   4.909   4.570   3.099  0.9724  1.7036  1.6269
   8223SM   C5S10886   5.048   4.712   3.030 -0.3166 -0.1889  0.3614
   8223SM   H5S10887   5.104   4.746   2.942  1.2109 -0.5257  1.1587
   8223SM   C6S10888   5.055   4.803   3.155 -0.2808 -0.3036  0.0365
   8223SM   H6S10889   4.966   4.869   3.155 -1.3892 -1.7320 -1.2890
   8223SM   H6T10890   5.145   4.869   3.151 -0.8431  0.3982 -1.6472
   8223SM   C7S10891   5.049   4.724   3.285  0.3568 -0.1733  0.1666
   8223SM   H7S10892   5.137   4.656   3.289 -0.7259 -1.7591 -1.6810
   8223SM   H7T10893   4.955   4.665   3.291 -0.6229  1.0736 -1.9475
   8223SM   C8S10894   5.037   4.806   3.409  0.0156 -0.6317 -0.3232
   8223SM   H8S10895   4.936   4.851   3.414  0.9676  1.7004 -0.9400
   8223SM   H8T10896   5.106   4.893   3.404 -0.1492 -0.4432  0.4576
   8223SM   C9S10897   5.076   4.728   3.534  0.3915  0.1878 -0.1835
   8223SM   H9S10898   5.180   4.690   3.525  0.1743 -0.2390 -0.9343
   8223SM   H9T10899   5.024   4.631   3.547  0.6566 -0.1032 -1.2117
   8223SM  C10S10900   5.057   4.816   3.653  0.4142  0.5748 -0.4376
   8223SM  H10S10901   5.003   4.767   3.737 -0.7875 -0.1766 -1.6176
   8223SM  H10T10902   4.988   4.895   3.618  1.3615  1.3602 -0.5995
   8223SM  C11S10903   5.184   4.880   3.701 -0.0169 -0.1398 -0.0490
   8223SM  H11S10904   5.256   4.905   3.621  0.4990  1.2187  0.8038
   8223SM  H11T10905   5.232   4.809   3.771  2.3638  1.9670  0.6245
   8223SM  C12S10906   5.163   5.017   3.772 -0.9480 -0.2223 -0.2544
   8223SM  H12S10907   5.083   5.017   3.849 -2.1442 -0.1232 -1.4729
   8223SM  H12T10908   5.124   5.090   3.698 -0.5713  1.0023  0.7171
   8223SM  C13S10909   5.298   5.067   3.827 -0.0499 -0.6726  0.0165
   8223SM  H13S10910   5.319   5.014   3.923 -0.5241  0.0410  0.5315
   8223SM  H13T10911   5.294   5.177   3.847  0.2338 -1.0410  2.3863
   8223SM  C14S10912   5.427   5.054   3.747 -0.3160  0.5836 -0.2591
   8223SM  H14S10913   5.417   5.087   3.641  0.4002  0.3724 -0.3964
   8223SM  H14T10914   5.462   4.949   3.745  0.3987  0.7712  1.2282
   8223SM  C15S10915   5.540   5.131   3.824  0.2860  0.1841  0.2757
   8223SM  H15S10916   5.530   5.149   3.934 -0.8878  0.8859  0.0703
   8223SM  H15T10917   5.548   5.235   3.785  1.9981 -0.2573 -0.6510
   8223SM  C16S10918   5.679   5.073   3.795 -0.4561 -0.6459  0.6075
   8223SM  H16S10919   5.679   4.966   3.826 -0.8979 -0.8884 -0.1887
   8223SM  H16T10920   5.752   5.137   3.848 -3.1227  1.4182  2.0173
   8223SM  C17S10921   5.708   5.063   3.640  0.2945  0.2724 -0.2182
   8223SM  H17S10922   5.669   5.150   3.583  0.2940  2.2063  2.4985
   8223SM  H17T10923   5.651   4.978   3.599  0.6997  0.2182 -0.6779
   8223SM  C18S10924   5.860   5.038   3.612  0.1851  0.0872 -0.0350
   8223SM  H18S10925   5.875   4.989   3.513  0.2921 -2.4053  1.1252
   8223SM  H18T10926   5.907   4.955   3.670 -0.0471  0.2884  0.4420
   8223SM  H18U10927   5.934   5.118   3.632  0.3457  0.1457 -0.8173
   8223SM   C1F10928   5.149   4.237   3.072 -0.5182 -1.0994  0.5875
   8223SM    OF10929   5.270   4.270   3.051  0.2734 -0.2356 -1.0863
   8223SM   C2F10930   5.112   4.123   3.161 -0.4492 -0.3503  0.2195
   8223SM   H2F10931   5.139   4.025   3.115  1.3276 -0.1000  0.6554
   8223SM   H2G10932   5.003   4.129   3.180 -0.4474 -1.1465  0.5250
   8223SM   C3F10933   5.197   4.134   3.295 -0.3477  0.0804  0.2502
   8223SM   H3F10934   5.299   4.173   3.275 -0.6119 -0.3293 -2.1473
   8223SM   H3G10935   5.206   4.040   3.354 -1.4975  1.3906  2.6762
   8223SM   C4F10936   5.137   4.223   3.411  0.3882 -0.5419  0.4029
   8223SM   H4F10937   5.035   4.184   3.429  0.2532 -0.0293  0.7762
   8223SM   H4G10938   5.118   4.325   3.370  0.0388 -0.2105  1.3668
   8223SM   C5F10939   5.236   4.248   3.524  0.2119 -0.3086  0.1205
   8223SM   H5F10940   5.342   4.259   3.492  0.2709  1.8514  0.9275
   8223SM   H5G10941   5.237   4.152   3.581 -1.1470  0.4460  1.4749
   8223SM   C6F10942   5.196   4.359   3.615 -0.1986 -0.6251 -0.4452
   8223SM   H6F10943   5.091   4.358   3.651  0.0516  0.3717  0.3562
   8223SM   H6G10944   5.210   4.454   3.560  0.0616 -0.0344  0.6140
   8223SM   C7F10945   5.290   4.374   3.733 -0.8266 -0.4939 -0.3632
   8223SM   H7F10946   5.394   4.370   3.695 -0.9791 -2.4799 -0.6784
   8223SM   H7G10947   5.290   4.285   3.799  1.7660  0.2683  0.7814
   8223SM   C8F10948   5.265   4.501   3.809  0.4480  0.1146  0.0192
   8223SM   H8F10949   5.157   4.515   3.830  1.0357  2.1493  2.0438
   8223SM   H8G10950   5.300   4.589   3.752  1.1312 -2.1554 -3.4264
   8223SM   C9F10951   5.333   4.506   3.949 -0.6716  0.2653 -0.0079
   8223SM   H9F10952   5.438   4.477   3.930 -0.4945  1.6285 -1.3393
   8223SM   H9G10953   5.283   4.440   4.024 -0.8245  1.0705  0.6155
   8223SM  C10F10954   5.324   4.644   4.017 -0.3865  0.3191  0.2652
   8223SM  H10F10955   5.382   4.722   3.964  0.1456  0.2227  0.6911
   8223SM  H10G10956   5.387   4.638   4.109  0.9129 -1.8383 -0.6775
   8223SM  C11F10957   5.179   4.681   4.045 -0.2927  0.3986 -0.1989
   8223SM  H11F10958   5.135   4.603   4.112 -0.3608  1.3896  0.9409
   8223SM  H11G10959   5.114   4.682   3.956 -0.8602 -2.3910  0.0865
   8223SM  C12F10960   5.166   4.814   4.107 -0.0238  0.5126 -0.1684
   8223SM  H12F10961   5.184   4.884   4.022 -0.1319 -0.5345 -1.0674
   8223SM  H12G10962   5.238   4.817   4.192 -0.1923  1.2794 -0.0403
   8223SM  C13F10963   5.026   4.840   4.167  0.0536 -0.1737  0.2250
   8223SM  H13F10964   5.002   4.761   4.241 -0.9074  1.2405  1.4892
   8223SM  H13G10965   4.949   4.846   4.087  0.5100  1.2650 -0.1463
   8223SM  C14F10966   5.016   4.968   4.245 -0.0425  0.0774  0.0194
   8223SM  H14F10967   4.911   4.982   4.281 -0.4336  1.3253 -1.4937
   8223SM  H14G10968   5.034   5.050   4.172 -1.4519  0.0007 -0.4597
   8223SM  C15F10969   5.095   4.976   4.376  0.3621 -0.0855 -0.2148
   8223SM  H15F10970   5.204   4.970   4.355  0.7664 -0.9747  1.8700
   8223SM  H15G10971   5.070   4.888   4.439 -0.2913  0.0952 -0.2153
   8223SM  C16F10972   5.061   5.098   4.474  0.1555  0.0454  0.0985
   8223SM  H16F10973   5.018   5.164   4.397 -2.3708 -1.8811 -0.3031
   8223SM  H16G10974   5.150   5.143   4.522 -1.3394  1.0909  2.0479
   8223SM  C17F10975   4.966   5.057   4.589  0.2763  0.3421  0.8196
   8223SM  H17F10976   5.014   4.989   4.663  0.7207 -1.6384 -1.1783
   8223SM  H17G10977   4.879   5.004   4.544  1.3366  0.4435 -1.4985
   8223SM  C18F10978   4.903   5.176   4.674 -1.3517 -0.4801 -0.7493
   8223SM  H18F10979   4.814   5.161   4.739  0.6403  1.7060  2.8340
   8223SM  H18G10980   4.871   5.256   4.605  1.4801  0.6362 -0.8867
   8223SM  C19F10981   5.017   5.231   4.771 -0.0837  0.0613 -0.2135
   8223SM  H19F10982   5.035   5.338   4.745  0.1933 -0.7444 -3.8380
   8223SM  H19G10983   5.112   5.180   4.745  1.7887  2.5530  1.1651
   8223SM  C20F10984   4.985   5.200   4.918 -0.2144 -0.9619  0.0687
   8223SM  H20F10985   4.981   5.089   4.923 -1.7048 -0.9462 -0.2304
   8223SM  H20G10986   4.885   5.249   4.914  1.3149  2.2997 -2.3349
   8223SM  C21F10987   5.078   5.271   5.012 -0.0243  0.4984 -0.1102
   8223SM  H21F10988   5.050   5.248   5.117  1.3533 -0.5211  0.0514
   8223SM  H21G10989   5.094   5.381   5.007  1.8918  0.4167  2.3701
   8223SM  C22F10990   5.218   5.210   4.999 -0.6899  0.2303 -0.5251
   8223SM  H22F10991   5.265   5.227   4.899 -0.7133  1.4232 -0.3490
   8223SM  H22G10992   5.209   5.101   5.017 -0.9252  0.5765  1.7495
   8223SM  C23F10993   5.319   5.266   5.101 -0.5495 -0.1970 -0.0462
   8223SM  H23F10994   5.326   5.374   5.076  0.8057 -0.5629 -1.3603
   8223SM  H23G10995   5.418   5.217   5.097 -1.8804 -3.1185 -0.4115
   8223SM  H23H10996   5.286   5.264   5.207 -2.1231  2.4179 -0.3993
   8323SM     N10997   5.003   5.081   2.571 -0.2286 -0.6725  0.1032
   8323SM   C1510998   4.875   5.054   2.498 -0.0981 -0.2431 -0.3290
   8323SM  H15A10999   4.881   4.955   2.456 -0.3397 -0.1868 -0.5014
   8323SM  H15B11000   4.861   5.115   2.410 -0.6709 -1.1008 -0.8482
   8323SM  H15C11001   4.784   5.047   2.555 -0.4919  0.6351 -0.8281
   8323SM   C1411002   5.108   5.091   2.467 -0.0414 -0.1355  0.2911
   8323SM  H14A11003   5.095   5.171   2.396  1.1311 -0.9144 -0.8469
   8323SM  H14B11004   5.119   4.997   2.415 -1.6479 -0.6692  0.8541
   8323SM  H14C11005   5.199   5.111   2.521 -0.8596  0.4643  1.5097
   8323SM   C1311006   4.988   5.221   2.628 -0.6778 -0.1041 -0.7833
   8323SM  H13A11007   4.900   5.227   2.690 -0.9585 -0.8651 -1.0869
   8323SM  H13B11008   4.995   5.294   2.549 -0.7538 -0.3137 -0.9880
   8323SM  H13C11009   5.071   5.239   2.694  0.7912  0.2618 -2.6391
   8323SM   C1211010   5.037   4.975   2.673  0.2536 -0.1593  0.7208
   8323SM  H12A11011   5.077   4.882   2.635  2.3596 -0.7092  3.8727
   8323SM  H12B11012   4.950   4.955   2.733  0.4953  0.6189  1.3495
   8323SM   C1111013   5.146   5.012   2.777  0.0552 -0.0039  0.3170
   8323SM  H11A11014   5.156   4.942   2.863  2.6076 -0.0598  0.0539
   8323SM  H11B11015   5.122   5.110   2.822  0.0417 -0.3388  1.0606
   8323SM     P11016   5.372   4.914   2.682 -0.0692  0.2823  0.4591
   8323SM   O1311017   5.306   4.820   2.594 -0.4846 -0.1750  0.5894
   8323SM   O1411018   5.493   4.981   2.628 -0.4555  0.3135 -0.1071
   8323SM   O1111019   5.408   4.844   2.828  0.1039  0.5730 -0.6974
   8323SM   O1211020   5.271   5.030   2.720  0.9099  0.6990  0.3399
   8323SM   C1S11021   5.480   4.930   2.921 -0.1381 -0.2610 -0.4734
   8323SM   H1S11022   5.442   5.034   2.927  1.0439  0.1298  0.5809
   8323SM   H1T11023   5.589   4.935   2.905 -0.3014  2.0599 -1.2890
   8323SM    NF11024   5.525   4.977   3.173  0.3977 -0.2969  0.0135
   8323SM   HNF11025   5.589   4.942   3.241  0.2550 -0.6910 -0.0567
   8323SM   C2S11026   5.456   4.889   3.077 -0.6071 -0.0751 -0.3929
   8323SM   H2S11027   5.345   4.888   3.086 -0.5613 -0.3993  0.1427
   8323SM   C3S11028   5.490   4.745   3.094 -0.0921 -0.2937  0.2853
   8323SM   H3S11029   5.599   4.727   3.085 -0.4065 -1.3621 -1.8417
   8323SM    O311030   5.444   4.655   2.998  0.1841 -0.1379 -0.2391
   8323SM   HO311031   5.427   4.719   2.928 -1.8818 -0.7075 -0.3192
   8323SM   C4S11032   5.457   4.703   3.229  0.3538  0.7717 -1.1296
   8323SM   H4S11033   5.365   4.749   3.269 -0.5849 -1.0859 -1.0197
   8323SM   C5S11034   5.534   4.631   3.315  0.5659  0.4321 -1.1740
   8323SM   H5S11035   5.622   4.583   3.271  1.0560 -1.0842  1.2970
   8323SM   C6S11036   5.503   4.617   3.466  0.5499  1.0876 -0.3557
   8323SM   H6S11037   5.475   4.510   3.477  0.7109  1.2722  2.7184
   8323SM   H6T11038   5.417   4.682   3.494  0.5061  1.6317 -1.6876
   8323SM   C7S11039   5.621   4.651   3.550 -0.4419  0.1235 -0.5071
   8323SM   H7S11040   5.653   4.756   3.534  2.5409 -0.1284  2.4893
   8323SM   H7T11041   5.707   4.584   3.526 -0.9944 -0.5626 -0.5946
   8323SM   C8S11042   5.598   4.635   3.703 -0.4870  0.1050  0.3109
   8323SM   H8S11043   5.562   4.530   3.707 -1.0908 -0.0319 -3.8830
   8323SM   H8T11044   5.528   4.711   3.745  0.2870  0.7125  0.5242
   8323SM   C9S11045   5.721   4.647   3.789 -0.3134 -0.1274  0.0670
   8323SM   H9S11046   5.778   4.729   3.740 -2.4471  1.0963 -0.4570
   8323SM   H9T11047   5.769   4.547   3.786  0.0721 -0.0019  1.2649
   8323SM  C10S11048   5.692   4.673   3.934 -0.3895 -0.0057 -0.2753
   8323SM  H10S11049   5.639   4.580   3.962  3.3005 -2.2011  0.1687
   8323SM  H10T11050   5.623   4.760   3.948  1.4038  1.3018  1.0620
   8323SM  C11S11051   5.818   4.681   4.024  0.0412  0.2166 -0.5056
   8323SM  H11S11052   5.884   4.752   3.970  0.5036 -0.5378 -0.9524
   8323SM  H11T11053   5.871   4.583   4.033  0.5899  0.5830  0.3490
   8323SM  C12S11054   5.790   4.731   4.167  0.0608 -0.0162  0.0552
   8323SM  H12S11055   5.893   4.718   4.209 -0.0096 -0.2343  0.1651
   8323SM  H12T11056   5.724   4.653   4.210 -2.1977 -1.4344 -5.2288
   8323SM  C13S11057   5.750   4.880   4.164 -0.3111  0.1662 -0.3247
   8323SM  H13S11058   5.659   4.901   4.103  0.0008 -0.6848 -1.1130
   8323SM  H13T11059   5.837   4.935   4.124  0.6003 -1.9898 -1.5061
   8323SM  C14S11060   5.724   4.953   4.302  0.0365  0.1224 -0.0076
   8323SM  H14S11061   5.820   4.990   4.343  1.9910 -1.8577 -2.4355
   8323SM  H14T11062   5.687   4.875   4.373 -0.0956  1.5445  1.5480
   8323SM  C15S11063   5.619   5.066   4.289 -0.6607 -0.0484 -0.1683
   8323SM  H15S11064   5.517   5.027   4.266 -0.5984 -0.2528 -0.0998
   8323SM  H15T11065   5.658   5.141   4.217 -0.5839 -0.1102 -0.1904
   8323SM  C16S11066   5.602   5.145   4.418 -0.6720  0.7349 -0.2060
   8323SM  H16S11067   5.692   5.207   4.439  0.1647 -0.8345  1.0760
   8323SM  H16T11068   5.605   5.077   4.506 -0.4930  0.9457 -0.0485
   8323SM  C17S11069   5.481   5.240   4.419  0.8911 -0.3720 -0.1326
   8323SM  H17S11070   5.387   5.181   4.406  0.5483 -0.0104  0.6151
   8323SM  H17T11071   5.493   5.302   4.328 -0.2807 -1.8755 -1.3853
   8323SM  C18S11072   5.483   5.319   4.552 -0.8056 -0.1494 -0.1056
   8323SM  H18S11073   5.408   5.401   4.553 -1.1283 -0.3921 -1.6835
   8323SM  H18T11074   5.588   5.347   4.576 -0.8498 -2.1461  2.8888
   8323SM  H18U11075   5.457   5.245   4.631 -0.6447  1.5698  1.6271
   8323SM   C1F11076   5.482   5.101   3.187 -0.0198  0.5765 -1.0715
   8323SM    OF11077   5.383   5.140   3.126 -0.1873 -0.1893 -0.3229
   8323SM   C2F11078   5.554   5.180   3.292 -0.1470 -0.3889 -0.4784
   8323SM   H2F11079   5.620   5.111   3.349 -0.5858 -0.5274 -0.1286
   8323SM   H2G11080   5.481   5.213   3.369 -0.9488 -1.8386 -0.5698
   8323SM   C3F11081   5.630   5.297   3.221 -0.0284  0.0039  0.5290
   8323SM   H3F11082   5.567   5.350   3.146  0.5237 -1.0107 -0.6776
   8323SM   H3G11083   5.703   5.252   3.151  0.2272  1.4455 -0.1851
   8323SM   C4F11084   5.708   5.380   3.319 -0.5565  0.7464 -0.4508
   8323SM   H4F11085   5.648   5.420   3.403  0.4824  3.5920 -0.9380
   8323SM   H4G11086   5.737   5.476   3.270  1.2050  0.4651 -0.0395
   8323SM   C5F11087   5.849   5.320   3.361  0.3308  0.1989 -0.3614
   8323SM   H5F11088   5.904   5.300   3.267  1.4345  0.5169  0.1921
   8323SM   H5G11089   5.833   5.214   3.391  2.6890  0.1380  0.9399
   8323SM   C6F11090   5.928   5.398   3.471  0.1796 -0.3154  0.9260
   8323SM   H6F11091   5.994   5.479   3.434 -0.8380  0.2074  0.2232
   8323SM   H6G11092   5.997   5.325   3.518  0.9427 -1.0752 -1.2551
   8323SM   C7F11093   5.834   5.459   3.584 -0.3551 -0.2819  0.5288
   8323SM   H7F11094   5.749   5.391   3.608 -1.6868  0.2575 -2.2116
   8323SM   H7G11095   5.792   5.551   3.538 -0.2887 -0.9562 -0.9559
   8323SM   C8F11096   5.912   5.491   3.708  0.2570 -0.3677 -1.1217
   8323SM   H8F11097   5.853   5.556   3.775  1.6289 -1.2053  1.0201
   8323SM   H8G11098   6.006   5.542   3.681 -0.0619 -0.2666 -2.0787
   8323SM   C9F11099   5.946   5.360   3.794 -0.1739 -0.0767 -0.1029
   8323SM   H9F11100   6.017   5.297   3.736  0.9751  0.8203  0.2913
   8323SM   H9G11101   5.846   5.314   3.807  0.6142 -1.4286  1.6668
   8323SM  C10F11102   6.002   5.396   3.930  0.2296  0.3029  0.1282
   8323SM  H10F11103   5.934   5.465   3.985  0.1166  0.7235 -0.5244
   8323SM  H10G11104   6.089   5.464   3.924  0.9803 -0.6569  0.0077
   8323SM  C11F11105   6.044   5.272   4.016  0.3765 -0.0672 -0.1619
   8323SM  H11F11106   6.141   5.227   3.985  0.5582 -1.6551  2.4226
   8323SM  H11G11107   5.971   5.188   4.007  0.0857 -0.1354  2.1492
   8323SM  C12F11108   6.057   5.300   4.170 -0.3955 -0.1880  0.3426
   8323SM  H12F11109   6.045   5.207   4.228 -2.1438  0.2738  0.7843
   8323SM  H12G11110   5.975   5.369   4.199  0.1523  0.5800  0.1154
   8323SM  C13F11111   6.191   5.361   4.199 -0.2030 -0.5202 -0.1636
   8323SM  H13F11112   6.217   5.443   4.129 -1.3575 -0.3116 -0.3829
   8323SM  H13G11113   6.281   5.297   4.204  0.0102 -0.1457  1.3021
   8323SM  C14F11114   6.183   5.429   4.337  0.1077 -0.4640  0.1088
   8323SM  H14F11115   6.102   5.503   4.319  2.1562  1.4817 -1.7955
   8323SM  H14G11116   6.284   5.474   4.343  0.9380 -1.7826 -2.4333
   8323SM  C15F11117   6.139   5.345   4.458  0.1262  0.4345  0.1226
   8323SM  H15F11118   6.220   5.269   4.463  1.8831  2.2798  1.3339
   8323SM  H15G11119   6.038   5.303   4.440 -0.1700  0.5987  1.3240
   8323SM  C16F11120   6.131   5.416   4.594  0.4652 -0.7558  0.3870
   8323SM  H16F11121   6.084   5.514   4.570  1.2985 -0.5135 -0.3436
   8323SM  H16G11122   6.231   5.444   4.634  0.6325 -0.7891 -0.0013
   8323SM  C17F11123   6.055   5.332   4.696 -0.0769  0.7035 -0.1996
   8323SM  H17F11124   6.132   5.272   4.748 -1.4688  0.1658  1.3008
   8323SM  H17G11125   5.984   5.270   4.637  0.6489 -0.2345 -0.0935
   8323SM  C18F11126   5.983   5.414   4.805  0.5275 -0.2391 -0.5252
   8323SM  H18F11127   5.890   5.451   4.757 -1.0665 -2.6477  0.5282
   8323SM  H18G11128   6.046   5.502   4.833 -0.1979  0.4546 -1.0105
   8323SM  C19F11129   5.945   5.347   4.940  0.2810  0.1456 -0.2772
   8323SM  H19F11130   6.014   5.267   4.977 -1.9056 -1.0812  1.4477
   8323SM  H19G11131   5.853   5.291   4.911  0.5380 -0.3374 -0.1822
   8323SM  C20F11132   5.911   5.443   5.058 -0.4187 -0.3978 -0.3949
   8323SM  H20F11133   5.888   5.535   5.001  2.2846 -0.6912 -2.1444
   8323SM  H20G11134   5.992   5.467   5.129 -0.0574  2.3051 -1.5855
   8323SM  C21F11135   5.778   5.394   5.133 -0.0786  0.0959  0.5064
   8323SM  H21F11136   5.790   5.284   5.130 -3.0166 -0.2870 -1.8380
   8323SM  H21G11137   5.688   5.411   5.070 -0.9218 -0.7052  1.4518
   8323SM  C22F11138   5.765   5.454   5.276 -0.5245  0.4439  0.0713
   8323SM  H22F11139   5.775   5.565   5.282  1.5927  0.3955 -1.6180
   8323SM  H22G11140   5.857   5.422   5.328  0.0997 -0.2967 -1.4216
   8323SM  C23F11141   5.635   5.402   5.349  0.5537 -0.3396  0.1282
   8323SM  H23F11142   5.620   5.440   5.452 -0.9061  0.2547 -0.2827
   8323SM  H23G11143   5.617   5.293   5.337 -0.1062 -0.0204 -2.2475
   8323SM  H23H11144   5.546   5.446   5.300  0.9633  0.0715 -0.2653
   8423SM     N11145   3.752   3.768   2.795  0.2177 -0.9338 -0.0762
   8423SM   C1511146   3.786   3.688   2.676 -0.3132  0.6566  0.5745
   8423SM  H15A11147   3.711   3.616   2.647  1.8750 -2.0533  1.0999
   8423SM  H15B11148   3.883   3.644   2.696  1.6815  4.0399 -0.8454
   8423SM  H15C11149   3.809   3.758   2.597  0.8837  0.6616  0.8993
   8423SM   C1411150   3.836   3.896   2.814  0.9753  0.0745  0.5046
   8423SM  H14A11151   3.815   3.960   2.730 -1.9639  1.3366  2.0317
   8423SM  H14B11152   3.940   3.876   2.836  1.1672 -0.0075 -0.4379
   8423SM  H14C11153   3.782   3.942   2.895 -1.0717 -0.0435 -0.7144
   8423SM   C1311154   3.615   3.820   2.775 -0.3278  0.3753  0.3597
   8423SM  H13A11155   3.547   3.737   2.763 -2.3915  2.1312 -0.9035
   8423SM  H13B11156   3.590   3.880   2.688 -0.3829 -1.6246 -1.0797
   8423SM  H13C11157   3.574   3.872   2.860  0.7196 -1.7469  2.2500
   8423SM   C1211158   3.762   3.680   2.918  0.5772 -0.9488 -0.1039
   8423SM  H12A11159   3.712   3.589   2.888  0.0605 -0.0381 -2.2032
   8423SM  H12B11160   3.710   3.725   3.001  0.7164  1.0409 -1.0311
   8423SM   C1111161   3.909   3.646   2.975  0.0065 -0.2088 -0.1002
   8423SM  H11A11162   3.885   3.616   3.080 -0.7685  0.9719  0.0849
   8423SM  H11B11163   3.971   3.738   2.974  0.5114 -0.5520 -1.3557
   8423SM     P11164   4.109   3.480   2.933 -0.1303 -0.1051  0.1386
   8423SM   O1311165   4.087   3.335   2.957  0.2144 -0.3314 -0.3350
   8423SM   O1411166   4.217   3.518   2.839  0.0721 -0.4424  0.0316
   8423SM   O1111167   4.148   3.537   3.071  0.0564  0.1333 -0.8071
   8423SM   O1211168   3.969   3.544   2.895  0.1500 -0.6204  0.3182
   8423SM   C1S11169   4.277   3.586   3.111 -0.5572  0.3941  0.5421
   8423SM   H1S11170   4.311   3.653   3.029 -0.9148  0.9497  0.8520
   8423SM   H1T11171   4.347   3.499   3.114 -2.1488 -1.0490 -1.4557
   8423SM    NF11172   4.406   3.725   3.276 -0.0167  0.2589 -0.2483
   8423SM   HNF11173   4.450   3.699   3.361  1.3112 -0.8678 -1.2294
   8423SM   C2S11174   4.272   3.668   3.243 -0.1143  0.4829 -0.1337
   8423SM   H2S11175   4.206   3.752   3.211  0.0333  0.2481 -1.0560
   8423SM   C3S11176   4.199   3.593   3.360 -0.0693 -0.3906 -0.7368
   8423SM   H3S11177   4.271   3.510   3.377  1.2778  0.6445 -1.2418
   8423SM    O311178   4.078   3.518   3.329  0.0660  0.7918  0.1334
   8423SM   HO311179   4.066   3.537   3.236 -2.5544  0.4461  0.3238
   8423SM   C4S11180   4.195   3.670   3.491  0.1841  0.0153 -0.3623
   8423SM   H4S11181   4.269   3.625   3.559  0.4924  0.6479 -0.2693
   8423SM   C5S11182   4.100   3.746   3.541 -0.2762 -0.4419 -0.2236
   8423SM   H5S11183   4.023   3.775   3.469  1.6741 -2.1101 -3.2165
   8423SM   C6S11184   4.084   3.796   3.681  0.1302  0.3730 -0.2214
   8423SM   H6S11185   4.175   3.766   3.737  0.6373 -1.5481 -1.9487
   8423SM   H6T11186   4.000   3.744   3.732 -0.8901  1.7979 -0.3680
   8423SM   C7S11187   4.060   3.951   3.696 -0.0408  0.1666  0.1919
   8423SM   H7S11188   3.967   3.969   3.638  0.1613  0.1007 -0.1598
   8423SM   H7T11189   4.146   4.001   3.645 -2.1627  1.6346 -2.1942
   8423SM   C8S11190   4.045   4.016   3.835  0.1952 -0.1624 -0.0337
   8423SM   H8S11191   4.141   3.999   3.888  0.1238  0.6063  0.3516
   8423SM   H8T11192   3.961   3.970   3.893  0.0078  0.5436  0.2692
   8423SM   C9S11193   4.012   4.165   3.821 -0.5715 -0.3032  0.3395
   8423SM   H9S11194   3.907   4.180   3.789 -0.6963  0.4098  1.0346
   8423SM   H9T11195   4.069   4.208   3.736 -0.7252 -0.1277  0.3248
   8423SM  C10S11196   4.048   4.250   3.932 -0.2168 -0.4066 -0.2106
   8423SM  H10S11197   4.016   4.203   4.027  1.0461 -0.9565 -0.0374
   8423SM  H10T11198   3.989   4.344   3.923 -0.7707 -0.6208  1.0426
   8423SM  C11S11199   4.198   4.284   3.932 -0.0762  0.1682 -0.0811
   8423SM  H11S11200   4.228   4.287   3.825 -0.8928 -1.3462 -0.3747
   8423SM  H11T11201   4.242   4.192   3.976 -2.1980 -0.6698  0.3959
   8423SM  C12S11202   4.242   4.395   4.026  0.2645  0.0202 -0.5149
   8423SM  H12S11203   4.194   4.492   4.000  0.8702  0.4472 -0.0765
   8423SM  H12T11204   4.353   4.401   4.024  0.3432 -1.3679 -1.8374
   8423SM  C13S11205   4.217   4.357   4.177  0.0344  0.2256 -0.2307
   8423SM  H13S11206   4.217   4.246   4.189 -0.2773  0.1107 -1.2057
   8423SM  H13T11207   4.118   4.394   4.211  0.8371  1.2231  1.1151
   8423SM  C14S11208   4.322   4.407   4.273  0.3803 -0.3840 -0.3997
   8423SM  H14S11209   4.347   4.514   4.253 -2.3850  1.3235  3.8943
   8423SM  H14T11210   4.417   4.351   4.260  1.5009  1.6448 -1.4750
   8423SM  C15S11211   4.276   4.391   4.420 -0.0270  0.3443  0.2767
   8423SM  H15S11212   4.244   4.286   4.440 -2.1672  1.1912  1.6629
   8423SM  H15T11213   4.185   4.454   4.430  1.2513  2.5617 -1.1876
   8423SM  C16S11214   4.378   4.440   4.520  0.2875 -0.1041  0.4350
   8423SM  H16S11215   4.389   4.551   4.523 -0.3169 -0.0053 -0.4026
   8423SM  H16T11216   4.470   4.380   4.504  0.6926  0.6906 -0.3039
   8423SM  C17S11217   4.334   4.414   4.672 -0.0249  0.0860 -0.4737
   8423SM  H17S11218   4.302   4.310   4.692 -0.4724  0.8212  3.5244
   8423SM  H17T11219   4.254   4.480   4.713 -0.9941 -0.8322 -0.8709
   8423SM  C18S11220   4.446   4.435   4.778 -0.4233  0.5698 -0.3232
   8423SM  H18S11221   4.481   4.541   4.770 -2.4387  1.2419 -1.0423
   8423SM  H18T11222   4.528   4.362   4.760 -1.0802  0.0808 -1.4516
   8423SM  H18U11223   4.408   4.404   4.877  2.8671 -0.6096  0.6717
   8423SM   C1F11224   4.469   3.804   3.188 -0.3671  0.4149  0.1917
   8423SM    OF11225   4.400   3.872   3.107 -0.3132  0.1704 -0.4532
   8423SM   C2F11226   4.620   3.814   3.195  0.8391  0.5550 -0.0682
   8423SM   H2F11227   4.665   3.867   3.108 -0.4243  1.3104 -0.2889
   8423SM   H2G11228   4.665   3.713   3.204  0.3005  0.2468 -0.7657
   8423SM   C3F11229   4.666   3.879   3.331 -0.0956 -0.3728 -0.1831
   8423SM   H3F11230   4.615   3.832   3.419 -0.3319  0.0391 -0.0976
   8423SM   H3G11231   4.631   3.984   3.334 -0.3174 -0.4403 -0.3457
   8423SM   C4F11232   4.814   3.865   3.332 -0.0338 -0.5602 -0.5500
   8423SM   H4F11233   4.871   3.895   3.241  0.1000  2.1889  0.3536
   8423SM   H4G11234   4.843   3.761   3.357 -0.0473 -0.5790 -0.6135
   8423SM   C5F11235   4.882   3.959   3.441 -0.0513  0.5643  0.3397
   8423SM   H5F11236   4.854   4.066   3.438  2.6226  1.4874  2.7647
   8423SM   H5G11237   4.991   3.955   3.417 -0.0679  1.1760  0.1492
   8423SM   C6F11238   4.871   3.902   3.578 -0.2580  0.0474  0.0357
   8423SM   H6F11239   4.913   3.800   3.591  0.5188  0.4380  0.6457
   8423SM   H6G11240   4.769   3.877   3.617 -0.6880  0.3397 -0.8810
   8423SM   C7F11241   4.939   3.998   3.677 -0.5916  0.2014 -0.6969
   8423SM   H7F11242   4.882   4.092   3.667 -1.5689 -0.2668  0.2430
   8423SM   H7G11243   5.046   4.008   3.647 -0.0428 -0.4624  0.9069
   8423SM   C8F11244   4.938   3.952   3.823 -0.1804 -0.2143  0.2848
   8423SM   H8F11245   5.020   3.877   3.834 -0.4979 -0.7920 -1.0437
   8423SM   H8G11246   4.837   3.917   3.854 -1.7205  2.2521 -1.6153
   8423SM   C9F11247   4.964   4.064   3.923 -0.2717  0.1715  0.0231
   8423SM   H9F11248   4.864   4.083   3.967 -0.3542 -3.1405  1.5134
   8423SM   H9G11249   5.011   4.155   3.879  0.5795  0.3344  1.2151
   8423SM  C10F11250   5.067   4.030   4.035 -0.1748  0.2951  0.4631
   8423SM  H10F11251   5.163   4.015   3.982 -0.3118  0.8888  0.0450
   8423SM  H10G11252   5.032   3.935   4.081  1.8258 -0.0132  1.4559
   8423SM  C11F11253   5.077   4.139   4.146 -0.6194 -0.2090  0.0985
   8423SM  H11F11254   4.980   4.154   4.198 -0.1353  1.2798  0.6442
   8423SM  H11G11255   5.104   4.233   4.093  1.1575 -1.3172 -1.0594
   8423SM  C12F11256   5.186   4.115   4.254  0.0494  0.1210  0.3237
   8423SM  H12F11257   5.286   4.152   4.222 -0.6218  0.4431 -1.5417
   8423SM  H12G11258   5.202   4.006   4.266 -1.7974 -0.4045 -1.3907
   8423SM  C13F11259   5.153   4.176   4.388 -0.5587 -0.2169 -0.3143
   8423SM  H13F11260   5.044   4.167   4.405 -0.3292  1.5071  2.6871
   8423SM  H13G11261   5.162   4.286   4.379 -1.1143 -0.2538 -1.4796
   8423SM  C14F11262   5.241   4.120   4.502  0.2141  0.5239 -0.2828
   8423SM  H14F11263   5.351   4.137   4.499  0.3201 -0.1345 -0.2017
   8423SM  H14G11264   5.217   4.011   4.503  1.6486  0.1602 -1.6889
   8423SM  C15F11265   5.200   4.173   4.636  0.6792 -0.0988 -0.2258
   8423SM  H15F11266   5.237   4.104   4.715  0.6370  0.8395  0.6252
   8423SM  H15G11267   5.091   4.192   4.647  1.0204  0.7378  2.1838
   8423SM  C16F11268   5.256   4.313   4.678  0.1146 -0.0748  0.2945
   8423SM  H16F11269   5.230   4.391   4.603  0.4101 -0.3076 -0.0549
   8423SM  H16G11270   5.364   4.289   4.676  0.4007  0.7118  2.7373
   8423SM  C17F11271   5.206   4.353   4.817 -0.4719 -0.0645  0.3760
   8423SM  H17F11272   5.198   4.264   4.883 -1.5105 -2.4501 -2.7249
   8423SM  H17G11273   5.101   4.390   4.814 -1.4299 -2.5988  0.3484
   8423SM  C18F11274   5.288   4.454   4.888 -0.5881 -0.3172  0.6735
   8423SM  H18F11275   5.229   4.503   4.969 -0.8057  1.1757 -0.3462
   8423SM  H18G11276   5.317   4.531   4.813 -0.0880 -0.8170  0.3481
   8423SM  C19F11277   5.426   4.397   4.921  0.1763 -0.3057  0.1363
   8423SM  H19F11278   5.473   4.353   4.830  0.6283  0.6840 -0.1169
   8423SM  H19G11279   5.420   4.328   5.007 -0.9860  0.7218  0.9147
   8423SM  C20F11280   5.533   4.508   4.954 -0.4818 -0.3094  0.5446
   8423SM  H20F11281   5.512   4.547   5.056 -1.9450  1.2933 -0.3196
   8423SM  H20G11282   5.514   4.587   4.878 -2.9725 -0.6879  0.6954
   8423SM  C21F11283   5.671   4.451   4.955  0.2073  0.5526  0.2845
   8423SM  H21F11284   5.701   4.444   4.848 -2.3590 -1.0880 -0.4162
   8423SM  H21G11285   5.691   4.350   4.997  3.2988  0.9031 -0.0791
   8423SM  C22F11286   5.771   4.542   5.026  0.2021 -0.8606 -0.4954
   8423SM  H22F11287   5.725   4.643   5.016 -2.0717 -2.0063 -3.0138
   8423SM  H22G11288   5.864   4.565   4.970  0.8132  1.5310  1.3359
   8423SM  C23F11289   5.805   4.521   5.176 -0.1216  0.4847  0.2355
   8423SM  H23F11290   5.715   4.475   5.220  1.1503 -1.3894  0.9782
   8423SM  H23G11291   5.825   4.623   5.217 -0.4077  1.0611 -1.0051
   8423SM  H23H11292   5.873   4.436   5.197 -0.5254 -0.2608 -1.3474
   8523SM     N11293   6.090   4.105   2.496  0.7342  0.4420  0.4135
   8523SM   C1511294   6.228   4.105   2.446 -0.5074 -0.3453  0.4170
   8523SM  H15A11295   6.235   4.000   2.421  0.2649 -0.1565 -0.1809
   8523SM  H15B11296   6.303   4.120   2.523  0.2651  0.8732 -0.5430
   8523SM  H15C11297   6.242   4.170   2.361 -0.5893  0.1880  0.8079
   8523SM   C1411298   5.997   4.078   2.377  0.7016  0.0334  0.2214
   8523SM  H14A11299   6.012   3.989   2.318  1.1196  0.2477  0.0014
   8523SM  H14B11300   6.000   4.159   2.307 -1.4228  1.9106  2.1328
   8523SM  H14C11301   5.894   4.075   2.409  0.5957 -1.4588 -0.1523
   8523SM   C1311302   6.070   3.986   2.579  0.0831  0.2405 -0.2450
   8523SM  H13A11303   5.964   3.973   2.600  0.0355  0.9135 -0.0544
   8523SM  H13B11304   6.117   3.995   2.675 -1.8110  0.7888  0.6908
   8523SM  H13C11305   6.104   3.891   2.541 -3.8693 -1.6473  0.3659
   8523SM   C1211306   6.038   4.237   2.559  0.3779  0.8167  0.3100
   8523SM  H12A11307   5.935   4.219   2.586 -0.0524  1.1365 -1.0351
   8523SM  H12B11308   6.043   4.312   2.481  0.3742 -1.4368 -1.9967
   8523SM   C1111309   6.114   4.300   2.685  0.5624  0.4372 -0.1139
   8523SM  H11A11310   6.148   4.218   2.751  0.1708  1.9339  2.0712
   8523SM  H11B11311   6.049   4.358   2.754 -1.8964 -2.8168  0.5012
   8523SM     P11312   6.227   4.511   2.577 -0.4753 -0.1756 -0.0784
   8523SM   O1311313   6.360   4.547   2.515 -0.3543 -0.3927 -0.1832
   8523SM   O1411314   6.103   4.556   2.502 -0.2425  0.4500  0.3704
   8523SM   O1111315   6.228   4.588   2.714 -0.4787  0.1389 -0.0897
   8523SM   O1211316   6.228   4.366   2.633 -0.1345 -0.1124  0.7127
   8523SM   C1S11317   6.301   4.538   2.833 -0.2647  0.6935  0.9229
   8523SM   H1S11318   6.408   4.513   2.814  0.1655  2.7184  0.4652
   8523SM   H1T11319   6.251   4.443   2.862  0.8039 -1.1109 -2.6179
   8523SM    NF11320   6.377   4.581   3.064  0.1754 -0.4093 -0.8380
   8523SM   HNF11321   6.328   4.557   3.148 -2.1061  2.1793 -1.2929
   8523SM   C2S11322   6.302   4.647   2.958 -0.7267 -0.3058  0.5432
   8523SM   H2S11323   6.351   4.741   2.926  0.2077 -1.3615 -1.3178
   8523SM   C3S11324   6.153   4.686   2.989  0.4075 -0.5827  0.6510
   8523SM   H3S11325   6.097   4.602   3.035  2.0419 -1.3345  1.3672
   8523SM    O311326   6.077   4.725   2.871  0.0533  0.0498 -0.1345
   8523SM   HO311327   6.139   4.687   2.809  1.2912 -2.2472  2.2764
   8523SM   C4S11328   6.163   4.801   3.093 -0.2864 -0.1387  0.1856
   8523SM   H4S11329   6.161   4.765   3.197  0.0455 -1.7438 -0.3357
   8523SM   C5S11330   6.182   4.933   3.075  0.3257  0.0438  0.1968
   8523SM   H5S11331   6.189   4.980   2.975  0.5331  2.3496  1.2379
   8523SM   C6S11332   6.181   5.027   3.194 -0.2872 -0.3987  0.9723
   8523SM   H6S11333   6.112   5.113   3.179  0.4162 -0.0013 -0.1900
   8523SM   H6T11334   6.276   5.085   3.184 -1.7430  1.8806 -0.4308
   8523SM   C7S11335   6.188   4.979   3.341  0.6848 -0.1224  0.1603
   8523SM   H7S11336   6.277   4.922   3.374  1.8571  3.2507  3.5542
   8523SM   H7T11337   6.100   4.913   3.353  1.4333 -1.6025 -1.9593
   8523SM   C8S11338   6.191   5.107   3.429  0.3311  0.1594  0.1032
   8523SM   H8S11339   6.092   5.157   3.431  0.3639  0.2077  0.6471
   8523SM   H8T11340   6.267   5.176   3.386 -0.3836 -0.0859 -1.6665
   8523SM   C9S11341   6.226   5.080   3.574 -0.4997 -0.3900  0.7606
   8523SM   H9S11342   6.305   5.001   3.578  0.7369  0.7027 -0.6824
   8523SM   H9T11343   6.139   5.049   3.635 -1.0953 -0.2166  0.0107
   8523SM  C10S11344   6.294   5.200   3.638  0.2588  0.0368 -0.4153
   8523SM  H10S11345   6.222   5.284   3.639 -1.8127 -1.6525  0.1955
   8523SM  H10T11346   6.376   5.234   3.571  0.1019 -1.8341 -1.6223
   8523SM  C11S11347   6.361   5.169   3.769  0.2529  0.3156 -0.5034
   8523SM  H11S11348   6.431   5.084   3.757  1.0305  0.8708 -0.0077
   8523SM  H11T11349   6.287   5.145   3.848  1.1636 -1.6525 -0.1721
   8523SM  C12S11350   6.447   5.284   3.827 -0.5088  0.8689 -0.6787
   8523SM  H12S11351   6.382   5.371   3.848 -1.9934 -0.3953  0.1341
   8523SM  H12T11352   6.526   5.310   3.753  1.4576  1.3293  1.4689
   8523SM  C13S11353   6.525   5.218   3.953  0.6501 -0.2039  0.1795
   8523SM  H13S11354   6.567   5.120   3.921  1.1130  0.3758 -1.0320
   8523SM  H13T11355   6.446   5.201   4.029 -0.4979  1.1122 -0.6779
   8523SM  C14S11356   6.641   5.296   4.015 -0.0656 -0.3143  0.2179
   8523SM  H14S11357   6.627   5.407   4.016 -0.7505 -0.3634  2.8086
   8523SM  H14T11358   6.727   5.285   3.945  0.3229  0.0989  0.6221
   8523SM  C15S11359   6.689   5.235   4.148  0.2579 -0.0780 -0.4395
   8523SM  H15S11360   6.800   5.239   4.144  0.3763 -0.2395  1.6571
   8523SM  H15T11361   6.654   5.131   4.161  0.0330  0.0250 -0.2221
   8523SM  C16S11362   6.663   5.318   4.279  0.3507  0.1867 -0.0097
   8523SM  H16S11363   6.552   5.317   4.288  0.4425 -1.0706  1.5321
   8523SM  H16T11364   6.704   5.421   4.277  1.4987 -0.2527  0.2718
   8523SM  C17S11365   6.719   5.243   4.396  0.1602  0.0098 -0.6358
   8523SM  H17S11366   6.830   5.237   4.386  0.4344 -0.1739  2.0172
   8523SM  H17T11367   6.666   5.146   4.403  2.3406 -1.2278 -0.4581
   8523SM  C18S11368   6.698   5.315   4.528 -0.3984 -0.8348 -0.1684
   8523SM  H18S11369   6.590   5.338   4.540 -1.1840 -0.9339 -5.0091
   8523SM  H18T11370   6.733   5.420   4.522 -1.2878 -0.5942 -1.6457
   8523SM  H18U11371   6.751   5.260   4.610 -0.1182 -0.1714  0.1067
   8523SM   C1F11372   6.514   4.569   3.065  0.5231 -1.1277  0.3013
   8523SM    OF11373   6.579   4.622   2.969  0.1773 -0.1463 -0.2654
   8523SM   C2F11374   6.576   4.499   3.174 -0.3493  0.4103 -0.8897
   8523SM   H2F11375   6.523   4.402   3.187 -1.7898  1.3742  0.8017
   8523SM   H2G11376   6.551   4.539   3.275  0.8227 -0.5340 -0.1917
   8523SM   C3F11377   6.732   4.479   3.162  0.2236  0.4468 -0.8248
   8523SM   H3F11378   6.770   4.583   3.156 -0.4219  0.7064 -0.5345
   8523SM   H3G11379   6.749   4.415   3.072  3.0071 -0.8633  0.5242
   8523SM   C4F11380   6.793   4.409   3.278  0.3040  0.3222 -0.8886
   8523SM   H4F11381   6.896   4.385   3.245  1.1785  1.2475  1.0143
   8523SM   H4G11382   6.749   4.308   3.298  3.3700 -0.7296  1.2843
   8523SM   C5F11383   6.795   4.495   3.406  0.2263 -0.0608  0.2034
   8523SM   H5F11384   6.695   4.532   3.437  1.4667  3.6394  0.2712
   8523SM   H5G11385   6.858   4.584   3.381 -0.1933  0.2544  0.2682
   8523SM   C6F11386   6.855   4.414   3.519  0.6667  0.3732 -0.0360
   8523SM   H6F11387   6.952   4.372   3.485 -0.7255 -3.4978  0.2743
   8523SM   H6G11388   6.789   4.329   3.548  0.3680  0.9915  1.1531
   8523SM   C7F11389   6.888   4.498   3.642 -0.5554 -0.1145 -0.7973
   8523SM   H7F11390   6.801   4.547   3.689 -1.2474  0.6236 -2.7767
   8523SM   H7G11391   6.963   4.574   3.610  4.2028 -3.1725  1.7407
   8523SM   C8F11392   6.962   4.413   3.757  0.1260 -0.0019  0.0495
   8523SM   H8F11393   7.072   4.423   3.748 -0.0895  2.5757 -0.5094
   8523SM   H8G11394   6.926   4.308   3.749 -0.5292  0.1763  0.5732
   8523SM   C9F11395   6.906   4.452   3.901  0.2845 -0.0683  0.7399
   8523SM   H9F11396   6.795   4.443   3.896  0.1936  1.0965  0.3739
   8523SM   H9G11397   6.934   4.560   3.902  1.2365 -0.2949 -0.2798
   8523SM  C10F11398   6.959   4.373   4.024 -0.3854 -0.2871  0.2865
   8523SM  H10F11399   7.069   4.371   4.018 -0.4457 -2.5826 -1.5423
   8523SM  H10G11400   6.925   4.268   4.012 -4.0203  0.6983  0.6304
   8523SM  C11F11401   6.921   4.436   4.158 -0.5917 -0.7433 -0.5275
   8523SM  H11F11402   6.811   4.447   4.165 -0.7475 -1.6718 -1.3381
   8523SM  H11G11403   6.975   4.532   4.142  0.3200 -1.2806 -0.7188
   8523SM  C12F11404   6.990   4.383   4.281 -0.9928  0.1243  0.4853
   8523SM  H12F11405   7.081   4.325   4.256 -1.1502 -0.0291  0.2712
   8523SM  H12G11406   6.929   4.318   4.347 -0.2927  0.5340  1.5760
   8523SM  C13F11407   7.049   4.502   4.364  0.1654  0.2802  0.0241
   8523SM  H13F11408   6.962   4.555   4.409  0.7734  2.7465 -1.5004
   8523SM  H13G11409   7.107   4.571   4.299  0.6849  0.6046  0.8081
   8523SM  C14F11410   7.143   4.461   4.468 -1.0421  0.2669 -0.3318
   8523SM  H14F11411   7.232   4.410   4.426 -0.9354 -2.0498  2.3729
   8523SM  H14G11412   7.098   4.386   4.537 -1.0208  1.6627  1.2805
   8523SM  C15F11413   7.192   4.574   4.563  0.3973 -0.2812  0.3356
   8523SM  H15F11414   7.104   4.620   4.612  0.0425 -1.5202  0.9033
   8523SM  H15G11415   7.233   4.660   4.506  0.3667  0.6278  1.6352
   8523SM  C16F11416   7.293   4.524   4.664  0.0652 -0.3407  0.5466
   8523SM  H16F11417   7.280   4.414   4.669  5.0402 -1.2303 -0.7190
   8523SM  H16G11418   7.262   4.568   4.762 -0.5540 -0.8198  0.5720
   8523SM  C17F11419   7.437   4.561   4.615  0.2649  0.5883 -0.0447
   8523SM  H17F11420   7.435   4.672   4.609 -1.1397  0.5706 -0.1314
   8523SM  H17G11421   7.447   4.522   4.511  2.8848 -0.0804  0.3713
   8523SM  C18F11422   7.546   4.507   4.700 -0.2997 -0.1166 -1.0540
   8523SM  H18F11423   7.531   4.399   4.723 -2.0415  0.2900 -0.0845
   8523SM  H18G11424   7.529   4.563   4.795 -0.5227 -0.6693 -0.7652
   8523SM  C19F11425   7.681   4.548   4.652  0.3979  0.0763  0.4071
   8523SM  H19F11426   7.696   4.508   4.550 -2.0064  0.1340 -0.0196
   8523SM  H19G11427   7.749   4.500   4.726 -0.7010 -0.2211  1.2563
   8523SM  C20F11428   7.716   4.697   4.643  0.2783 -0.1411 -0.3722
   8523SM  H20F11429   7.681   4.757   4.731  0.2883 -1.0127  0.2375
   8523SM  H20G11430   7.664   4.728   4.550 -0.1362 -0.4768 -0.2569
   8523SM  C21F11431   7.866   4.710   4.630  0.2159 -0.2084  0.4966
   8523SM  H21F11432   7.884   4.818   4.611  0.4787 -0.2995  0.2091
   8523SM  H21G11433   7.909   4.643   4.552 -0.6587 -0.3692  0.1315
   8523SM  C22F11434   7.940   4.679   4.763  0.0477 -0.1928 -0.0132
   8523SM  H22F11435   7.937   4.568   4.774 -2.1497 -0.4245 -2.0409
   8523SM  H22G11436   7.889   4.727   4.850 -2.9095 -3.8236  0.5205
   8523SM  C23F11437   8.083   4.735   4.750 -0.2526  0.6481 -0.0384
   8523SM  H23F11438   8.076   4.845   4.742 -3.2657  0.5712  0.1578
   8523SM  H23G11439   8.141   4.686   4.670  0.1969 -4.2701  2.8512
   8523SM  H23H11440   8.141   4.700   4.839  0.1695  1.0439 -0.1561
   8623SM     N11441   3.354   2.331   3.211  0.1706  0.0268  0.2386
   8623SM   C1511442   3.332   2.320   3.363 -0.1329 -0.3858 -0.1027
   8623SM  H15A11443   3.343   2.214   3.379  1.0205 -0.1638  0.7241
   8623SM  H15B11444   3.228   2.341   3.379  0.3324  1.8262  0.3391
   8623SM  H15C11445   3.386   2.375   3.438 -0.3443 -1.7165  1.0629
   8623SM   C1411446   3.488   2.282   3.174 -0.5708  0.8158  0.1638
   8623SM  H14A11447   3.504   2.267   3.068 -0.1461  0.9547  0.2040
   8623SM  H14B11448   3.523   2.197   3.232  0.7326  2.2470  1.5836
   8623SM  H14C11449   3.568   2.352   3.196  1.6053 -0.8641 -1.8027
   8623SM   C1311450   3.246   2.247   3.144 -0.6531  0.1892  0.0520
   8623SM  H13A11451   3.275   2.226   3.042 -0.0039 -2.6220  0.7342
   8623SM  H13B11452   3.143   2.279   3.148 -0.5993  0.7365 -1.8720
   8623SM  H13C11453   3.253   2.151   3.192  0.5461  0.6799  0.9185
   8623SM   C1211454   3.325   2.475   3.162 -0.4488 -0.0843  0.5148
   8623SM  H12A11455   3.223   2.506   3.178 -0.8436 -1.3090  0.5091
   8623SM  H12B11456   3.346   2.472   3.056  0.8159 -0.7515  0.7606
   8623SM   C1111457   3.417   2.584   3.221  0.6795 -0.6189 -0.6919
   8623SM  H11A11458   3.384   2.586   3.327  0.4020 -0.1965 -0.7855
   8623SM  H11B11459   3.388   2.681   3.175  0.2700 -0.9745 -1.1994
   8623SM     P11460   3.675   2.589   3.288  0.0460  0.0837 -0.2736
   8623SM   O1311461   3.705   2.463   3.367 -0.4002 -0.3285  0.2010
   8623SM   O1411462   3.785   2.639   3.208 -0.2362 -0.1400 -0.1783
   8623SM   O1111463   3.636   2.708   3.383 -0.5264  0.7856  0.1040
   8623SM   O1211464   3.555   2.557   3.191  0.1371 -0.0359 -0.8669
   8623SM   C1S11465   3.609   2.673   3.522  0.4865  0.9266  0.0033
   8623SM   H1S11466   3.704   2.650   3.574 -1.0569  0.8023  2.9901
   8623SM   H1T11467   3.534   2.591   3.529  2.4334 -0.8934  0.7319
   8623SM    NF11468   3.532   2.745   3.741  0.3301 -0.0538  0.1398
   8623SM   HNF11469   3.453   2.685   3.755  1.3663 -1.3089  0.7475
   8623SM   C2S11470   3.547   2.787   3.605 -0.4278  0.1237  0.1903
   8623SM   H2S11471   3.627   2.864   3.610 -0.5159  0.2137  0.2132
   8623SM   C3S11472   3.417   2.834   3.531 -0.2945 -0.1934 -0.1472
   8623SM   H3S11473   3.339   2.755   3.536 -2.1051  1.5000 -0.5850
   8623SM    O311474   3.427   2.862   3.393 -0.6152 -0.2554 -0.5191
   8623SM   HO311475   3.516   2.830   3.379 -0.0546  1.1690 -0.3133
   8623SM   C4S11476   3.358   2.945   3.603  0.3315  0.0696 -0.3967
   8623SM   H4S11477   3.297   2.935   3.694  1.1755  0.7009  0.2572
   8623SM   C5S11478   3.383   3.072   3.572 -0.1234 -0.4661 -0.5311
   8623SM   H5S11479   3.444   3.100   3.484 -0.7015 -2.6850 -1.7037
   8623SM   C6S11480   3.334   3.182   3.658 -0.0163 -0.1803  0.3361
   8623SM   H6S11481   3.224   3.187   3.651  0.1109  0.5797 -1.7861
   8623SM   H6T11482   3.377   3.279   3.625  1.5073 -1.2808 -1.1118
   8623SM   C7S11483   3.376   3.171   3.807  1.1007  0.1495 -0.6020
   8623SM   H7S11484   3.339   3.079   3.857  2.2912 -0.0451 -0.0519
   8623SM   H7T11485   3.329   3.262   3.850  0.6020 -0.1651 -0.4753
   8623SM   C8S11486   3.534   3.173   3.825 -0.2410  0.3249 -0.3247
   8623SM   H8S11487   3.570   3.252   3.756 -1.4881  0.2237 -1.1183
   8623SM   H8T11488   3.577   3.076   3.791 -1.5155 -1.8087  3.5475
   8623SM   C9S11489   3.578   3.196   3.969  0.5966 -0.1376 -0.6403
   8623SM   H9S11490   3.556   3.103   4.026  3.4446 -0.7303 -0.3667
   8623SM   H9T11491   3.516   3.274   4.018  0.9824 -0.3131  0.1443
   8623SM  C10S11492   3.735   3.216   3.980  0.4950  0.3297  0.1054
   8623SM  H10S11493   3.785   3.133   3.927  0.9861 -0.9090  2.3679
   8623SM  H10T11494   3.769   3.225   4.085  1.7775  1.6426 -0.3926
   8623SM  C11S11495   3.776   3.348   3.921  0.5354  0.0097 -0.5841
   8623SM  H11S11496   3.723   3.428   3.977 -0.1064  0.2778 -1.5517
   8623SM  H11T11497   3.754   3.370   3.814  2.9043  2.4926 -0.6759
   8623SM  C12S11498   3.926   3.382   3.946  0.9757  0.6112  0.2197
   8623SM  H12S11499   4.001   3.329   3.883 -0.4729 -2.4891  0.9328
   8623SM  H12T11500   3.932   3.352   4.053 -1.0562 -2.4940 -0.4176
   8623SM  C13S11501   3.965   3.533   3.934 -0.5051  0.3550  0.2461
   8623SM  H13S11502   3.916   3.582   3.847 -1.5015 -1.1814 -0.0864
   8623SM  H13T11503   4.074   3.534   3.917 -0.9098  2.4182 -3.0270
   8623SM  C14S11504   3.931   3.609   4.062  0.2427  0.3985  0.1763
   8623SM  H14S11505   3.975   3.554   4.147 -1.4348  0.5160  1.1658
   8623SM  H14T11506   3.820   3.601   4.073  0.2612  2.1893  2.1599
   8623SM  C15S11507   3.979   3.750   4.078 -0.6133  0.0279  0.4339
   8623SM  H15S11508   3.911   3.819   4.022 -0.3525 -0.6117 -0.7042
   8623SM  H15T11509   4.084   3.751   4.041 -0.1321  1.0642  1.7557
   8623SM  C16S11510   3.997   3.817   4.218  0.1762  0.3841 -0.0173
   8623SM  H16S11511   4.039   3.738   4.285 -1.5094 -0.3725  0.1943
   8623SM  H16T11512   3.894   3.840   4.252 -0.8177 -0.5934 -2.2073
   8623SM  C17S11513   4.086   3.936   4.219 -0.2278 -0.1793 -0.0017
   8623SM  H17S11514   4.037   4.014   4.156 -0.9534 -1.6807 -1.3425
   8623SM  H17T11515   4.178   3.915   4.161 -0.5732 -0.1987 -0.5467
   8623SM  C18S11516   4.125   3.989   4.353  0.1995  0.3515 -0.2953
   8623SM  H18S11517   4.040   3.967   4.422  0.0610 -1.1888 -0.9167
   8623SM  H18T11518   4.156   4.096   4.350 -0.8356  0.7028  0.5897
   8623SM  H18U11519   4.214   3.936   4.392 -0.3786  0.5212  1.3714
   8623SM   C1F11520   3.638   2.748   3.825 -0.0193  0.7277 -0.1287
   8623SM    OF11521   3.752   2.789   3.793  0.4309 -0.3626 -0.8759
   8623SM   C2F11522   3.601   2.704   3.964 -0.4118  0.7338 -0.2178
   8623SM   H2F11523   3.612   2.595   3.981 -0.0582  0.9368  0.9544
   8623SM   H2G11524   3.495   2.738   3.970 -0.1978  1.9062 -2.1331
   8623SM   C3F11525   3.686   2.776   4.073 -0.4462 -0.4662 -0.4356
   8623SM   H3F11526   3.679   2.884   4.049 -2.1388 -0.6461 -0.9026
   8623SM   H3G11527   3.793   2.753   4.054 -0.4360 -2.1544  1.3688
   8623SM   C4F11528   3.647   2.739   4.223 -0.0321  0.2760  0.5636
   8623SM   H4F11529   3.674   2.632   4.243  2.7344  1.1503  2.1648
   8623SM   H4G11530   3.537   2.745   4.233 -0.1227 -2.4128  2.7527
   8623SM   C5F11531   3.694   2.828   4.340 -0.3687  0.1772 -0.4211
   8623SM   H5F11532   3.801   2.808   4.364 -0.5827  0.1602  0.5406
   8623SM   H5G11533   3.633   2.800   4.429 -0.5811  0.3728 -0.5055
   8623SM   C6F11534   3.651   2.976   4.319 -0.2027  0.3613 -0.6743
   8623SM   H6F11535   3.546   2.983   4.282 -0.4781  0.1246  0.0524
   8623SM   H6G11536   3.714   3.025   4.241 -0.0886  0.2221 -0.6713
   8623SM   C7F11537   3.686   3.062   4.438  1.1397 -0.2974 -0.2866
   8623SM   H7F11538   3.779   3.018   4.480  0.8148  0.4908  1.3423
   8623SM   H7G11539   3.608   3.059   4.517  2.4755 -1.1785  1.0475
   8623SM   C8F11540   3.708   3.212   4.405 -0.7459  0.4050 -0.0518
   8623SM   H8F11541   3.643   3.281   4.462 -2.2854  0.0013 -1.2270
   8623SM   H8G11542   3.686   3.239   4.299  0.3777  1.9245  0.0731
   8623SM   C9F11543   3.850   3.255   4.430  0.4340 -0.0960 -0.3471
   8623SM   H9F11544   3.912   3.203   4.354 -0.4041 -1.4304 -0.1511
   8623SM   H9G11545   3.886   3.220   4.529  0.3480 -1.2995 -0.7271
   8623SM  C10F11546   3.869   3.402   4.415 -0.8654  0.1826 -0.6029
   8623SM  H10F11547   3.820   3.444   4.324  0.7644  1.9277 -0.7372
   8623SM  H10G11548   3.976   3.424   4.392 -0.4187  1.6005  2.3491
   8623SM  C11F11549   3.826   3.483   4.534  0.2898 -0.4106 -0.3612
   8623SM  H11F11550   3.877   3.438   4.622  0.6767 -0.6923 -0.7275
   8623SM  H11G11551   3.717   3.483   4.558  0.3704  0.9335  0.0632
   8623SM  C12F11552   3.857   3.637   4.529 -0.1987  0.3832 -0.4339
   8623SM  H12F11553   3.791   3.679   4.449  1.5720  1.5851 -1.3106
   8623SM  H12G11554   3.961   3.661   4.501  0.4242 -0.5931  0.9395
   8623SM  C13F11555   3.832   3.695   4.670 -0.0885 -0.4827 -0.6727
   8623SM  H13F11556   3.900   3.653   4.748  1.9773  1.7960 -1.1308
   8623SM  H13G11557   3.728   3.674   4.702 -0.7425  2.5660 -0.4922
   8623SM  C14F11558   3.849   3.850   4.675  0.1179 -0.1496 -0.3552
   8623SM  H14F11559   3.783   3.890   4.755 -0.2931 -0.2320 -0.6528
   8623SM  H14G11560   3.818   3.882   4.574 -3.9005 -2.4416 -0.0574
   8623SM  C15F11561   3.992   3.879   4.728  0.3840 -0.0877  0.0398
   8623SM  H15F11562   4.072   3.815   4.686  2.3906  1.1836  1.7310
   8623SM  H15G11563   3.986   3.854   4.836 -1.6108  0.6271  0.1431
   8623SM  C16F11564   4.039   4.024   4.713  0.5197 -0.0788  0.0616
   8623SM  H16F11565   3.991   4.099   4.780  1.2733  1.1173 -0.7031
   8623SM  H16G11566   4.009   4.055   4.611 -2.8412 -1.2641  0.5520
   8623SM  C17F11567   4.189   4.050   4.734  0.4034  0.4905  0.1619
   8623SM  H17F11568   4.202   4.160   4.741  3.7099  0.1466  1.2175
   8623SM  H17G11569   4.243   4.008   4.647 -0.8108  1.9586 -1.3583
   8623SM  C18F11570   4.237   3.989   4.863  0.0604 -0.4100 -0.0473
   8623SM  H18F11571   4.242   3.878   4.859  0.4581 -0.3972  0.0783
   8623SM  H18G11572   4.173   4.012   4.952  0.6810  1.0924  0.0316
   8623SM  C19F11573   4.371   4.038   4.893 -0.8816  0.7153  0.3233
   8623SM  H19F11574   4.370   4.143   4.930 -0.6247  1.1851 -0.9351
   8623SM  H19G11575   4.444   4.028   4.809  1.7555 -0.4799  2.6077
   8623SM  C20F11576   4.428   3.951   5.006  1.2175  0.7495 -0.0179
   8623SM  H20F11577   4.434   3.847   4.967 -1.3797  0.5691 -0.1126
   8623SM  H20G11578   4.367   3.954   5.099  2.8075 -0.7514  1.1321
   8623SM  C21F11579   4.569   3.994   5.050  0.3107 -0.4231 -0.0563
   8623SM  H21F11580   4.621   4.028   4.958  0.0016  1.2679  0.3768
   8623SM  H21G11581   4.615   3.900   5.090 -0.2934 -1.4481 -1.6872
   8623SM  C22F11582   4.584   4.115   5.141  0.2398  0.2530 -0.0278
   8623SM  H22F11583   4.499   4.102   5.211 -0.1763  1.0466 -0.3802
   8623SM  H22G11584   4.575   4.215   5.094  2.6159  0.9691  0.8676
   8623SM  C23F11585   4.724   4.126   5.206  0.3875  0.1241  0.1884
   8623SM  H23F11586   4.729   4.214   5.274 -0.1476 -0.8514  1.5216
   8623SM  H23G11587   4.791   4.159   5.123  1.9505  0.4875  1.5530
   8623SM  H23H11588   4.759   4.035   5.258  2.4530 -1.3262 -3.3696
   8723SM     N11589   5.228   2.960   2.970 -0.2617  0.7249 -0.0620
   8723SM   C1511590   5.229   2.916   2.829  0.0540 -0.3395  0.1026
   8723SM  H15A11591   5.159   2.834   2.820 -0.0548 -0.2148 -0.1810
   8723SM  H15B11592   5.326   2.880   2.797 -0.3713 -0.2282 -1.3641
   8723SM  H15C11593   5.203   2.993   2.759  2.5650  1.5847  1.1335
   8723SM   C1411594   5.261   2.843   3.049  0.5314  0.5547  0.4722
   8723SM  H14A11595   5.350   2.797   3.009  0.0982  1.0237 -1.0765
   8723SM  H14B11596   5.187   2.764   3.046  2.2614 -1.1097 -0.7518
   8723SM  H14C11597   5.274   2.867   3.154 -1.2107  0.2243  0.7974
   8723SM   C1311598   5.331   3.072   2.989 -0.0274  0.7869 -0.1596
   8723SM  H13A11599   5.302   3.160   2.934  0.8737 -0.4101 -2.6853
   8723SM  H13B11600   5.427   3.052   2.944 -0.9670 -1.5267 -1.3241
   8723SM  H13C11601   5.344   3.100   3.093 -0.6412 -0.4406  0.2708
   8723SM   C1211602   5.096   3.007   3.010 -0.4838  0.6930 -0.4447
   8723SM  H12A11603   5.025   2.931   2.983 -1.1776  1.8677 -2.0508
   8723SM  H12B11604   5.063   3.089   2.948  0.3255  1.2838 -0.1082
   8723SM   C1111605   5.073   3.031   3.160  0.1051 -0.8350 -1.0667
   8723SM  H11A11606   4.976   3.081   3.185  0.7629  0.3082 -0.7361
   8723SM  H11B11607   5.151   3.101   3.195 -0.5740 -0.4004 -0.3703
   8723SM     P11608   4.935   2.828   3.264 -0.2229 -0.0347  0.1348
   8723SM   O1311609   4.864   2.816   3.134 -0.5946  0.1903 -0.0119
   8723SM   O1411610   4.957   2.700   3.336  0.2307 -0.1750 -0.0511
   8723SM   O1111611   4.849   2.932   3.345 -0.3711  0.3465  0.0626
   8723SM   O1211612   5.073   2.903   3.237  0.3253 -0.3303  0.6365
   8723SM   C1S11613   4.847   2.917   3.491  0.5123 -0.4196 -0.2551
   8723SM   H1S11614   4.935   2.971   3.531 -1.1478  2.5638 -0.3677
   8723SM   H1T11615   4.841   2.810   3.523  0.3576 -0.6676 -1.0955
   8723SM    NF11616   4.715   2.999   3.686  0.4872 -0.2147  0.5779
   8723SM   HNF11617   4.650   2.937   3.730 -0.3120  2.0470  2.7893
   8723SM   C2S11618   4.721   2.984   3.541  0.0301 -0.3632 -1.4449
   8723SM   H2S11619   4.733   3.086   3.498 -2.7907  1.1289  0.9468
   8723SM   C3S11620   4.590   2.921   3.494  0.1556 -0.3883  0.2360
   8723SM   H3S11621   4.579   2.825   3.550  1.8332 -1.0113 -0.4379
   8723SM    O311622   4.584   2.890   3.353 -0.3756  0.3218 -0.0988
   8723SM   HO311623   4.675   2.884   3.325  0.2489  0.3528  1.7538
   8723SM   C4S11624   4.464   3.009   3.529 -0.6827 -0.0622  0.3018
   8723SM   H4S11625   4.415   2.990   3.625  0.9820 -1.4688  0.9222
   8723SM   C5S11626   4.411   3.106   3.450 -0.5188  0.2009 -0.0334
   8723SM   H5S11627   4.463   3.123   3.354  2.1643  2.1426  1.6203
   8723SM   C6S11628   4.297   3.195   3.491  0.4945 -0.3277 -0.1783
   8723SM   H6S11629   4.199   3.148   3.466  0.9296 -0.4331 -1.8280
   8723SM   H6T11630   4.301   3.282   3.422  0.3510 -1.0274 -1.0893
   8723SM   C7S11631   4.275   3.233   3.635 -0.5626  0.0205 -0.3268
   8723SM   H7S11632   4.254   3.138   3.689 -0.9228  0.6231  0.6187
   8723SM   H7T11633   4.177   3.284   3.643 -1.5086 -1.3778 -2.1509
   8723SM   C8S11634   4.389   3.309   3.703  0.1853  0.1126  0.7756
   8723SM   H8S11635   4.401   3.404   3.648 -0.2635 -1.5290 -2.4139
   8723SM   H8T11636   4.483   3.253   3.686 -0.0670 -0.5082  1.3654
   8723SM   C9S11637   4.351   3.320   3.850 -0.3043 -0.0572  0.1002
   8723SM   H9S11638   4.251   3.368   3.857 -0.2672 -0.0512  0.5838
   8723SM   H9T11639   4.417   3.397   3.896  1.5892 -1.2005 -0.6077
   8723SM  C10S11640   4.375   3.193   3.934  0.0277 -0.9654  0.0620
   8723SM  H10S11641   4.461   3.132   3.899 -0.2003 -1.9341  1.1383
   8723SM  H10T11642   4.297   3.122   3.899  0.4543 -1.7507  0.6778
   8723SM  C11S11643   4.391   3.228   4.085 -0.0961  0.2843 -0.0489
   8723SM  H11S11644   4.486   3.285   4.090 -0.9189  1.8945 -1.4648
   8723SM  H11T11645   4.420   3.137   4.142  2.0478 -0.3771 -2.0495
   8723SM  C12S11646   4.274   3.310   4.141 -0.9017  0.1751 -0.3508
   8723SM  H12S11647   4.188   3.240   4.144 -0.5486 -0.2598  3.0277
   8723SM  H12T11648   4.251   3.396   4.075 -1.2577  0.0718 -0.3617
   8723SM  C13S11649   4.298   3.354   4.287  0.7054  0.4489 -0.2698
   8723SM  H13S11650   4.231   3.438   4.314  0.5736  0.2261  0.0947
   8723SM  H13T11651   4.397   3.402   4.297  0.6202  0.2220  2.3558
   8723SM  C14S11652   4.286   3.244   4.392  0.4261  0.0425 -0.0655
   8723SM  H14S11653   4.378   3.182   4.402  0.7519  0.6988  1.2987
   8723SM  H14T11654   4.220   3.161   4.360 -1.1449  1.3612 -0.4005
   8723SM  C15S11655   4.261   3.311   4.527 -0.3449  0.2298 -0.1475
   8723SM  H15S11656   4.245   3.232   4.603 -2.3039  1.2196  0.5307
   8723SM  H15T11657   4.161   3.358   4.527  0.2718  1.6018 -0.2549
   8723SM  C16S11658   4.366   3.410   4.570 -0.5725 -0.2105  0.5174
   8723SM  H16S11659   4.365   3.499   4.504  1.3770 -0.6656 -0.1868
   8723SM  H16T11660   4.467   3.366   4.559  0.2172  1.7670 -0.7004
   8723SM  C17S11661   4.334   3.458   4.717 -0.1644  0.8082  0.3256
   8723SM  H17S11662   4.329   3.371   4.787  0.6873 -0.1383 -0.7463
   8723SM  H17T11663   4.231   3.499   4.724  0.0596  1.6252 -0.9360
   8723SM  C18S11664   4.426   3.561   4.781  0.1314 -0.7830  0.3025
   8723SM  H18S11665   4.412   3.590   4.887 -2.3045 -0.6943  0.0177
   8723SM  H18T11666   4.423   3.654   4.721  1.8194 -0.4914  0.6243
   8723SM  H18U11667   4.531   3.524   4.781 -0.0126 -1.2817  2.1676
   8723SM   C1F11668   4.811   3.059   3.760 -0.3357 -0.4056 -0.0873
   8723SM    OF11669   4.900   3.128   3.716 -0.4911  0.7516 -0.4158
   8723SM   C2F11670   4.801   3.041   3.904 -0.1171  0.8430 -0.1443
   8723SM   H2F11671   4.814   2.932   3.925  1.2569  0.7245 -1.4097
   8723SM   H2G11672   4.705   3.066   3.954  1.2622 -0.1646  3.3203
   8723SM   C3F11673   4.907   3.124   3.981 -0.2378 -0.3178  0.2395
   8723SM   H3F11674   4.869   3.228   3.985  1.8549  0.5512 -0.7700
   8723SM   H3G11675   5.008   3.114   3.936 -0.1787  0.6263  0.1269
   8723SM   C4F11676   4.921   3.085   4.124  0.6239 -0.3595 -0.5208
   8723SM   H4F11677   4.964   2.983   4.137  1.6065  0.2482  1.4560
   8723SM   H4G11678   4.818   3.101   4.163  0.5878  2.3385 -1.5310
   8723SM   C5F11679   5.019   3.176   4.196  0.4185  0.8561  0.0502
   8723SM   H5F11680   4.975   3.277   4.213 -1.7288 -0.1169  0.7244
   8723SM   H5G11681   5.115   3.178   4.142  0.9793 -0.1368  0.9701
   8723SM   C6F11682   5.057   3.121   4.338  0.1217  1.1034 -0.0418
   8723SM   H6F11683   5.119   3.029   4.332 -1.2056  0.2792 -2.1408
   8723SM   H6G11684   4.960   3.094   4.386 -0.8754 -0.9170 -2.9068
   8723SM   C7F11685   5.120   3.234   4.418 -0.3641  0.3029 -0.2146
   8723SM   H7F11686   5.044   3.312   4.439  0.2755  0.7270  0.6445
   8723SM   H7G11687   5.209   3.283   4.372 -0.2696  0.4076  0.0746
   8723SM   C8F11688   5.165   3.204   4.560 -0.1008 -0.2794  0.8693
   8723SM   H8F11689   5.248   3.130   4.549  0.4366  0.4862 -0.4593
   8723SM   H8G11690   5.091   3.141   4.612  1.0361 -4.4603 -2.0733
   8723SM   C9F11691   5.227   3.326   4.631 -0.4092  0.2060 -0.1701
   8723SM   H9F11692   5.159   3.412   4.621 -1.8054 -1.0780 -2.7511
   8723SM   H9G11693   5.318   3.346   4.571  0.6125 -0.9575  0.9163
   8723SM  C10F11694   5.269   3.275   4.776 -0.5827  0.6477  0.0814
   8723SM  H10F11695   5.359   3.210   4.771 -2.2885 -2.1841  2.6330
   8723SM  H10G11696   5.187   3.217   4.824 -0.7368 -0.5729 -1.5695
   8723SM  C11F11697   5.300   3.393   4.872 -0.2148 -0.5175  0.0931
   8723SM  H11F11698   5.204   3.448   4.866 -1.2086 -1.9012  1.9759
   8723SM  H11G11699   5.386   3.451   4.833 -0.2883 -0.4778 -0.0090
   8723SM  C12F11700   5.316   3.358   5.018 -0.4204  0.2903 -0.4321
   8723SM  H12F11701   5.225   3.308   5.058 -0.9796  3.5393  2.9221
   8723SM  H12G11702   5.317   3.453   5.075  2.8613 -0.4246  0.9220
   8723SM  C13F11703   5.448   3.282   5.051 -0.0159 -0.1202  0.5063
   8723SM  H13F11704   5.530   3.350   5.022  1.4152 -2.3775 -1.0651
   8723SM  H13G11705   5.451   3.202   4.974 -0.0673  0.5065 -0.1612
   8723SM  C14F11706   5.446   3.233   5.194 -0.3789 -0.4330  0.7433
   8723SM  H14F11707   5.344   3.197   5.219 -1.1776  0.4191 -1.0656
   8723SM  H14G11708   5.459   3.325   5.255 -1.1343  1.2407 -1.4615
   8723SM  C15F11709   5.553   3.139   5.236 -0.0726  0.0357 -0.3310
   8723SM  H15F11710   5.656   3.178   5.224  0.4765 -1.3557 -0.3195
   8723SM  H15G11711   5.555   3.051   5.169  0.2405  0.0778 -0.3758
   8723SM  C16F11712   5.539   3.104   5.389 -0.1197 -0.2409 -0.1668
   8723SM  H16F11713   5.448   3.043   5.406 -0.7830  1.5337  3.7232
   8723SM  H16G11714   5.533   3.200   5.444  0.4704  0.0401 -0.5794
   8723SM  C17F11715   5.647   3.020   5.447 -0.1428  0.3138  0.6989
   8723SM  H17F11716   5.748   3.066   5.435 -0.0435  0.0932  0.6802
   8723SM  H17G11717   5.641   2.929   5.383 -2.6105  0.5499  0.5167
   8723SM  C18F11718   5.616   2.995   5.594 -0.2105 -0.1914  0.0139
   8723SM  H18F11719   5.536   2.919   5.601 -0.0160 -0.2404  2.2127
   8723SM  H18G11720   5.570   3.086   5.638  1.0084  0.5744 -0.2237
   8723SM  C19F11721   5.744   2.945   5.674  0.7435  0.5076  0.2126
   8723SM  H19F11722   5.825   3.019   5.659  1.8657 -0.9471 -1.2564
   8723SM  H19G11723   5.772   2.851   5.622 -0.9271 -0.9257  1.7520
   8723SM  C20F11724   5.717   2.931   5.816 -0.1437 -0.4973  0.1187
   8723SM  H20F11725   5.682   3.027   5.860 -1.3907 -1.4882  1.3867
   8723SM  H20G11726   5.817   2.917   5.863 -0.4987  0.0675  1.0680
   8723SM  C21F11727   5.635   2.812   5.848 -0.2904  0.2024 -0.0427
   8723SM  H21F11728   5.678   2.724   5.796 -0.6963 -1.0228  1.6002
   8723SM  H21G11729   5.532   2.814   5.808  0.0445 -1.8397 -1.1316
   8723SM  C22F11730   5.627   2.788   6.004  0.5726  0.6461  0.1057
   8723SM  H22F11731   5.588   2.685   6.019  1.0247  0.5686  0.7822
   8723SM  H22G11732   5.567   2.868   6.052 -0.7693 -0.6760  0.7380
   8723SM  C23F11733   5.768   2.784   6.071  0.0134 -0.0012  0.6388
   8723SM  H23F11734   5.760   2.731   6.169 -1.9631  1.0957  1.1146
   8723SM  H23G11735   5.789   2.892   6.091 -1.1151  0.5459 -1.0148
   8723SM  H23H11736   5.853   2.748   6.009 -1.4830  0.5899 -1.8853
   8823SM     N11737   1.792   1.623   2.907 -0.1333 -0.2746 -0.1690
   8823SM   C1511738   1.850   1.549   2.800 -0.0407  0.8164  0.3183
   8823SM  H15A11739   1.824   1.589   2.703 -1.2149 -0.6698 -0.0001
   8823SM  H15B11740   1.816   1.447   2.794  1.7299  0.2281 -0.2867
   8823SM  H15C11741   1.958   1.539   2.793 -0.3323 -2.1318 -1.1384
   8823SM   C1411742   1.648   1.586   2.922  0.1189 -0.2459 -0.2796
   8823SM  H14A11743   1.631   1.480   2.934 -0.8841 -0.1515 -0.7559
   8823SM  H14B11744   1.590   1.603   2.832 -2.1808  2.0050  1.4874
   8823SM  H14C11745   1.602   1.637   3.006  2.5095  0.5286  0.6337
   8823SM   C1311746   1.861   1.586   3.035 -0.0841 -0.5909 -0.2794
   8823SM  H13A11747   1.815   1.621   3.126  2.9081 -0.7521  1.4260
   8823SM  H13B11748   1.964   1.618   3.034 -0.0397 -0.7153  0.3977
   8823SM  H13C11749   1.866   1.479   3.053 -1.3972 -0.7597 -0.7902
   8823SM   C1211750   1.804   1.773   2.878 -0.0190 -0.2711  0.4571
   8823SM  H12A11751   1.751   1.786   2.785  0.8093  0.0491  0.0219
   8823SM  H12B11752   1.908   1.800   2.868 -0.6291  2.7825  1.2639
   8823SM   C1111753   1.745   1.871   2.981 -0.4204  0.4496  0.2262
   8823SM  H11A11754   1.780   1.972   2.951 -1.4319 -0.2651 -4.1499
   8823SM  H11B11755   1.787   1.849   3.081  0.7925  1.9026  0.0729
   8823SM     P11756   1.505   1.911   2.883 -0.2904  0.0312  0.2201
   8823SM   O1311757   1.576   1.917   2.752  0.7824  0.3005 -0.2396
   8823SM   O1411758   1.388   1.825   2.881 -0.2868 -0.7663  0.1133
   8823SM   O1111759   1.457   2.053   2.926 -0.2005 -0.4516  0.4734
   8823SM   O1211760   1.601   1.865   2.993 -0.3690 -0.5476 -0.1969
   8823SM   C1S11761   1.373   2.077   3.048 -0.0717 -0.2984  0.3533
   8823SM   H1S11762   1.306   1.991   3.062 -0.3106 -0.1737 -0.0037
   8823SM   H1T11763   1.305   2.163   3.029 -0.1592 -0.5260 -0.4093
   8823SM    NF11764   1.401   2.086   3.306 -0.1464  0.0604  0.9545
   8823SM   HNF11765   1.408   2.159   3.374 -0.0387  1.2301 -0.2778
   8823SM   C2S11766   1.465   2.106   3.174  0.1716 -0.7111  0.0010
   8823SM   H2S11767   1.543   2.027   3.162  1.1362  0.4025 -1.4358
   8823SM   C3S11768   1.531   2.247   3.151  0.2026 -0.3384  0.1349
   8823SM   H3S11769   1.454   2.324   3.173 -1.5893 -2.1337  0.3841
   8823SM    O311770   1.574   2.283   3.020 -0.0979  0.0762  0.4031
   8823SM   HO311771   1.537   2.213   2.966  2.4259 -1.1731  0.1519
   8823SM   C4S11772   1.639   2.270   3.255  0.5731 -0.5986 -0.4118
   8823SM   H4S11773   1.602   2.311   3.350 -0.0164  0.6532 -1.1528
   8823SM   C5S11774   1.769   2.237   3.236 -0.4757  1.0338 -0.8651
   8823SM   H5S11775   1.795   2.181   3.145 -1.6243 -1.1869  0.1033
   8823SM   C6S11776   1.885   2.269   3.329  0.2127  0.7177 -0.9367
   8823SM   H6S11777   1.941   2.361   3.301  2.6820 -0.5269 -0.3297
   8823SM   H6T11778   1.945   2.176   3.326  0.6731  1.0161 -1.0573
   8823SM   C7S11779   1.828   2.284   3.476 -0.2675 -0.2412 -0.5620
   8823SM   H7S11780   1.764   2.197   3.502 -2.2081  0.8817 -1.4138
   8823SM   H7T11781   1.762   2.373   3.479 -0.0540 -0.0569 -1.1888
   8823SM   C8S11782   1.938   2.303   3.583  0.3316 -0.5273 -0.3387
   8823SM   H8S11783   1.999   2.394   3.566 -1.7335  1.0501  0.3860
   8823SM   H8T11784   2.010   2.218   3.587  1.8530  0.5581 -2.4837
   8823SM   C9S11785   1.896   2.314   3.727  0.0051 -0.1879 -0.2476
   8823SM   H9S11786   1.839   2.228   3.767  1.4236 -0.4025  1.4439
   8823SM   H9T11787   1.839   2.410   3.736  1.3156  0.6925 -1.0119
   8823SM  C10S11788   2.012   2.328   3.829 -0.1562  0.3133 -0.2269
   8823SM  H10S11789   2.075   2.413   3.797 -1.8877  1.3704 -0.9688
   8823SM  H10T11790   2.070   2.236   3.806  0.9288  1.5873 -3.0451
   8823SM  C11S11791   1.981   2.349   3.977 -0.3114 -0.6428  0.6341
   8823SM  H11S11792   1.913   2.272   4.017 -1.4413  0.5519  1.0942
   8823SM  H11T11793   1.931   2.448   3.991 -1.5812 -1.6055  3.6275
   8823SM  C12S11794   2.111   2.345   4.060  0.0290  0.3535 -0.0026
   8823SM  H12S11795   2.073   2.374   4.160  1.7110 -3.4497  1.9577
   8823SM  H12T11796   2.197   2.410   4.032  0.5330  0.0995  0.9031
   8823SM  C13S11797   2.165   2.202   4.083  0.4767  0.2826 -0.4625
   8823SM  H13S11798   2.192   2.151   3.988  2.9708  0.9031 -0.1414
   8823SM  H13T11799   2.092   2.139   4.139  1.0254 -0.6282 -0.7523
   8823SM  C14S11800   2.291   2.213   4.166  0.6197 -0.9376  0.1590
   8823SM  H14S11801   2.277   2.274   4.257 -0.6075 -0.0836 -0.5705
   8823SM  H14T11802   2.371   2.264   4.107 -1.0502  0.9771 -0.5567
   8823SM  C15S11803   2.340   2.072   4.210 -0.8357 -0.5807 -0.6386
   8823SM  H15S11804   2.444   2.083   4.248 -1.4004 -1.5539  1.2970
   8823SM  H15T11805   2.350   2.006   4.121  0.6008 -1.8548  0.3942
   8823SM  C16S11806   2.264   2.008   4.329  0.2895  0.1260 -0.3597
   8823SM  H16S11807   2.156   1.999   4.308  0.0717 -0.6291  1.0045
   8823SM  H16T11808   2.263   2.084   4.410  0.6640  0.8990 -1.0576
   8823SM  C17S11809   2.331   1.875   4.369 -0.3925 -0.1226 -1.0184
   8823SM  H17S11810   2.442   1.874   4.373 -0.4210 -1.1789  0.1147
   8823SM  H17T11811   2.308   1.799   4.292 -1.5238  0.6862 -1.5221
   8823SM  C18S11812   2.287   1.819   4.517 -0.0715  0.0483  0.3255
   8823SM  H18S11813   2.321   1.715   4.530 -1.1258 -0.9955 -3.7411
   8823SM  H18T11814   2.176   1.824   4.522  0.0073  1.3207  1.3994
   8823SM  H18U11815   2.321   1.882   4.601 -0.5009 -0.8676  1.2017
   8823SM   C1F11816   1.352   1.968   3.343  0.0244 -0.3639 -0.6162
   8823SM    OF11817   1.366   1.870   3.272  0.5771  0.3977 -0.1272
   8823SM   C2F11818   1.277   1.966   3.472  0.5893  0.1085 -0.3231
   8823SM   H2F11819   1.214   2.056   3.491  2.5645  1.3873  0.4302
   8823SM   H2G11820   1.353   1.958   3.553  0.3193  0.1712 -0.0607
   8823SM   C3F11821   1.174   1.849   3.493 -0.4529  1.0165  0.1824
   8823SM   H3F11822   1.233   1.756   3.484 -0.2425  1.2162 -0.5594
   8823SM   H3G11823   1.103   1.860   3.408 -2.3832  4.6906  2.0138
   8823SM   C4F11824   1.087   1.859   3.624  0.1821  0.1686  0.1799
   8823SM   H4F11825   1.010   1.779   3.623 -0.2630  0.5981 -0.9247
   8823SM   H4G11826   1.043   1.960   3.616  1.4319  0.7024 -0.1097
   8823SM   C5F11827   1.172   1.841   3.744 -0.3344 -0.2371 -0.6985
   8823SM   H5F11828   1.234   1.929   3.772 -1.0289 -0.4769  1.9134
   8823SM   H5G11829   1.244   1.757   3.735  0.4834  0.3562  0.1093
   8823SM   C6F11830   1.085   1.798   3.862 -0.0433 -0.2989  0.3578
   8823SM   H6F11831   1.031   1.702   3.847 -1.0974  0.1143  1.3676
   8823SM   H6G11832   1.009   1.877   3.876  0.8485  0.8017 -0.7974
   8823SM   C7F11833   1.163   1.785   3.996  0.2501 -0.0445  0.3594
   8823SM   H7F11834   1.236   1.869   4.000  2.0241 -1.2970 -2.4092
   8823SM   H7G11835   1.213   1.686   3.996 -0.0536 -0.1994  0.1428
   8823SM   C8F11836   1.079   1.789   4.122  0.9487 -0.2506 -0.0934
   8823SM   H8F11837   1.011   1.701   4.125 -1.2364  1.3922  0.7739
   8823SM   H8G11838   1.004   1.870   4.126  0.8389 -0.3905  1.4178
   8823SM   C9F11839   1.172   1.790   4.243 -0.0593  0.0368 -0.0365
   8823SM   H9F11840   1.242   1.877   4.242  0.5161 -0.4249 -0.5250
   8823SM   H9G11841   1.238   1.701   4.242 -2.2609 -1.7145  1.4571
   8823SM  C10F11842   1.101   1.791   4.381  0.0896  0.0145 -0.1838
   8823SM  H10F11843   1.017   1.863   4.386  1.7363  1.9451  1.5571
   8823SM  H10G11844   1.173   1.811   4.463 -0.8783 -2.2302  1.3362
   8823SM  C11F11845   1.049   1.650   4.418 -0.7044 -0.2687 -0.4935
   8823SM  H11F11846   1.124   1.579   4.377 -0.2483 -0.7144  1.0236
   8823SM  H11G11847   0.945   1.632   4.383 -0.4010 -2.6240 -0.3695
   8823SM  C12F11848   1.038   1.620   4.567  0.3925  0.3846  0.7212
   8823SM  H12F11849   0.974   1.683   4.632  0.7857 -0.0055  1.5083
   8823SM  H12G11850   1.143   1.628   4.604 -0.2215  1.2176  2.3594
   8823SM  C13F11851   0.995   1.469   4.583  0.2131 -0.1938 -0.4046
   8823SM  H13F11852   1.050   1.425   4.668 -1.9760 -3.5446 -0.5300
   8823SM  H13G11853   1.039   1.418   4.495  1.0842 -1.5397  0.7824
   8823SM  C14F11854   0.843   1.457   4.613 -0.0993 -0.1143  0.7223
   8823SM  H14F11855   0.821   1.350   4.635 -0.1014  0.1304  1.9409
   8823SM  H14G11856   0.780   1.486   4.526 -0.3774  0.1722  1.0211
   8823SM  C15F11857   0.789   1.529   4.740 -1.3923 -0.6948  0.2174
   8823SM  H15F11858   0.755   1.630   4.708  1.3836  0.6865  1.3010
   8823SM  H15G11859   0.870   1.547   4.814  0.6955 -0.2075 -2.0446
   8823SM  C16F11860   0.672   1.456   4.801  0.0806 -0.0282 -0.4144
   8823SM  H16F11861   0.602   1.419   4.723 -1.0648 -2.0235  1.4674
   8823SM  H16G11862   0.607   1.523   4.861  0.6861 -0.0178  0.2417
   8823SM  C17F11863   0.709   1.352   4.905 -0.4496 -0.4097 -0.4334
   8823SM  H17F11864   0.775   1.397   4.982 -0.5679  0.5075 -0.8551
   8823SM  H17G11865   0.754   1.260   4.861  0.1035  0.6577 -2.2091
   8823SM  C18F11866   0.594   1.306   4.993  0.4535 -0.4541  0.2819
   8823SM  H18F11867   0.509   1.267   4.931  1.3343 -0.2194 -1.1207
   8823SM  H18G11868   0.546   1.397   5.035  0.4909  1.4501 -3.3554
   8823SM  C19F11869   0.643   1.212   5.099 -0.0145  0.7623  0.0028
   8823SM  H19F11870   0.723   1.256   5.162 -0.2449  0.7173  0.3330
   8823SM  H19G11871   0.667   1.115   5.050 -0.7053  0.8821 -0.5902
   8823SM  C20F11872   0.530   1.172   5.195 -0.1653 -0.4303 -0.6007
   8823SM  H20F11873   0.477   1.088   5.144 -0.5316 -0.5186 -0.0792
   8823SM  H20G11874   0.465   1.260   5.211  0.6851  0.1657 -0.3736
   8823SM  C21F11875   0.591   1.127   5.328  0.0721  0.3457  0.4723
   8823SM  H21F11876   0.658   1.206   5.367  0.2423  0.2788  0.3199
   8823SM  H21G11877   0.656   1.037   5.318  0.9863  0.7005  2.6471
   8823SM  C22F11878   0.490   1.114   5.440  0.0574 -0.4142  0.9157
   8823SM  H22F11879   0.413   1.034   5.429  0.3599 -0.5905 -0.0842
   8823SM  H22G11880   0.436   1.211   5.445 -1.2544 -0.9141 -1.7263
   8823SM  C23F11881   0.551   1.088   5.572  0.0959  0.7150 -0.0196
   8823SM  H23F11882   0.595   0.986   5.576  0.5209  0.8956 -0.0897
   8823SM  H23G11883   0.474   1.091   5.652 -0.0304 -0.3657 -0.0793
   8823SM  H23H11884   0.629   1.161   5.600  0.4210  1.4085 -2.5506
   8923SM     N11885   6.571   2.820   2.710  0.2874 -0.3899 -0.0448
   8923SM   C1511886   6.588   2.917   2.593  0.1290  0.1264 -0.6297
   8923SM  H15A11887   6.592   3.017   2.633  0.9114 -0.6045  1.2523
   8923SM  H15B11888   6.496   2.910   2.537 -0.0906 -1.0751 -0.1602
   8923SM  H15C11889   6.672   2.901   2.528  0.2947  1.8082 -0.8818
   8923SM   C1411890   6.679   2.836   2.800  0.1250  0.6719 -0.0216
   8923SM  H14A11891   6.771   2.829   2.743 -0.7479 -1.4595 -1.2761
   8923SM  H14B11892   6.672   2.751   2.865  0.7442 -0.0878 -0.9069
   8923SM  H14C11893   6.668   2.928   2.855  0.4925  1.0377 -0.5441
   8923SM   C1311894   6.439   2.861   2.776  0.2018 -0.1268  0.1131
   8923SM  H13A11895   6.447   2.964   2.806  2.4956  0.7329 -2.9671
   8923SM  H13B11896   6.424   2.808   2.868 -0.1981  1.2037  0.8407
   8923SM  H13C11897   6.357   2.850   2.706  0.6461 -1.3010 -0.2523
   8923SM   C1211898   6.563   2.674   2.665  0.0319 -0.1482 -0.1489
   8923SM  H12A11899   6.663   2.639   2.644  0.2973 -1.6489  2.9410
   8923SM  H12B11900   6.496   2.659   2.582  0.3168 -1.5690 -0.1426
   8923SM   C1111901   6.516   2.574   2.780  0.0690 -0.2455  0.5450
   8923SM  H11A11902   6.491   2.475   2.737  0.4218 -0.4753  0.8667
   8923SM  H11B11903   6.415   2.594   2.820  0.5014  0.6025  1.2387
   8923SM     P11904   6.749   2.496   2.862  0.2035 -0.1999 -0.0334
   8923SM   O1311905   6.736   2.351   2.864 -0.3137  0.5506 -0.5037
   8923SM   O1411906   6.816   2.547   2.742  0.0878  0.0392  0.4266
   8923SM   O1111907   6.844   2.542   2.981  0.5112  0.3339 -0.1798
   8923SM   O1211908   6.603   2.565   2.890  0.4825 -0.7016 -0.2087
   8923SM   C1S11909   6.772   2.573   3.107  0.5533  0.6077  0.9397
   8923SM   H1S11910   6.678   2.516   3.124  0.5287 -1.1834 -3.7200
   8923SM   H1T11911   6.743   2.681   3.103  0.1017  0.4590 -1.6710
   8923SM    NF11912   6.791   2.593   3.350  0.1378 -0.6182 -0.1238
   8923SM   HNF11913   6.808   2.681   3.393 -0.7890 -1.2438  1.6519
   8923SM   C2S11914   6.863   2.560   3.231 -0.2060  0.4529  0.1019
   8923SM   H2S11915   6.881   2.451   3.239 -0.4990  0.3268 -0.8198
   8923SM   C3S11916   7.001   2.621   3.212  0.3662  0.3163 -0.1038
   8923SM   H3S11917   6.987   2.725   3.175 -2.0992 -0.3069 -1.0788
   8923SM    O311918   7.085   2.553   3.114 -0.0626  0.3312 -0.3301
   8923SM   HO311919   7.020   2.497   3.070  1.7913 -0.9623 -1.5753
   8923SM   C4S11920   7.074   2.616   3.346  0.8766  0.3261  0.1901
   8923SM   H4S11921   7.058   2.523   3.403  1.8642 -0.2130 -0.3785
   8923SM   C5S11922   7.156   2.711   3.398  0.4670 -0.6265 -0.2161
   8923SM   H5S11923   7.175   2.813   3.362  2.4841  0.0874  2.5303
   8923SM   C6S11924   7.227   2.701   3.531 -0.2812 -0.0902  0.1860
   8923SM   H6S11925   7.335   2.729   3.523 -0.6388  1.4132  0.3592
   8923SM   H6T11926   7.225   2.594   3.563  2.0068 -0.0703  0.5702
   8923SM   C7S11927   7.161   2.772   3.654  0.1958  0.0339 -1.1898
   8923SM   H7S11928   7.059   2.733   3.673  0.9706 -2.6430 -2.0630
   8923SM   H7T11929   7.154   2.881   3.633  2.1422  0.8759  1.8640
   8923SM   C8S11930   7.244   2.747   3.778  0.3295  0.5149 -0.0474
   8923SM   H8S11931   7.334   2.810   3.791  0.5601  0.0334  0.7506
   8923SM   H8T11932   7.266   2.639   3.765  1.4180  0.4055  2.2667
   8923SM   C9S11933   7.161   2.775   3.905  0.4371 -0.1121  0.4605
   8923SM   H9S11934   7.124   2.879   3.895 -0.2042 -0.3289  0.5046
   8923SM   H9T11935   7.237   2.767   3.986  0.8473 -1.4943 -0.0335
   8923SM  C10S11936   7.057   2.664   3.924 -0.4177  0.2551  0.7221
   8923SM  H10S11937   7.108   2.568   3.900  1.5460  1.4745 -0.2148
   8923SM  H10T11938   6.974   2.678   3.852 -0.3931  0.2088  0.6847
   8923SM  C11S11939   6.996   2.672   4.064  0.4669 -0.0320 -0.0389
   8923SM  H11S11940   6.958   2.776   4.076  0.7516  0.0604  0.0506
   8923SM  H11T11941   7.075   2.683   4.141 -0.6131  3.2015  0.7353
   8923SM  C12S11942   6.888   2.563   4.090 -0.2014  0.2437  0.3936
   8923SM  H12S11943   6.945   2.470   4.110 -0.5512  0.6789  4.2056
   8923SM  H12T11944   6.815   2.555   4.006  0.1006 -2.0046  0.2914
   8923SM  C13S11945   6.810   2.594   4.221 -0.4111 -0.2648  0.2401
   8923SM  H13S11946   6.885   2.617   4.300 -0.3954  1.4899 -0.2456
   8923SM  H13T11947   6.766   2.496   4.249 -0.7079 -0.5698 -1.1748
   8923SM  C14S11948   6.698   2.701   4.202  0.4858 -0.3094 -0.0592
   8923SM  H14S11949   6.637   2.673   4.113  1.6117 -1.2075 -0.5814
   8923SM  H14T11950   6.748   2.797   4.175 -0.1104 -0.1252 -0.5404
   8923SM  C15S11951   6.614   2.714   4.329  0.0308  0.2588 -0.1145
   8923SM  H15S11952   6.562   2.812   4.334 -1.7338 -0.5857 -1.1337
   8923SM  H15T11953   6.683   2.701   4.415  0.4967  0.1768 -0.4952
   8923SM  C16S11954   6.509   2.608   4.363  0.0305 -1.0855 -0.1643
   8923SM  H16S11955   6.552   2.507   4.344  0.1122 -1.0228 -0.3110
   8923SM  H16T11956   6.423   2.625   4.296  0.7304 -0.6073 -0.9683
   8923SM  C17S11957   6.466   2.612   4.512 -0.2734 -0.1999  0.5311
   8923SM  H17S11958   6.551   2.609   4.583 -1.0658  2.3044  1.6886
   8923SM  H17T11959   6.408   2.521   4.538  2.0376 -1.4221  1.7053
   8923SM  C18S11960   6.378   2.730   4.560 -0.1523 -0.0061 -0.8839
   8923SM  H18S11961   6.272   2.703   4.541 -1.0800  1.2443  1.9904
   8923SM  H18T11962   6.412   2.820   4.505  0.4140 -0.3643 -1.1300
   8923SM  H18U11963   6.392   2.750   4.668 -1.5185  0.1433 -0.7161
   8923SM   C1F11964   6.703   2.508   3.410 -0.3864 -0.9607 -0.0986
   8923SM    OF11965   6.643   2.424   3.348 -0.0342  0.0926  0.4833
   8923SM   C2F11966   6.692   2.537   3.557 -0.3827 -0.3604 -0.1595
   8923SM   H2F11967   6.791   2.579   3.586 -0.0546  1.3515 -3.3075
   8923SM   H2G11968   6.684   2.436   3.604  0.0532 -1.0885 -1.6002
   8923SM   C3F11969   6.563   2.615   3.597 -0.5579 -0.1812  0.9219
   8923SM   H3F11970   6.470   2.569   3.556 -1.1640  0.1938  1.8357
   8923SM   H3G11971   6.555   2.718   3.557 -1.1578 -0.6527 -0.2266
   8923SM   C4F11972   6.537   2.620   3.742 -0.3533 -0.5606  0.0891
   8923SM   H4F11973   6.463   2.702   3.760  0.8128  1.0938 -2.1918
   8923SM   H4G11974   6.637   2.639   3.787  1.4736 -3.9277 -2.1667
   8923SM   C5F11975   6.476   2.492   3.794  0.2979  0.2760  0.4706
   8923SM   H5F11976   6.539   2.403   3.770  0.6130  0.7996 -0.7240
   8923SM   H5G11977   6.376   2.483   3.747  1.3524  0.2615 -1.9713
   8923SM   C6F11978   6.457   2.473   3.952  0.2442  0.2785  0.4623
   8923SM   H6F11979   6.392   2.553   3.994  0.9641  0.3496  1.4646
   8923SM   H6G11980   6.553   2.488   4.004  0.7828 -1.2314 -0.0313
   8923SM   C7F11981   6.398   2.334   3.981  0.1442 -0.1621  0.0147
   8923SM   H7F11982   6.472   2.254   3.958  1.4333  0.9916  0.0127
   8923SM   H7G11983   6.312   2.313   3.914  0.9974  1.5032 -1.6878
   8923SM   C8F11984   6.366   2.333   4.133  0.3796  0.5377 -0.2932
   8923SM   H8F11985   6.297   2.418   4.151 -0.0018 -0.0954  1.5065
   8923SM   H8G11986   6.456   2.350   4.195 -0.7087  0.4331  1.3794
   8923SM   C9F11987   6.290   2.211   4.188 -0.3860  0.7176  0.8399
   8923SM   H9F11988   6.349   2.119   4.167  3.0466  2.5241  1.9389
   8923SM   H9G11989   6.200   2.207   4.123  0.8193  1.4497 -0.9390
   8923SM  C10F11990   6.240   2.233   4.334  0.1140 -0.5961  0.2440
   8923SM  H10F11991   6.178   2.325   4.337 -0.2575 -0.8697  2.1510
   8923SM  H10G11992   6.330   2.248   4.398 -1.3553 -0.4156  2.3917
   8923SM  C11F11993   6.182   2.109   4.395 -0.2886  0.4044  0.2947
   8923SM  H11F11994   6.258   2.030   4.409 -1.7865 -0.9540  1.0532
   8923SM  H11G11995   6.129   2.064   4.308  0.3968 -1.2396  0.6899
   8923SM  C12F11996   6.100   2.146   4.522  0.2593  0.1436  0.2389
   8923SM  H12F11997   6.018   2.072   4.530 -0.5978  0.8451 -1.5521
   8923SM  H12G11998   6.040   2.236   4.501 -0.3964 -1.0396 -3.7847
   8923SM  C13F11999   6.180   2.161   4.650  0.1447 -0.5232 -1.0807
   8923SM  H13F12000   6.286   2.176   4.618  0.3205  2.4460  0.5030
   8923SM  H13G12001   6.158   2.080   4.723 -1.1973  1.6170  1.0377
   8923SM  C14F12002   6.142   2.299   4.725  0.3092  0.8093 -0.1869
   8923SM  H14F12003   6.031   2.291   4.728  0.2762 -0.3838 -2.3847
   8923SM  H14G12004   6.166   2.383   4.656  2.1219 -1.1535 -2.1213
   8923SM  C15F12005   6.213   2.308   4.854 -0.3600 -0.4497 -0.0440
   8923SM  H15F12006   6.321   2.326   4.841  0.0939 -1.0327  2.3277
   8923SM  H15G12007   6.194   2.218   4.916 -0.9610 -1.1581 -1.2403
   8923SM  C16F12008   6.150   2.433   4.924  0.1257  0.7743  0.1187
   8923SM  H16F12009   6.040   2.420   4.937  0.4527 -1.2001  1.3581
   8923SM  H16G12010   6.160   2.516   4.851  1.8673 -1.0722 -1.9083
   8923SM  C17F12011   6.226   2.472   5.047 -0.9454 -0.4537 -0.5763
   8923SM  H17F12012   6.325   2.422   5.060 -0.1721  1.1042 -0.3153
   8923SM  H17G12013   6.169   2.444   5.137  0.8636 -0.1586  0.7187
   8923SM  C18F12014   6.248   2.626   5.066  0.5520  0.0882  0.0226
   8923SM  H18F12015   6.151   2.681   5.060 -0.6183 -1.8537  0.2068
   8923SM  H18G12016   6.318   2.650   4.983  0.5712 -1.3339 -0.4096
   8923SM  C19F12017   6.319   2.668   5.196  0.0219  0.9078  0.3024
   8923SM  H19F12018   6.274   2.614   5.282  2.1550 -2.1819 -0.3460
   8923SM  H19G12019   6.308   2.778   5.204  2.5542  1.2644 -0.2839
   8923SM  C20F12020   6.473   2.641   5.202 -0.0304 -0.4124  0.3898
   8923SM  H20F12021   6.498   2.544   5.154 -0.0429 -0.4423  0.4436
   8923SM  H20G12022   6.510   2.634   5.307  0.4659 -2.7465  0.1181
   8923SM  C21F12023   6.572   2.742   5.134  0.4226 -0.3194 -0.0431
   8923SM  H21F12024   6.547   2.739   5.026 -1.7308  0.0068  0.4040
   8923SM  H21G12025   6.674   2.710   5.165  0.6004  0.8650  0.6747
   8923SM  C22F12026   6.554   2.893   5.174  0.0743 -0.1047  0.5506
   8923SM  H22F12027   6.448   2.925   5.163  0.3729  0.4542 -0.9037
   8923SM  H22G12028   6.606   2.956   5.098 -2.1248 -1.1477 -1.9805
   8923SM  C23F12029   6.612   2.923   5.317 -0.3894 -0.2142 -1.0773
   8923SM  H23F12030   6.703   2.867   5.348 -0.0779  0.6357 -0.4096
   8923SM  H23G12031   6.532   2.904   5.392  0.6242  3.3292  1.1548
   8923SM  H23H12032   6.639   3.031   5.317  1.3042 -0.5984 -2.2749
   9023SM     N12033   6.309   1.821   2.949 -0.0537  0.1878 -0.7123
   9023SM   C1512034   6.168   1.875   2.945  0.1256 -0.2313 -0.2405
   9023SM  H15A12035   6.156   1.963   2.884  1.4772 -0.9584 -1.6388
   9023SM  H15B12036   6.129   1.900   3.043  2.3824  0.4423  0.5316
   9023SM  H15C12037   6.097   1.800   2.912  0.1518 -0.3604 -0.0078
   9023SM   C1412038   6.304   1.700   3.045 -0.3304 -0.5640 -0.3305
   9023SM  H14A12039   6.404   1.665   3.062 -0.6277 -1.2515  0.0481
   9023SM  H14B12040   6.243   1.615   3.016  1.3195 -2.8000  2.3555
   9023SM  H14C12041   6.255   1.740   3.132 -0.9814  2.8202 -2.0847
   9023SM   C1312042   6.350   1.799   2.808  0.3669 -0.1378  0.6865
   9023SM  H13A12043   6.453   1.776   2.785 -0.1897 -0.4898 -1.7054
   9023SM  H13B12044   6.333   1.891   2.753  0.2069  0.6186  1.9654
   9023SM  H13C12045   6.290   1.723   2.759  1.4037  0.8153 -2.2841
   9023SM   C1212046   6.394   1.938   3.005 -0.6287  0.1057 -1.1443
   9023SM  H12A12047   6.391   2.022   2.937 -2.5118 -0.1211 -1.4006
   9023SM  H12B12048   6.495   1.900   3.002 -0.7915 -0.2591 -1.9808
   9023SM   C1112049   6.360   1.992   3.137 -0.5028  0.0904 -0.0392
   9023SM  H11A12050   6.251   2.014   3.135 -0.4872  0.1253 -0.7985
   9023SM  H11B12051   6.415   2.086   3.161  0.5421 -0.7517  0.9714
   9023SM     P12052   6.303   1.844   3.350 -0.2432 -0.1444 -0.4318
   9023SM   O1312053   6.164   1.829   3.299  0.4953  0.3103 -0.1104
   9023SM   O1412054   6.363   1.721   3.401  0.2604  0.2024 -0.0864
   9023SM   O1112055   6.312   1.964   3.453 -0.5165 -0.1720 -0.3089
   9023SM   O1212056   6.395   1.891   3.233  0.5449  0.9202 -0.1079
   9023SM   C1S12057   6.332   1.941   3.591  0.1905 -0.2849  0.2329
   9023SM   H1S12058   6.440   1.966   3.602  0.5967 -1.2444 -1.1896
   9023SM   H1T12059   6.313   1.835   3.620 -1.1737  0.5289  2.4770
   9023SM    NF12060   6.270   1.971   3.830  0.0693 -0.8394 -0.6118
   9023SM   HNF12061   6.187   1.932   3.869 -0.4211  2.2537  1.8598
   9023SM   C2S12062   6.260   2.032   3.695 -0.5650 -0.0957 -0.3942
   9023SM   H2S12063   6.318   2.127   3.701  0.9908 -1.0740  0.8337
   9023SM   C3S12064   6.110   2.073   3.656  0.1785  0.5777  0.2144
   9023SM   H3S12065   6.052   1.978   3.658  0.1762  0.5679 -0.1562
   9023SM    O312066   6.096   2.121   3.524  0.2308  0.0874 -0.5430
   9023SM   HO312067   6.183   2.096   3.493  0.6813 -0.9967  1.4398
   9023SM   C4S12068   6.057   2.169   3.754  0.2534 -0.5524  0.6997
   9023SM   H4S12069   5.985   2.126   3.826  0.1380 -1.1345  0.2381
   9023SM   C5S12070   6.080   2.305   3.761  0.1385 -0.1525  0.9439
   9023SM   H5S12071   6.134   2.358   3.681 -1.7395 -1.9071 -1.6678
   9023SM   C6S12072   6.019   2.394   3.853 -0.1969 -0.1631  0.2369
   9023SM   H6S12073   5.964   2.481   3.811 -2.1255  0.3220  3.4015
   9023SM   H6T12074   6.107   2.437   3.904 -0.4567  0.3155  0.2977
   9023SM   C7S12075   5.920   2.336   3.951 -0.0518  0.4586  0.2961
   9023SM   H7S12076   5.955   2.256   4.019 -3.1013 -3.4527 -2.2540
   9023SM   H7T12077   5.826   2.296   3.907 -0.4781  1.2322  0.4934
   9023SM   C8S12078   5.864   2.441   4.043 -0.1408 -0.4497  0.5138
   9023SM   H8S12079   5.762   2.420   4.082 -0.4741 -1.0831 -0.6285
   9023SM   H8T12080   5.860   2.526   3.972  0.3273 -0.8566 -0.0174
   9023SM   C9S12081   5.953   2.467   4.166  0.6843 -0.5658  1.0958
   9023SM   H9S12082   6.048   2.523   4.150  0.5820 -0.5953  0.3218
   9023SM   H9T12083   6.003   2.374   4.200  0.4958 -0.6008  1.2801
   9023SM  C10S12084   5.875   2.551   4.269 -0.2371 -0.2598  0.2551
   9023SM  H10S12085   5.781   2.501   4.297  0.7191 -3.3315 -1.4798
   9023SM  H10T12086   5.844   2.649   4.225  0.9436  1.0147  2.0798
   9023SM  C11S12087   5.959   2.584   4.394 -0.0451  1.2912 -0.1274
   9023SM  H11S12088   6.054   2.636   4.365 -0.7544  1.6200 -2.0370
   9023SM  H11T12089   5.973   2.481   4.433 -1.5634  0.4214 -1.7342
   9023SM  C12S12090   5.883   2.668   4.502  0.2724  0.4569  0.2037
   9023SM  H12S12091   5.802   2.611   4.552  0.4599 -2.2276 -2.2721
   9023SM  H12T12092   5.833   2.758   4.459 -0.1612  0.5075  0.8051
   9023SM  C13S12093   5.979   2.699   4.610  0.0145  0.1767 -0.7481
   9023SM  H13S12094   6.051   2.763   4.554  1.5472 -0.5432  0.3275
   9023SM  H13T12095   6.031   2.607   4.644  0.4950  1.0502  1.0156
   9023SM  C14S12096   5.912   2.770   4.729 -0.0939 -0.0317 -0.4009
   9023SM  H14S12097   5.856   2.857   4.687 -1.3012 -0.4379  0.3077
   9023SM  H14T12098   5.993   2.792   4.801 -0.5211  2.3821 -0.5536
   9023SM  C15S12099   5.812   2.678   4.805  0.4625 -0.3313  0.3390
   9023SM  H15S12100   5.863   2.579   4.804  1.3624  0.0659  1.9598
   9023SM  H15T12101   5.723   2.663   4.741  0.6953 -1.0609  0.1678
   9023SM  C16S12102   5.778   2.715   4.959 -0.5325  0.0125 -0.3197
   9023SM  H16S12103   5.727   2.813   4.956 -1.6898 -0.5447  0.3652
   9023SM  H16T12104   5.882   2.715   4.998  0.3760  1.1457 -2.5540
   9023SM  C17S12105   5.683   2.616   5.032  0.2740  0.2886  0.6919
   9023SM  H17S12106   5.582   2.606   4.987 -0.0262  0.7479  1.2406
   9023SM  H17T12107   5.664   2.656   5.134 -0.1402 -1.5474  1.3902
   9023SM  C18S12108   5.739   2.480   5.031 -0.2117 -0.2553 -0.0459
   9023SM  H18S12109   5.846   2.492   5.058 -0.7507  0.8371  1.7839
   9023SM  H18T12110   5.723   2.428   4.934  1.8558 -0.9282 -0.0880
   9023SM  H18U12111   5.687   2.417   5.105  0.4668 -1.2291 -0.3748
   9023SM   C1F12112   6.387   1.943   3.892 -0.3063  0.8600 -0.0521
   9023SM    OF12113   6.499   1.981   3.853 -0.0224 -0.0340 -0.1071
   9023SM   C2F12114   6.364   1.857   4.020  0.0310 -0.2393  0.1468
   9023SM   H2F12115   6.268   1.885   4.067  0.4044  3.1189 -0.8105
   9023SM   H2G12116   6.439   1.884   4.097 -0.7461  1.3716  0.3766
   9023SM   C3F12117   6.395   1.710   4.005  0.1639 -0.3577  0.2035
   9023SM   H3F12118   6.504   1.691   3.998  0.4355  1.4880 -1.0574
   9023SM   H3G12119   6.352   1.676   3.909  1.0281 -1.1162  0.0763
   9023SM   C4F12120   6.336   1.629   4.120  0.4454  0.1907  0.5837
   9023SM   H4F12121   6.337   1.521   4.095 -0.4013  0.0068  1.3075
   9023SM   H4G12122   6.230   1.658   4.134 -0.0634  0.7531 -3.2981
   9023SM   C5F12123   6.414   1.650   4.254 -0.2252 -0.0353  0.2365
   9023SM   H5F12124   6.424   1.755   4.290  1.3586 -0.5125  1.2671
   9023SM   H5G12125   6.514   1.607   4.232 -1.5536 -3.3551  0.0789
   9023SM   C6F12126   6.371   1.555   4.361  0.0491 -0.1581  0.4298
   9023SM   H6F12127   6.391   1.449   4.332  0.3041 -1.0460  3.4898
   9023SM   H6G12128   6.261   1.559   4.381 -0.0328 -1.4446  0.3713
   9023SM   C7F12129   6.426   1.577   4.502 -0.4508 -0.4649 -0.0205
   9023SM   H7F12130   6.532   1.606   4.484 -1.2033  0.8378 -2.8621
   9023SM   H7G12131   6.420   1.483   4.561  3.4985 -0.4675  0.6830
   9023SM   C8F12132   6.368   1.691   4.577 -0.0008  0.4285 -0.1050
   9023SM   H8F12133   6.288   1.646   4.640  0.8619  0.4123  1.0179
   9023SM   H8G12134   6.333   1.769   4.506  2.1208  1.4209 -0.1319
   9023SM   C9F12135   6.467   1.756   4.677  0.2891  0.2967 -0.1036
   9023SM   H9F12136   6.557   1.802   4.630 -0.3605  2.2599  0.4563
   9023SM   H9G12137   6.506   1.674   4.740  1.4883 -0.0385 -1.2201
   9023SM  C10F12138   6.403   1.845   4.779 -0.2248  0.7158  0.4430
   9023SM  H10F12139   6.309   1.792   4.808 -0.1493 -0.2591 -0.9767
   9023SM  H10G12140   6.377   1.943   4.735  1.7090  1.7392  1.4952
   9023SM  C11F12141   6.494   1.871   4.892  0.1988  0.3534 -0.4588
   9023SM  H11F12142   6.572   1.944   4.862  0.8341 -0.6505 -1.3299
   9023SM  H11G12143   6.545   1.778   4.928 -0.8334 -0.0611 -0.0170
   9023SM  C12F12144   6.415   1.933   5.011  0.0400 -0.1978 -0.4755
   9023SM  H12F12145   6.349   1.852   5.049 -0.4743  0.0321 -0.8680
   9023SM  H12G12146   6.363   2.024   4.976  2.5773  1.1277 -1.0286
   9023SM  C13F12147   6.505   1.963   5.131  0.3584  0.0304 -0.6971
   9023SM  H13F12148   6.566   2.050   5.101 -1.9017  1.8132 -0.4483
   9023SM  H13G12149   6.573   1.877   5.145 -0.7302 -0.6593  0.6386
   9023SM  C14F12150   6.436   2.009   5.257  0.1850  0.3076  0.6421
   9023SM  H14F12151   6.497   1.990   5.348  1.5735  0.1317 -0.3034
   9023SM  H14G12152   6.333   1.968   5.266 -0.5306  1.9091  0.0617
   9023SM  C15F12153   6.423   2.160   5.277  0.2161  0.2127  0.3221
   9023SM  H15F12154   6.410   2.212   5.180 -0.3808 -0.1883  0.1777
   9023SM  H15G12155   6.512   2.204   5.326 -0.6007  1.5056  0.6987
   9023SM  C16F12156   6.290   2.181   5.355 -0.5851  0.4450  0.0503
   9023SM  H16F12157   6.304   2.122   5.448  0.1539  0.7763  0.1578
   9023SM  H16G12158   6.199   2.151   5.299 -0.8764  2.7403 -0.8052
   9023SM  C17F12159   6.271   2.329   5.387  0.3713  0.0662 -0.6235
   9023SM  H17F12160   6.173   2.337   5.437 -0.6087  0.2556 -2.4913
   9023SM  H17G12161   6.270   2.395   5.298 -1.9348  1.4492  0.3558
   9023SM  C18F12162   6.378   2.391   5.477  0.3365 -0.5468  0.4001
   9023SM  H18F12163   6.343   2.487   5.521 -0.0556 -0.8092  0.6748
   9023SM  H18G12164   6.473   2.409   5.422 -0.2101 -1.4062 -0.8899
   9023SM  C19F12165   6.404   2.300   5.591 -0.2052  0.0647  0.0960
   9023SM  H19F12166   6.482   2.347   5.654 -0.8003 -0.4333  1.2300
   9023SM  H19G12167   6.455   2.203   5.574  0.0353  0.1167  0.5081
   9023SM  C20F12168   6.293   2.260   5.686  0.1812 -0.2446  0.4347
   9023SM  H20F12169   6.210   2.220   5.625  1.1589  0.3269 -1.3506
   9023SM  H20G12170   6.261   2.347   5.747  3.2057  0.5972  0.9818
   9023SM  C21F12171   6.329   2.156   5.799 -0.0813  0.0733  0.3948
   9023SM  H21F12172   6.407   2.198   5.865  0.6458  1.3367 -1.1903
   9023SM  H21G12173   6.376   2.066   5.754  0.6946 -1.1186  3.3968
   9023SM  C22F12174   6.209   2.120   5.887 -0.0189  0.1114  0.1925
   9023SM  H22F12175   6.171   2.220   5.917 -0.3117 -0.5003  1.9911
   9023SM  H22G12176   6.231   2.069   5.983 -0.5624  1.5389  1.1031
   9023SM  C23F12177   6.109   2.045   5.808  0.3852  0.3876 -0.0157
   9023SM  H23F12178   6.065   2.107   5.727  0.8723  2.5551  1.2748
   9023SM  H23G12179   6.026   2.020   5.877  0.5790 -0.4990 -0.0944
   9023SM  H23H12180   6.156   1.951   5.772 -1.3563 -0.4699 -0.1568
   9123SM     N12181   7.210   5.333   2.350  0.4691 -0.0146  0.7009
   9123SM   C1512182   7.346   5.307   2.305 -0.0161  0.9737  0.0128
   9123SM  H15A12183   7.404   5.398   2.305  0.9103  0.4014  0.6723
   9123SM  H15B12184   7.362   5.269   2.205  2.4104  0.2930  0.5805
   9123SM  H15C12185   7.399   5.241   2.373  0.3569  1.1792 -0.0729
   9123SM   C1412186   7.215   5.425   2.460 -0.4641  0.2503 -0.6452
   9123SM  H14A12187   7.251   5.524   2.436 -0.2840  0.6303  1.0919
   9123SM  H14B12188   7.277   5.387   2.539 -1.3260 -0.9204 -0.5017
   9123SM  H14C12189   7.121   5.449   2.507 -1.4391  1.1363 -2.8647
   9123SM   C1312190   7.140   5.416   2.242 -0.2318 -0.4698  0.8169
   9123SM  H13A12191   7.198   5.506   2.231  0.6079 -1.0806  0.0430
   9123SM  H13B12192   7.042   5.448   2.273  0.0495  1.7920 -0.4150
   9123SM  H13C12193   7.142   5.372   2.143  1.5275  1.3072 -0.0048
   9123SM   C1212194   7.123   5.212   2.371 -0.0306  0.0257 -0.1237
   9123SM  H12A12195   7.140   5.151   2.283 -0.8379  2.2782 -1.9604
   9123SM  H12B12196   7.019   5.243   2.371 -0.1056  0.1057 -3.0544
   9123SM   C1112197   7.161   5.117   2.487 -0.3713 -0.1081 -0.7887
   9123SM  H11A12198   7.090   5.034   2.508 -1.2347  1.1910  1.7745
   9123SM  H11B12199   7.157   5.177   2.580  1.2943 -0.5099 -0.4208
   9123SM     P12200   7.318   4.951   2.360  0.0612  0.0410 -0.2505
   9123SM   O1312201   7.222   4.963   2.244  0.1821 -0.3637  0.9433
   9123SM   O1412202   7.458   4.960   2.319 -0.1082  0.1467 -0.4433
   9123SM   O1112203   7.297   4.816   2.448  0.4449  0.7351 -0.2549
   9123SM   O1212204   7.295   5.062   2.472 -0.3746  0.2028  0.1118
   9123SM   C1S12205   7.383   4.790   2.561 -0.4937 -0.4087  0.3643
   9123SM   H1S12206   7.475   4.852   2.556 -0.6057 -0.3024 -0.4977
   9123SM   H1T12207   7.410   4.683   2.575  1.3756 -0.0968 -0.5695
   9123SM    NF12208   7.420   4.820   2.798  0.2780 -0.2771 -0.1537
   9123SM   HNF12209   7.410   4.742   2.859  1.4083  0.2871  0.7892
   9123SM   C2S12210   7.317   4.833   2.693  0.0880  0.1052 -0.0894
   9123SM   H2S12211   7.308   4.943   2.683 -0.9386  0.3561  2.8503
   9123SM   C3S12212   7.183   4.746   2.710  0.0814  0.5111  0.0514
   9123SM   H3S12213   7.218   4.641   2.704 -1.0970  0.1182 -0.2346
   9123SM    O312214   7.077   4.769   2.620 -0.0775  0.0186  0.0524
   9123SM   HO312215   7.113   4.828   2.554 -0.1008 -0.1240 -0.0886
   9123SM   C4S12216   7.124   4.760   2.846 -0.4976  0.2619 -0.3862
   9123SM   H4S12217   7.177   4.697   2.919  0.1201  1.1435 -0.0593
   9123SM   C5S12218   7.020   4.833   2.886 -1.4156 -0.3957  0.0586
   9123SM   H5S12219   6.991   4.912   2.814  2.0016  1.0667  0.0792
   9123SM   C6S12220   6.981   4.841   3.034 -0.2540 -0.0897 -1.1034
   9123SM   H6S12221   6.895   4.774   3.054 -1.1432  1.7203  1.6000
   9123SM   H6T12222   6.953   4.947   3.048  0.9524  0.2922 -1.4366
   9123SM   C7S12223   7.093   4.805   3.138 -0.2096  0.9687 -0.4103
   9123SM   H7S12224   7.192   4.845   3.108  0.6556  0.3837  1.5054
   9123SM   H7T12225   7.101   4.694   3.130 -0.1631  1.0595 -1.9043
   9123SM   C8S12226   7.046   4.837   3.281  0.5708 -0.1027 -0.6698
   9123SM   H8S12227   6.946   4.793   3.296  1.1233 -1.3464 -0.5776
   9123SM   H8T12228   7.030   4.947   3.278 -4.2466 -0.6096 -1.1330
   9123SM   C9S12229   7.137   4.794   3.394  0.4205  1.0074 -0.6134
   9123SM   H9S12230   7.238   4.837   3.374  0.8027  0.2401 -0.3717
   9123SM   H9T12231   7.144   4.683   3.394 -1.3603  0.8638  0.4444
   9123SM  C10S12232   7.079   4.832   3.531 -0.4770 -0.1660 -0.1829
   9123SM  H10S12233   6.990   4.773   3.560 -0.0078  0.0338  1.7617
   9123SM  H10T12234   7.052   4.940   3.535  0.9565  0.1793  2.5292
   9123SM  C11S12235   7.183   4.826   3.645 -0.0139  0.4133 -0.4871
   9123SM  H11S12236   7.152   4.897   3.725  0.4947 -0.7632  0.7873
   9123SM  H11T12237   7.277   4.877   3.615 -0.9000  1.5533 -1.4131
   9123SM  C12S12238   7.203   4.684   3.702 -0.3211 -0.4322 -0.2694
   9123SM  H12S12239   7.228   4.622   3.613  1.4299 -0.0348 -0.0782
   9123SM  H12T12240   7.110   4.636   3.741 -0.7281 -0.3995 -1.1693
   9123SM  C13S12241   7.311   4.680   3.818  0.0881 -0.2189 -0.1629
   9123SM  H13S12242   7.396   4.748   3.794 -0.7748  0.5903 -0.9807
   9123SM  H13T12243   7.360   4.581   3.815  1.0457  0.1937  0.7610
   9123SM  C14S12244   7.247   4.714   3.955  0.1382 -0.0745 -0.3290
   9123SM  H14S12245   7.173   4.636   3.980  0.4889 -0.5037 -0.6148
   9123SM  H14T12246   7.200   4.815   3.955  1.6833  0.6883  0.9867
   9123SM  C15S12247   7.352   4.712   4.072 -0.3173 -0.3358  1.1905
   9123SM  H15S12248   7.307   4.781   4.147 -3.3538  0.5209 -1.2254
   9123SM  H15T12249   7.440   4.771   4.037 -0.1613 -1.1112  0.2370
   9123SM  C16S12250   7.392   4.584   4.143 -0.6764  0.1093 -0.3645
   9123SM  H16S12251   7.417   4.505   4.069  0.2904 -0.4816  0.5677
   9123SM  H16T12252   7.297   4.554   4.190  0.3566 -0.9589  1.1232
   9123SM  C17S12253   7.509   4.596   4.247  0.1385 -0.1110  0.0250
   9123SM  H17S12254   7.465   4.637   4.341  1.8104 -0.5805  1.0594
   9123SM  H17T12255   7.573   4.677   4.205  0.3045  0.2641  0.9820
   9123SM  C18S12256   7.603   4.476   4.266  0.4065  0.4598  0.3296
   9123SM  H18S12257   7.648   4.453   4.167 -0.3055 -0.5384  0.2210
   9123SM  H18T12258   7.544   4.385   4.290 -2.1921  1.7523 -0.6470
   9123SM  H18U12259   7.680   4.505   4.340 -1.9782 -0.0416  3.1907
   9123SM   C1F12260   7.541   4.888   2.814 -0.4814 -0.1384 -0.4601
   9123SM    OF12261   7.576   4.973   2.735  0.4400 -0.1007  0.1098
   9123SM   C2F12262   7.629   4.844   2.926 -0.4906  0.5536 -0.4799
   9123SM   H2F12263   7.649   4.739   2.897  0.1471  0.5390  0.0037
   9123SM   H2G12264   7.587   4.840   3.029  1.7830  1.9901  0.5898
   9123SM   C3F12265   7.761   4.921   2.935 -0.1998 -0.1272 -0.1989
   9123SM   H3F12266   7.741   5.017   2.988  1.8841  0.4745 -0.4073
   9123SM   H3G12267   7.786   4.953   2.832 -1.0390 -2.0588 -1.0394
   9123SM   C4F12268   7.875   4.848   3.005  0.2321  0.2614  0.1433
   9123SM   H4F12269   7.966   4.912   2.995  2.1593 -2.1555  1.0100
   9123SM   H4G12270   7.899   4.749   2.962  0.5037  0.5614 -0.4183
   9123SM   C5F12271   7.863   4.818   3.152 -0.1174  0.2167  0.7590
   9123SM   H5F12272   7.948   4.749   3.173  0.4637  0.5472 -0.4731
   9123SM   H5G12273   7.767   4.771   3.183 -0.1069 -0.7051 -0.5453
   9123SM   C6F12274   7.888   4.930   3.257 -0.5970 -0.3844  0.6946
   9123SM   H6F12275   7.876   4.891   3.361 -0.2027  2.3703  1.8538
   9123SM   H6G12276   7.805   5.003   3.251 -0.3248  0.3401  4.0275
   9123SM   C7F12277   8.029   4.988   3.233 -0.0494  0.6462  0.5308
   9123SM   H7F12278   8.041   5.031   3.131  0.7269  0.5946  0.5973
   9123SM   H7G12279   8.091   4.896   3.235 -0.4885  0.2979 -0.7146
   9123SM   C8F12280   8.085   5.077   3.342  0.5077 -0.4659 -0.6745
   9123SM   H8F12281   8.188   5.109   3.316 -0.4590  2.9685 -0.7294
   9123SM   H8G12282   8.091   5.027   3.441 -2.3588  2.4993  1.1887
   9123SM   C9F12283   8.002   5.208   3.357  0.0185 -0.1175 -0.6638
   9123SM   H9F12284   7.894   5.187   3.369  0.4933 -1.7257  1.4571
   9123SM   H9G12285   8.026   5.258   3.261 -0.3000  1.9220  0.2609
   9123SM  C10F12286   8.051   5.294   3.473  0.6073  1.1144 -0.5246
   9123SM  H10F12287   8.159   5.315   3.457  0.8624 -0.1399 -0.5611
   9123SM  H10G12288   8.043   5.245   3.572  3.2922  0.8983 -0.3563
   9123SM  C11F12289   7.987   5.437   3.490 -0.0609  0.6758  0.4055
   9123SM  H11F12290   8.003   5.486   3.392 -3.4613 -0.8028 -1.0496
   9123SM  H11G12291   8.047   5.478   3.574  0.0225 -0.1488  0.7561
   9123SM  C12F12292   7.829   5.446   3.521 -1.2687  0.6333  0.3083
   9123SM  H12F12293   7.779   5.378   3.449 -1.7235 -0.5575  1.6957
   9123SM  H12G12294   7.799   5.552   3.508 -4.1730 -0.2352 -0.9174
   9123SM  C13F12295   7.790   5.401   3.662 -0.1357 -0.0166  0.1849
   9123SM  H13F12296   7.818   5.294   3.663 -1.9906 -0.6500 -3.2665
   9123SM  H13G12297   7.684   5.420   3.689  0.2259  0.9315  1.0249
   9123SM  C14F12298   7.870   5.474   3.768 -0.2930  0.8079 -0.5815
   9123SM  H14F12299   7.856   5.582   3.748 -1.6333  0.3517 -2.3357
   9123SM  H14G12300   7.976   5.441   3.758 -0.9425 -0.5801 -4.7281
   9123SM  C15F12301   7.797   5.437   3.896 -0.3205  0.3758 -0.4014
   9123SM  H15F12302   7.817   5.328   3.907 -1.5425  0.0274 -1.4764
   9123SM  H15G12303   7.689   5.446   3.876 -0.4943 -0.1526  0.2485
   9123SM  C16F12304   7.849   5.511   4.023  0.0418  0.2159 -0.7868
   9123SM  H16F12305   7.827   5.618   4.005 -0.0392  0.1351 -1.1816
   9123SM  H16G12306   7.958   5.490   4.027 -0.1559 -0.8048 -0.2851
   9123SM  C17F12307   7.774   5.450   4.143 -0.5386  0.2373 -0.3771
   9123SM  H17F12308   7.773   5.339   4.135 -0.0915  0.2097 -0.1469
   9123SM  H17G12309   7.675   5.495   4.163  0.1306  1.3088  0.7239
   9123SM  C18F12310   7.856   5.466   4.273  0.6203 -0.5867 -0.2043
   9123SM  H18F12311   7.892   5.571   4.278  3.3494 -1.4567  0.4951
   9123SM  H18G12312   7.958   5.422   4.260  0.3649 -1.1982 -0.1716
   9123SM  C19F12313   7.788   5.435   4.411 -0.0854 -0.0900  0.6595
   9123SM  H19F12314   7.750   5.330   4.415 -0.3624 -0.0987 -1.1645
   9123SM  H19G12315   7.700   5.501   4.424  0.2339  0.5672 -0.4004
   9123SM  C20F12316   7.878   5.462   4.526  0.5381  0.1216 -0.4272
   9123SM  H20F12317   7.823   5.499   4.615  1.0527  0.8238 -0.3868
   9123SM  H20G12318   7.947   5.544   4.496 -0.2896  1.4901  1.2609
   9123SM  C21F12319   7.972   5.343   4.567 -0.2647  0.5613  0.4508
   9123SM  H21F12320   8.037   5.317   4.480 -1.5953 -0.3285 -0.3364
   9123SM  H21G12321   7.907   5.254   4.584 -0.2201 -0.2651 -2.8565
   9123SM  C22F12322   8.059   5.359   4.691  1.1332 -0.0029  0.3152
   9123SM  H22F12323   7.986   5.368   4.775 -1.8466 -0.4533 -2.0375
   9123SM  H22G12324   8.118   5.453   4.685  0.1577  0.6358  0.3755
   9123SM  C23F12325   8.152   5.244   4.718 -0.0569  0.1167  0.2886
   9123SM  H23F12326   8.174   5.190   4.623  0.2437  0.8008 -0.0443
   9123SM  H23G12327   8.106   5.176   4.792 -1.4258 -0.1536 -0.7558
   9123SM  H23H12328   8.246   5.274   4.770  0.9709 -2.4986  0.0982
   9223SM     N12329   4.483   3.258   2.750  0.0344 -0.4849 -0.0285
   9223SM   C1512330   4.358   3.292   2.677 -0.5619 -0.1428 -0.0930
   9223SM  H15A12331   4.305   3.376   2.719 -0.3904 -0.9270  1.8346
   9223SM  H15B12332   4.286   3.211   2.677 -0.5784 -0.2115  2.5061
   9223SM  H15C12333   4.359   3.310   2.571 -1.2433  1.7831  0.1906
   9223SM   C1412334   4.522   3.125   2.714 -0.4861  1.2456  0.4640
   9223SM  H14A12335   4.446   3.051   2.737  0.9741 -0.3318  0.4308
   9223SM  H14B12336   4.608   3.103   2.775 -0.9321  2.1679  1.4474
   9223SM  H14C12337   4.554   3.119   2.611 -2.3193  0.0625 -0.0776
   9223SM   C1312338   4.584   3.357   2.698 -0.6147  0.4099  0.2888
   9223SM  H13A12339   4.560   3.453   2.742 -0.5192  0.9714 -0.8595
   9223SM  H13B12340   4.572   3.368   2.592  0.4615 -0.3303  0.0712
   9223SM  H13C12341   4.684   3.320   2.715 -0.8912  0.4153  2.1481
   9223SM   C1212342   4.459   3.263   2.898 -0.1080  0.4782 -0.1405
   9223SM  H12A12343   4.365   3.212   2.914  0.6489 -0.5999  1.1297
   9223SM  H12B12344   4.441   3.363   2.933 -1.7158 -0.4701  1.9574
   9223SM   C1112345   4.554   3.197   3.003 -0.7235 -0.1673 -0.0993
   9223SM  H11A12346   4.561   3.087   2.986  0.9913  0.3550 -3.6182
   9223SM  H11B12347   4.509   3.199   3.104  0.5161 -2.3775  0.5778
   9223SM     P12348   4.693   3.416   3.052 -0.2201  0.3196 -0.0595
   9223SM   O1312349   4.825   3.463   3.001  0.2631 -0.5076  0.2599
   9223SM   O1412350   4.572   3.493   3.007  0.8754  0.1006 -0.4501
   9223SM   O1112351   4.690   3.411   3.214 -0.1166  0.4887 -0.1334
   9223SM   O1212352   4.681   3.259   3.014 -0.6622 -0.2651 -0.2255
   9223SM   C1S12353   4.764   3.307   3.284 -0.7484 -0.1586  0.5116
   9223SM   H1S12354   4.854   3.278   3.225 -0.8934  0.1769  0.1239
   9223SM   H1T12355   4.707   3.213   3.302 -1.0841  0.1648  1.1804
   9223SM    NF12356   4.919   3.280   3.465  0.5954 -0.2423 -0.1636
   9223SM   HNF12357   4.885   3.215   3.532 -1.6775 -1.2794 -2.1690
   9223SM   C2S12358   4.812   3.362   3.419  0.4964  0.2718  0.5357
   9223SM   H2S12359   4.846   3.468   3.416 -0.8688  0.7079 -0.4115
   9223SM   C3S12360   4.682   3.377   3.513 -0.2919 -0.0122  0.4341
   9223SM   H3S12361   4.637   3.276   3.522 -1.7152  0.4088 -1.4122
   9223SM    O312362   4.582   3.458   3.450  0.0552 -0.3451 -0.2374
   9223SM   HO312363   4.595   3.445   3.355 -0.1643 -3.3069  0.0516
   9223SM   C4S12364   4.723   3.425   3.653 -0.4525  0.3071 -0.1632
   9223SM   H4S12365   4.722   3.341   3.724 -0.1322 -0.5193 -1.1172
   9223SM   C5S12366   4.735   3.551   3.697 -0.5593  1.1549 -0.4623
   9223SM   H5S12367   4.716   3.637   3.631 -2.0385 -0.4028 -2.1367
   9223SM   C6S12368   4.777   3.581   3.841  0.0126  0.2871 -0.7801
   9223SM   H6S12369   4.741   3.683   3.865 -0.2467  0.8747 -3.4121
   9223SM   H6T12370   4.888   3.579   3.852  0.0587  0.2259 -1.2561
   9223SM   C7S12371   4.718   3.486   3.953  0.4419  0.0887  0.1193
   9223SM   H7S12372   4.748   3.381   3.932 -1.0113 -0.5396  1.0393
   9223SM   H7T12373   4.607   3.482   3.957  0.4626 -1.5002 -0.1467
   9223SM   C8S12374   4.765   3.521   4.097  1.1560 -0.2001 -0.0523
   9223SM   H8S12375   4.730   3.621   4.130 -2.8295 -1.2654 -0.5405
   9223SM   H8T12376   4.875   3.509   4.082  1.1228  0.2465 -0.6846
   9223SM   C9S12377   4.711   3.427   4.205 -0.1668 -0.3126 -0.3861
   9223SM   H9S12378   4.741   3.323   4.180 -0.4888 -1.1959  2.5129
   9223SM   H9T12379   4.603   3.423   4.233  0.6374 -0.2249  3.2034
   9223SM  C10S12380   4.784   3.470   4.336  0.4913  0.5924 -0.7409
   9223SM  H10S12381   4.892   3.484   4.316  1.1715 -2.9844 -0.2147
   9223SM  H10T12382   4.788   3.389   4.412 -0.0551  2.2074  1.1085
   9223SM  C11S12383   4.727   3.596   4.408 -0.9176 -0.8691 -0.0028
   9223SM  H11S12384   4.627   3.568   4.450 -1.6506  1.5307  0.0347
   9223SM  H11T12385   4.715   3.681   4.338 -0.6826 -3.1955 -3.0385
   9223SM  C12S12386   4.826   3.636   4.527  0.3902 -0.5939 -0.0242
   9223SM  H12S12387   4.884   3.728   4.504  2.8349 -1.7610  1.1029
   9223SM  H12T12388   4.905   3.558   4.521  0.7286 -0.3636  1.0617
   9223SM  C13S12389   4.753   3.623   4.660 -0.0142  0.2204 -0.0884
   9223SM  H13S12390   4.720   3.518   4.674 -1.4706  0.8266  1.2010
   9223SM  H13T12391   4.665   3.690   4.652 -1.9531 -2.1577  0.0431
   9223SM  C14S12392   4.834   3.662   4.782 -0.3481  0.0589 -0.0184
   9223SM  H14S12393   4.890   3.752   4.748  2.0455 -1.4115 -0.1816
   9223SM  H14T12394   4.914   3.588   4.806  0.8961  0.8551 -1.5466
   9223SM  C15S12395   4.748   3.693   4.906 -0.8978  0.2714  0.6905
   9223SM  H15S12396   4.676   3.609   4.919  1.0201 -1.7386 -0.7866
   9223SM  H15T12397   4.706   3.790   4.871 -0.3069  0.2999  0.0400
   9223SM  C16S12398   4.828   3.711   5.038 -0.4325  0.7155  0.3889
   9223SM  H16S12399   4.769   3.767   5.115  0.0397  1.4131  0.2542
   9223SM  H16T12400   4.919   3.774   5.022 -0.6677  1.6124  2.2566
   9223SM  C17S12401   4.865   3.573   5.109  0.3541  0.2814  0.3365
   9223SM  H17S12402   4.922   3.507   5.041 -1.0132 -1.1690  0.5515
   9223SM  H17T12403   4.768   3.526   5.137  1.1474 -2.1496 -0.8004
   9223SM  C18S12404   4.948   3.596   5.244  0.7478 -0.1433  0.2459
   9223SM  H18S12405   5.053   3.631   5.232  0.6901  0.8001  2.0626
   9223SM  H18T12406   4.946   3.504   5.306  0.5943  0.0564  0.5434
   9223SM  H18U12407   4.884   3.666   5.302 -1.4980 -4.1012  3.0261
   9223SM   C1F12408   5.050   3.281   3.424  0.0383 -0.2877  0.7765
   9223SM    OF12409   5.086   3.353   3.331 -0.0284  0.1083 -0.3892
   9223SM   C2F12410   5.140   3.186   3.487  0.2743 -0.2617 -0.5007
   9223SM   H2F12411   5.209   3.147   3.409 -1.9121  1.3796 -3.4675
   9223SM   H2G12412   5.087   3.104   3.539  0.5501 -1.3481 -1.8499
   9223SM   C3F12413   5.235   3.253   3.589  0.2080  0.5248  0.2172
   9223SM   H3F12414   5.282   3.327   3.521 -1.2964 -0.0179 -1.4928
   9223SM   H3G12415   5.305   3.175   3.626 -0.0136 -0.8334 -2.0238
   9223SM   C4F12416   5.163   3.311   3.709 -1.0353 -0.4192  0.7091
   9223SM   H4F12417   5.132   3.214   3.755 -1.2297 -0.8414 -0.2806
   9223SM   H4G12418   5.075   3.373   3.684  0.9708  2.3271 -0.1175
   9223SM   C5F12419   5.250   3.391   3.804 -0.4063  0.9176  0.5274
   9223SM   H5F12420   5.310   3.466   3.750 -1.4059  0.7258 -0.9025
   9223SM   H5G12421   5.324   3.316   3.839 -1.7340 -2.7151 -3.5986
   9223SM   C6F12422   5.172   3.457   3.913  0.2591  0.4240 -0.1819
   9223SM   H6F12423   5.105   3.382   3.961  1.0259 -0.1844 -0.0460
   9223SM   H6G12424   5.102   3.526   3.860  1.5171  1.4188 -0.5822
   9223SM   C7F12425   5.261   3.533   4.020 -0.0481 -0.1405 -0.3917
   9223SM   H7F12426   5.325   3.604   3.963  0.6202 -0.9472 -0.6620
   9223SM   H7G12427   5.330   3.457   4.064  2.3052  0.0915 -3.3325
   9223SM   C8F12428   5.182   3.605   4.135  0.3272  0.4857  1.1211
   9223SM   H8F12429   5.107   3.529   4.168 -0.4835  1.1973  0.9608
   9223SM   H8G12430   5.133   3.696   4.095 -3.0474 -0.6482  2.2664
   9223SM   C9F12431   5.268   3.649   4.251 -0.2140  0.3212  0.0406
   9223SM   H9F12432   5.337   3.734   4.231  0.0807  0.3364  1.0811
   9223SM   H9G12433   5.343   3.569   4.271  1.0265  1.4775  0.1597
   9223SM  C10F12434   5.169   3.673   4.361  0.1093  0.2286  0.4179
   9223SM  H10F12435   5.107   3.583   4.376 -1.4851  0.9698 -1.4171
   9223SM  H10G12436   5.100   3.755   4.332 -0.5594  0.2106  1.8711
   9223SM  C11F12437   5.239   3.706   4.496  0.0726 -0.3379  0.7242
   9223SM  H11F12438   5.297   3.797   4.470 -1.2481  1.4227  3.4867
   9223SM  H11G12439   5.309   3.624   4.523  1.1630  0.1951 -0.3829
   9223SM  C12F12440   5.140   3.732   4.616  0.0323 -0.3225  0.6266
   9223SM  H12F12441   5.071   3.645   4.620 -1.5778  0.8451 -0.4697
   9223SM  H12G12442   5.086   3.828   4.603 -0.2341 -0.5932 -0.3078
   9223SM  C13F12443   5.232   3.742   4.741  0.2698  0.1950  0.1225
   9223SM  H13F12444   5.307   3.823   4.731  0.9817 -0.3358  1.0588
   9223SM  H13G12445   5.280   3.643   4.748 -1.5724 -1.0277 -2.6304
   9223SM  C14F12446   5.151   3.743   4.872  1.0643  0.2575 -0.3043
   9223SM  H14F12447   5.107   3.641   4.866  0.6868  0.1717  2.3677
   9223SM  H14G12448   5.079   3.827   4.867  0.9509  0.1765 -0.0592
   9223SM  C15F12449   5.232   3.750   5.000  0.0999  0.0891  0.9551
   9223SM  H15F12450   5.327   3.697   4.976  0.5818  1.6887 -0.9802
   9223SM  H15G12451   5.177   3.698   5.081 -0.2055 -1.4523 -0.1797
   9223SM  C16F12452   5.261   3.890   5.055 -0.9334 -0.1175  0.4206
   9223SM  H16F12453   5.294   3.949   4.967 -1.7942  0.4018  0.4366
   9223SM  H16G12454   5.343   3.881   5.130 -1.6424  2.2354  1.5912
   9223SM  C17F12455   5.146   3.963   5.132 -0.4304 -0.1573 -0.1172
   9223SM  H17F12456   5.050   3.924   5.090  0.1544 -1.0037 -0.7097
   9223SM  H17G12457   5.153   4.074   5.129 -0.5366 -0.1681 -1.3183
   9223SM  C18F12458   5.155   3.941   5.286  0.6127  0.2462 -0.3346
   9223SM  H18F12459   5.226   4.009   5.337 -1.6232  2.1833  0.4059
   9223SM  H18G12460   5.182   3.835   5.303 -1.6680 -0.3682 -0.1194
   9223SM  C19F12461   5.021   3.946   5.360  0.5687  0.3956 -0.4645
   9223SM  H19F12462   4.955   3.865   5.323  1.8345 -0.4956 -0.8365
   9223SM  H19G12463   4.972   4.043   5.337  0.5165  0.5821  0.4156
   9223SM  C20F12464   5.022   3.931   5.512  0.0013  0.2756 -0.3580
   9223SM  H20F12465   5.071   4.014   5.568 -1.1148  1.1298 -0.6028
   9223SM  H20G12466   5.065   3.832   5.539  1.5566  0.4855 -1.9033
   9223SM  C21F12467   4.877   3.939   5.574  0.3052 -0.8775  1.0416
   9223SM  H21F12468   4.816   3.854   5.536  0.6911 -0.6400 -0.1619
   9223SM  H21G12469   4.827   4.034   5.543 -0.4463 -1.6191 -0.1093
   9223SM  C22F12470   4.877   3.938   5.726 -0.0133  0.4791  0.0455
   9223SM  H22F12471   4.900   4.037   5.771  0.4772 -1.5136  4.8318
   9223SM  H22G12472   4.969   3.884   5.756 -0.1040  1.3951  2.1141
   9223SM  C23F12473   4.754   3.869   5.786 -0.1599  0.2601 -0.2980
   9223SM  H23F12474   4.672   3.936   5.753  0.3221 -0.0243 -2.1806
   9223SM  H23G12475   4.766   3.867   5.897  0.7153  0.7411 -0.3799
   9223SM  H23H12476   4.752   3.767   5.742  1.0934  0.4833 -0.9129
   9323SM     N12477   6.435   5.184   2.333 -0.3344  0.0818 -0.2797
   9323SM   C1512478   6.305   5.237   2.387  0.8062  0.0962  0.8435
   9323SM  H15A12479   6.245   5.293   2.317 -3.1977 -3.0016  1.4320
   9323SM  H15B12480   6.325   5.304   2.469  0.2987 -0.5090  1.4691
   9323SM  H15C12481   6.238   5.157   2.413 -0.8223  0.5519 -1.6167
   9323SM   C1412482   6.498   5.099   2.438  0.4719  0.2887  0.2266
   9323SM  H14A12483   6.425   5.032   2.480 -0.9299  0.3021 -2.0666
   9323SM  H14B12484   6.545   5.159   2.514 -0.5701  0.5209  0.7027
   9323SM  H14C12485   6.569   5.033   2.390 -1.2687  0.1031 -2.2446
   9323SM   C1312486   6.394   5.093   2.217 -0.2233  0.6119  0.2144
   9323SM  H13A12487   6.480   5.030   2.196 -1.0744 -0.2090 -0.9680
   9323SM  H13B12488   6.371   5.146   2.126  1.7349  0.1121 -0.6321
   9323SM  H13C12489   6.311   5.027   2.238  0.0093 -0.0982 -0.9672
   9323SM   C1212490   6.526   5.299   2.285 -0.0254  0.4426 -0.0999
   9323SM  H12A12491   6.475   5.344   2.201  1.7273 -0.1927 -1.5745
   9323SM  H12B12492   6.619   5.267   2.241  1.2999  2.0607  1.3723
   9323SM   C1112493   6.553   5.414   2.392 -0.1442 -0.0181 -0.1212
   9323SM  H11A12494   6.450   5.440   2.424 -0.7861  0.1155 -2.1633
   9323SM  H11B12495   6.597   5.502   2.341  1.4366 -0.8446 -0.2694
   9323SM     P12496   6.783   5.347   2.480  0.2986  0.4382 -0.1887
   9323SM   O1312497   6.802   5.204   2.445  0.0194  0.2589 -0.1208
   9323SM   O1412498   6.841   5.444   2.386 -0.3799 -0.3073  0.6320
   9323SM   O1112499   6.858   5.372   2.619 -0.2773 -0.0880  0.5009
   9323SM   O1212500   6.628   5.365   2.505  0.3602 -0.1112 -0.2032
   9323SM   C1S12501   6.800   5.349   2.750  0.2291 -1.0025  0.0515
   9323SM   H1S12502   6.709   5.284   2.751 -1.3966  1.0865 -2.2622
   9323SM   H1T12503   6.790   5.444   2.808  1.5619  0.5152 -2.0870
   9323SM    NF12504   6.827   5.208   2.952  0.1582  0.0430  0.4869
   9323SM   HNF12505   6.836   5.262   3.035  1.3200  0.4194  0.1249
   9323SM   C2S12506   6.900   5.264   2.838 -0.1880  0.5857  0.5594
   9323SM   H2S12507   6.926   5.173   2.780  0.9120  0.8203  0.6479
   9323SM   C3S12508   7.023   5.345   2.866 -0.1492 -0.2663 -0.0981
   9323SM   H3S12509   6.993   5.433   2.928  0.6043  0.3485 -0.5833
   9323SM    O312510   7.080   5.408   2.750 -0.2270 -0.5846  0.5920
   9323SM   HO312511   7.006   5.418   2.689 -0.8134  1.9959  1.5817
   9323SM   C4S12512   7.119   5.273   2.954  0.3775  0.2450  0.1978
   9323SM   H4S12513   7.131   5.316   3.054  0.5915 -1.8496  1.1225
   9323SM   C5S12514   7.213   5.181   2.909 -0.6343 -0.6620 -0.2380
   9323SM   H5S12515   7.209   5.149   2.804  0.9784 -1.0679 -0.2027
   9323SM   C6S12516   7.318   5.125   3.004 -0.2604  0.1140 -0.2315
   9323SM   H6S12517   7.417   5.107   2.957 -0.8467 -1.7785 -0.8376
   9323SM   H6T12518   7.290   5.018   3.016  0.8459 -0.1620 -0.0443
   9323SM   C7S12519   7.329   5.180   3.147  0.2778 -0.4198 -0.1621
   9323SM   H7S12520   7.226   5.189   3.187 -0.0939 -0.3758 -1.0947
   9323SM   H7T12521   7.370   5.281   3.130  0.4326 -0.6840 -1.4833
   9323SM   C8S12522   7.411   5.096   3.227 -0.3344  0.5520  0.2251
   9323SM   H8S12523   7.515   5.100   3.187 -1.1292 -0.4954 -2.1179
   9323SM   H8T12524   7.374   4.992   3.219  0.1206  0.5158 -1.8694
   9323SM   C9S12525   7.422   5.148   3.372 -0.0970 -0.1404 -0.5173
   9323SM   H9S12526   7.322   5.139   3.419 -0.6610  0.2847 -1.5964
   9323SM   H9T12527   7.457   5.253   3.377  2.8471 -1.0480  0.5609
   9323SM  C10S12528   7.523   5.070   3.455  0.0765  0.2402  0.0106
   9323SM  H10S12529   7.622   5.091   3.411 -0.0734  0.1454 -0.3733
   9323SM  H10T12530   7.494   4.962   3.460 -0.5504  0.4278  0.5013
   9323SM  C11S12531   7.511   5.111   3.606  0.0335 -0.1930  0.6700
   9323SM  H11S12532   7.407   5.082   3.632 -1.0294  1.2478 -1.7358
   9323SM  H11T12533   7.536   5.219   3.603 -1.5559  0.1949  0.1673
   9323SM  C12S12534   7.606   5.041   3.696 -0.5435  0.0496  0.6721
   9323SM  H12S12535   7.709   5.058   3.659 -1.1097 -0.3175 -1.1912
   9323SM  H12T12536   7.584   4.932   3.689  2.0137 -0.6058  1.7541
   9323SM  C13S12537   7.596   5.088   3.840  0.2303 -0.3785 -0.4157
   9323SM  H13S12538   7.494   5.071   3.881 -0.6398 -0.2211 -2.3953
   9323SM  H13T12539   7.600   5.198   3.852  0.3404 -0.5942  1.9508
   9323SM  C14S12540   7.687   5.011   3.941 -0.4426  0.0246 -0.6505
   9323SM  H14S12541   7.792   5.042   3.921 -0.4829  0.3206 -0.4065
   9323SM  H14T12542   7.664   4.903   3.931 -0.0999 -0.2070  0.7819
   9323SM  C15S12543   7.665   5.049   4.094  0.7838  0.0175  0.6567
   9323SM  H15S12544   7.646   5.158   4.100 -0.7629 -0.1822  0.0232
   9323SM  H15T12545   7.566   5.003   4.114  0.5531  0.1419 -0.1561
   9323SM  C16S12546   7.791   5.012   4.168 -0.1174  0.6775 -0.3529
   9323SM  H16S12547   7.875   5.069   4.124 -1.6423  1.2485 -2.7058
   9323SM  H16T12548   7.803   4.903   4.152  0.9319  0.9067 -1.1860
   9323SM  C17S12549   7.782   5.056   4.313 -0.1698  0.1887 -0.8733
   9323SM  H17S12550   7.689   5.019   4.362  0.3884  0.9946  0.8923
   9323SM  H17T12551   7.778   5.166   4.322 -0.6722  0.0143  2.9504
   9323SM  C18S12552   7.901   5.005   4.398 -0.6221  0.2306  0.5243
   9323SM  H18S12553   7.908   4.894   4.398  0.3401  0.2766  0.0221
   9323SM  H18T12554   7.894   5.035   4.504  1.5647  0.0475  0.7755
   9323SM  H18U12555   8.002   5.032   4.361 -0.3754 -1.9956 -0.5789
   9323SM   C1F12556   6.730   5.115   2.940  0.0494 -0.3639  0.0013
   9323SM    OF12557   6.722   5.050   2.837  0.2114  0.0189  0.2396
   9323SM   C2F12558   6.634   5.091   3.050 -0.1925  0.1443  0.5525
   9323SM   H2F12559   6.545   5.155   3.031 -1.0080 -1.6155 -2.2176
   9323SM   H2G12560   6.684   5.120   3.145 -1.0495 -0.6035  1.2539
   9323SM   C3F12561   6.593   4.947   3.071 -0.5350  0.3487 -0.4822
   9323SM   H3F12562   6.680   4.882   3.048 -1.0520 -0.7088  0.4874
   9323SM   H3G12563   6.508   4.914   3.008 -1.6545  0.6544  0.8082
   9323SM   C4F12564   6.539   4.922   3.211 -0.6752  0.5426 -0.1015
   9323SM   H4F12565   6.469   4.835   3.211  3.1463 -2.8230  1.0312
   9323SM   H4G12566   6.495   5.016   3.250  1.6919  1.5600  0.2296
   9323SM   C5F12567   6.637   4.861   3.311  0.3146  0.8505 -0.4774
   9323SM   H5F12568   6.732   4.914   3.292  0.5798  0.9305  0.9122
   9323SM   H5G12569   6.637   4.754   3.284 -1.1454  0.4567  0.8944
   9323SM   C6F12570   6.600   4.864   3.458  0.0958  0.7709 -0.3427
   9323SM   H6F12571   6.523   4.784   3.474  1.3326 -0.5293 -0.6708
   9323SM   H6G12572   6.554   4.961   3.484 -0.7589  0.7145 -1.5551
   9323SM   C7F12573   6.730   4.853   3.550  0.4469 -0.2207  0.2054
   9323SM   H7F12574   6.813   4.921   3.521  1.7396 -1.8941 -0.2468
   9323SM   H7G12575   6.766   4.747   3.551 -1.1743 -0.7914  0.4315
   9323SM   C8F12576   6.703   4.886   3.703  0.2744  0.0560 -0.3525
   9323SM   H8F12577   6.612   4.833   3.737 -0.0374  1.7553  1.6592
   9323SM   H8G12578   6.689   4.994   3.722 -1.8259 -0.3426  0.5656
   9323SM   C9F12579   6.829   4.852   3.791  0.5262  1.1018  0.1902
   9323SM   H9F12580   6.915   4.903   3.742  0.8610  0.7435  0.4012
   9323SM   H9G12581   6.825   4.741   3.796 -1.9161  1.1734  1.9182
   9323SM  C10F12582   6.809   4.905   3.935 -0.4174 -0.2199  0.2507
   9323SM  H10F12583   6.710   4.885   3.983  0.3348 -0.0759  1.9378
   9323SM  H10G12584   6.811   5.015   3.924 -1.1042 -0.0104  1.8984
   9323SM  C11F12585   6.909   4.852   4.042 -0.4223 -0.5736 -0.2751
   9323SM  H11F12586   7.011   4.876   4.006 -0.0421 -0.1248  1.0499
   9323SM  H11G12587   6.918   4.742   4.048  2.4272 -0.3959  0.0230
   9323SM  C12F12588   6.897   4.908   4.183  0.0653 -0.2941  0.1952
   9323SM  H12F12589   6.786   4.914   4.192 -0.1517  1.2974 -2.3296
   9323SM  H12G12590   6.947   5.007   4.189  0.0239 -0.1765 -1.1208
   9323SM  C13F12591   6.940   4.806   4.290  0.6561 -0.2622 -0.3790
   9323SM  H13F12592   7.048   4.783   4.275  0.8062  0.2430 -0.1178
   9323SM  H13G12593   6.873   4.718   4.281 -0.4220  0.3953  0.9530
   9323SM  C14F12594   6.927   4.861   4.430 -0.3021 -0.4308  0.0413
   9323SM  H14F12595   6.934   4.775   4.500  0.5813 -2.2709 -2.1995
   9323SM  H14G12596   6.825   4.901   4.447 -1.3207 -1.7877 -2.3891
   9323SM  C15F12597   7.029   4.968   4.466  0.0385 -0.6183 -0.0969
   9323SM  H15F12598   7.022   5.055   4.397 -2.2668  0.9612  1.9912
   9323SM  H15G12599   7.126   4.914   4.457  0.8267  0.3660  1.9509
   9323SM  C16F12600   7.011   5.028   4.607 -0.6710  0.5254 -0.7503
   9323SM  H16F12601   7.028   4.953   4.687 -1.1804  1.5592  0.3771
   9323SM  H16G12602   6.906   5.063   4.618 -0.3411  1.4984 -0.5448
   9323SM  C17F12603   7.104   5.146   4.623  0.0100  0.3864 -0.1364
   9323SM  H17F12604   7.074   5.233   4.561  1.0895  1.1688  0.4065
   9323SM  H17G12605   7.203   5.119   4.580 -0.4280 -0.4784 -0.6475
   9323SM  C18F12606   7.107   5.197   4.768 -0.1227  0.4146  0.0167
   9323SM  H18F12607   7.186   5.275   4.768 -0.9822  1.3201 -0.4866
   9323SM  H18G12608   7.133   5.120   4.843 -2.5169  0.4561  0.9904
   9323SM  C19F12609   6.978   5.267   4.819 -0.0211  0.0705 -0.7863
   9323SM  H19F12610   6.893   5.196   4.818 -0.5400  0.6805 -1.5985
   9323SM  H19G12611   6.949   5.353   4.755  0.6387  0.8514 -0.0747
   9323SM  C20F12612   7.004   5.312   4.961 -0.3423  0.4352 -0.3810
   9323SM  H20F12613   7.089   5.383   4.966 -0.8417  1.0075  0.1600
   9323SM  H20G12614   7.032   5.219   5.015 -0.2986  0.6558 -0.0169
   9323SM  C21F12615   6.869   5.369   5.013  0.3061 -0.4227 -0.3385
   9323SM  H21F12616   6.786   5.295   5.011 -0.3823  0.2940  0.8732
   9323SM  H21G12617   6.836   5.456   4.953  1.7897  1.6135  1.6518
   9323SM  C22F12618   6.875   5.416   5.164 -0.7916 -0.1214  0.3191
   9323SM  H22F12619   6.911   5.321   5.211  0.5069  0.2461  0.1077
   9323SM  H22G12620   6.771   5.429   5.199 -1.7588 -1.1455 -1.9875
   9323SM  C23F12621   6.961   5.548   5.193 -0.2623  0.8755  0.1746
   9323SM  H23F12622   6.980   5.569   5.300  1.8471 -0.6649  0.1836
   9323SM  H23G12623   6.920   5.635   5.138 -2.3609 -1.0131 -1.4083
   9323SM  H23H12624   7.063   5.538   5.149 -1.9621  1.0638 -4.3590
   9423SM     N12625   4.755   7.394   3.082 -0.4313  0.0746  0.8173
   9423SM   C1512626   4.887   7.462   3.055  0.1128 -0.0479  0.7751
   9423SM  H15A12627   4.959   7.391   3.017 -0.4856  0.5738 -1.7545
   9423SM  H15B12628   4.926   7.505   3.147  0.7205 -0.3762  0.6776
   9423SM  H15C12629   4.872   7.542   2.984  2.6928 -0.0516  0.1105
   9423SM   C1412630   4.722   7.320   2.957 -0.2360  0.0063 -0.2154
   9423SM  H14A12631   4.799   7.254   2.919 -0.7510 -0.1979 -0.9454
   9423SM  H14B12632   4.705   7.391   2.877  0.7238 -2.6255 -2.9912
   9423SM  H14C12633   4.626   7.270   2.962  0.2332 -1.0712 -1.4896
   9423SM   C1312634   4.780   7.309   3.199  0.2389  0.7526  0.0455
   9423SM  H13A12635   4.862   7.240   3.187 -1.6049 -1.6015  0.0300
   9423SM  H13B12636   4.700   7.248   3.240 -0.0094  1.8565  1.2538
   9423SM  H13C12637   4.810   7.367   3.285  1.0749 -0.9297  0.9438
   9423SM   C1212638   4.660   7.504   3.120  0.2041  0.3993  0.3313
   9423SM  H12A12639   4.696   7.557   3.207  3.1479 -0.5645 -0.2073
   9423SM  H12B12640   4.559   7.467   3.135  0.2340 -0.2596 -0.9605
   9423SM   C1112641   4.630   7.628   3.024  0.6058  0.3616 -0.1227
   9423SM  H11A12642   4.542   7.687   3.059  1.0297  1.1857 -0.4174
   9423SM  H11B12643   4.595   7.593   2.924 -0.5287  0.2435  0.2953
   9423SM     P12644   4.789   7.821   3.091 -0.2568 -0.1458  0.0679
   9423SM   O1312645   4.933   7.856   3.075 -0.0399  0.1485 -0.5898
   9423SM   O1412646   4.693   7.934   3.079 -0.0234 -0.6399 -0.2879
   9423SM   O1112647   4.774   7.758   3.239  0.1401 -0.4368 -0.5601
   9423SM   O1212648   4.739   7.711   2.998 -0.6743  0.2499  0.7070
   9423SM   C1S12649   4.765   7.851   3.349  0.1536  0.1772  0.5502
   9423SM   H1S12650   4.679   7.919   3.328 -2.4279 -2.7653  0.8193
   9423SM   H1T12651   4.858   7.912   3.349  0.5688 -0.4338 -0.3279
   9423SM    NF12652   4.751   7.872   3.605 -0.1664 -1.1640  1.0284
   9423SM   HNF12653   4.823   7.853   3.671  0.9185  0.9081  0.5121
   9423SM   C2S12654   4.738   7.780   3.489 -0.0556  0.1810 -0.4774
   9423SM   H2S12655   4.632   7.750   3.478 -1.0140  3.4097 -1.0855
   9423SM   C3S12656   4.824   7.648   3.510  0.4309 -0.5905  0.5005
   9423SM   H3S12657   4.925   7.688   3.532 -1.0050  3.0390  1.2253
   9423SM    O312658   4.838   7.561   3.395 -0.0296  0.1278  0.3961
   9423SM   HO312659   4.835   7.622   3.321 -1.0005  0.3669  0.6222
   9423SM   C4S12660   4.775   7.581   3.639 -0.5682 -0.2391 -0.0025
   9423SM   H4S12661   4.836   7.605   3.727 -0.0895  0.9081 -0.6312
   9423SM   C5S12662   4.674   7.495   3.650  0.1747 -0.2258  0.4128
   9423SM   H5S12663   4.624   7.465   3.557 -0.3848 -0.8693  0.9015
   9423SM   C6S12664   4.636   7.419   3.773 -0.3685 -0.2893  0.2800
   9423SM   H6S12665   4.625   7.315   3.736  0.5949 -0.8091  1.4082
   9423SM   H6T12666   4.537   7.453   3.810 -0.3888 -0.4470  0.3688
   9423SM   C7S12667   4.739   7.415   3.880  0.8475 -0.3396 -0.0840
   9423SM   H7S12668   4.758   7.520   3.909  1.3043 -0.4903  0.1682
   9423SM   H7T12669   4.833   7.378   3.833  1.0805  0.8290 -0.5608
   9423SM   C8S12670   4.706   7.326   3.999 -0.4541  0.4890 -0.8165
   9423SM   H8S12671   4.699   7.219   3.970 -0.1652 -0.3686  2.0235
   9423SM   H8T12672   4.613   7.363   4.046 -0.7216 -2.5203  1.3265
   9423SM   C9S12673   4.819   7.340   4.103 -0.6891 -0.3740 -1.0787
   9423SM   H9S12674   4.836   7.445   4.135  0.3270  0.1682 -3.2739
   9423SM   H9T12675   4.918   7.318   4.058 -0.3133  0.2910 -0.6112
   9423SM  C10S12676   4.799   7.248   4.220 -0.6713 -0.5553 -0.3507
   9423SM  H10S12677   4.793   7.145   4.178  0.1467 -0.9044  0.3526
   9423SM  H10T12678   4.704   7.260   4.277  0.6141  0.5932  1.6848
   9423SM  C11S12679   4.908   7.272   4.334 -0.8760  0.2999  0.9242
   9423SM  H11S12680   4.902   7.376   4.374  0.6406  1.1989 -1.0038
   9423SM  H11T12681   5.010   7.261   4.290 -0.6522  1.7413  1.0399
   9423SM  C12S12682   4.883   7.188   4.465  0.1891  0.0208  0.3998
   9423SM  H12S12683   4.866   7.084   4.429  1.4182  0.1921 -0.7767
   9423SM  H12T12684   4.788   7.225   4.508  1.3828  1.9009  1.5695
   9423SM  C13S12685   5.002   7.201   4.567  0.0965 -0.3438 -0.2420
   9423SM  H13S12686   5.001   7.299   4.619  2.0707 -0.0828 -0.5850
   9423SM  H13T12687   5.093   7.208   4.504 -0.3231  2.8201 -0.7033
   9423SM  C14S12688   5.010   7.081   4.659  0.6258 -0.3501 -0.0368
   9423SM  H14S12689   5.040   6.992   4.600 -1.0878 -0.6789 -0.4677
   9423SM  H14T12690   4.904   7.074   4.692  1.2282 -0.0445  2.0858
   9423SM  C15S12691   5.112   7.097   4.771 -0.2126  0.6890 -0.1056
   9423SM  H15S12692   5.207   7.122   4.719 -0.5808  0.0772 -1.1105
   9423SM  H15T12693   5.135   7.011   4.838  2.8952  2.0782  0.7747
   9423SM  C16S12694   5.078   7.203   4.878 -0.6914  0.5549  0.4650
   9423SM  H16S12695   4.987   7.180   4.937 -2.6642  3.0928 -1.3906
   9423SM  H16T12696   5.062   7.299   4.825 -2.1642  0.2279  0.2887
   9423SM  C17S12697   5.197   7.223   4.974 -0.1230  0.1708  0.5219
   9423SM  H17S12698   5.284   7.255   4.913 -0.1823 -1.0876 -0.2560
   9423SM  H17T12699   5.221   7.122   5.014  0.1502 -0.3687 -0.9501
   9423SM  C18S12700   5.176   7.311   5.096  1.0103  0.1331 -0.2493
   9423SM  H18S12701   5.267   7.343   5.150  0.5750 -2.7928  2.4855
   9423SM  H18T12702   5.114   7.253   5.168  0.9403  0.3124 -0.1657
   9423SM  H18U12703   5.124   7.398   5.050  0.4297  1.1552  2.2199
   9423SM   C1F12704   4.676   7.980   3.615  0.3119  0.2136 -0.1271
   9423SM    OF12705   4.601   8.021   3.526 -0.5633 -0.6375  0.7664
   9423SM   C2F12706   4.686   8.046   3.753  0.3089  0.2429  0.6434
   9423SM   H2F12707   4.787   8.091   3.763 -0.3195  1.7382  0.5537
   9423SM   H2G12708   4.683   7.961   3.825  1.5616 -0.0349  0.3879
   9423SM   C3F12709   4.591   8.160   3.782  0.3465  0.3287 -0.1980
   9423SM   H3F12710   4.493   8.115   3.811  0.3124 -0.1637 -1.0502
   9423SM   H3G12711   4.579   8.242   3.708 -1.0124 -0.5679 -1.0058
   9423SM   C4F12712   4.635   8.225   3.918  0.1933 -0.4305  0.0760
   9423SM   H4F12713   4.735   8.267   3.894 -0.7058  1.2714 -0.9857
   9423SM   H4G12714   4.652   8.160   4.006  0.4726  0.7928  0.9482
   9423SM   C5F12715   4.529   8.327   3.952 -0.3678 -0.8454 -0.0907
   9423SM   H5F12716   4.431   8.275   3.949  1.0250 -3.6519 -0.1112
   9423SM   H5G12717   4.529   8.412   3.880  1.0727 -1.7939 -1.2719
   9423SM   C6F12718   4.557   8.383   4.097 -0.1676  0.2659  0.4164
   9423SM   H6F12719   4.661   8.420   4.104 -0.7957  2.1159  0.4686
   9423SM   H6G12720   4.540   8.301   4.171 -0.3334  1.3478  1.6236
   9423SM   C7F12721   4.463   8.503   4.123  0.6163 -1.0606 -0.2022
   9423SM   H7F12722   4.445   8.553   4.026 -0.4923  1.5303  1.2256
   9423SM   H7G12723   4.516   8.575   4.189 -1.8666  0.4149  0.3288
   9423SM   C8F12724   4.323   8.472   4.188 -0.2947 -0.5614 -1.0316
   9423SM   H8F12725   4.334   8.430   4.290  1.9714  0.9306 -0.5853
   9423SM   H8G12726   4.271   8.397   4.125 -0.0208 -1.2234 -0.4811
   9423SM   C9F12727   4.219   8.596   4.189 -0.2281  0.6670  0.0450
   9423SM   H9F12728   4.215   8.633   4.084  0.1877  2.2031  0.5343
   9423SM   H9G12729   4.251   8.683   4.251  0.1893 -0.9727  2.2376
   9423SM  C10F12730   4.077   8.554   4.243 -0.7291  0.4495 -0.5423
   9423SM  H10F12731   4.021   8.505   4.161 -0.4284  0.3509 -0.6871
   9423SM  H10G12732   4.017   8.647   4.255 -1.2405  0.1898 -1.0349
   9423SM  C11F12733   4.081   8.476   4.375 -0.8361  0.2459 -0.8280
   9423SM  H11F12734   4.141   8.383   4.370  0.9705  1.3129  0.1313
   9423SM  H11G12735   3.974   8.453   4.398 -0.4559 -0.5498  0.1939
   9423SM  C12F12736   4.143   8.562   4.483  0.0712 -0.2865 -0.5159
   9423SM  H12F12737   4.082   8.655   4.488 -1.5607 -1.3188 -0.4360
   9423SM  H12G12738   4.251   8.585   4.469  0.1782  0.1414  0.8383
   9423SM  C13F12739   4.136   8.500   4.620  0.2769 -0.3884  0.1499
   9423SM  H13F12740   4.203   8.412   4.610 -0.5163 -1.0672  0.6492
   9423SM  H13G12741   4.031   8.471   4.644  0.5992 -0.2820  1.7846
   9423SM  C14F12742   4.198   8.586   4.732 -0.4482 -0.8770  0.0375
   9423SM  H14F12743   4.142   8.682   4.736  1.6439  0.3817  2.8368
   9423SM  H14G12744   4.290   8.633   4.691 -1.0124 -0.4474 -0.7753
   9423SM  C15F12745   4.215   8.511   4.862  0.0627  0.4359 -0.2607
   9423SM  H15F12746   4.226   8.403   4.839 -1.5053  0.2706 -0.3572
   9423SM  H15G12747   4.123   8.516   4.924  0.4254 -2.9337  0.7638
   9423SM  C16F12748   4.331   8.569   4.947 -0.2292  1.0287  0.1681
   9423SM  H16F12749   4.328   8.679   4.961 -0.9999  0.8899  1.1501
   9423SM  H16G12750   4.431   8.551   4.901  0.0487 -0.3344  1.2220
   9423SM  C17F12751   4.336   8.489   5.079  0.2859  0.0473 -0.8227
   9423SM  H17F12752   4.372   8.385   5.064  1.2645 -0.2123  2.5423
   9423SM  H17G12753   4.237   8.484   5.130  0.4239 -3.3335 -0.6618
   9423SM  C18F12754   4.433   8.547   5.179  0.0197 -0.4158 -0.4038
   9423SM  H18F12755   4.391   8.634   5.234 -1.5111 -3.0389  2.9688
   9423SM  H18G12756   4.526   8.576   5.124  0.9816  0.6526  1.6792
   9423SM  C19F12757   4.471   8.440   5.288 -0.1400 -1.4347 -0.1566
   9423SM  H19F12758   4.504   8.343   5.243 -0.4251 -1.3242 -0.6062
   9423SM  H19G12759   4.385   8.436   5.358 -0.3726  0.3777 -0.2902
   9423SM  C20F12760   4.594   8.502   5.368 -0.0380 -0.6153 -0.0643
   9423SM  H20F12761   4.663   8.543   5.291  0.0141  0.3445  0.4840
   9423SM  H20G12762   4.640   8.415   5.420 -1.1139  0.0549  2.1286
   9423SM  C21F12763   4.554   8.604   5.475 -0.4713 -0.0828  0.1483
   9423SM  H21F12764   4.471   8.554   5.528 -1.3866  0.9608 -0.2567
   9423SM  H21G12765   4.510   8.694   5.426 -1.6005 -1.2344 -1.0435
   9423SM  C22F12766   4.672   8.643   5.567 -0.9849  0.2583  0.2704
   9423SM  H22F12767   4.747   8.713   5.524  0.1989  0.0567  1.8818
   9423SM  H22G12768   4.721   8.548   5.596 -0.1860  1.0554  1.6469
   9423SM  C23F12769   4.630   8.725   5.685  0.1103  0.3324 -0.0968
   9423SM  H23F12770   4.723   8.730   5.746  1.0271 -0.8171 -1.3310
   9423SM  H23G12771   4.545   8.674   5.736 -0.8887  0.4307 -1.6041
   9423SM  H23H12772   4.600   8.829   5.663 -0.6102  0.1049 -0.2104
   9523SM     N12773   2.224   1.170   2.729  0.5742  0.3691  0.0922
   9523SM   C1512774   2.227   1.157   2.582  0.4435 -0.0109 -0.2698
   9523SM  H15A12775   2.127   1.163   2.542  0.4516 -0.3277 -0.3388
   9523SM  H15B12776   2.265   1.060   2.553  1.4335  0.0260  0.8405
   9523SM  H15C12777   2.289   1.234   2.539  1.6262  0.4980  2.1997
   9523SM   C1412778   2.159   1.043   2.787 -0.2108 -0.4393 -0.1974
   9523SM  H14A12779   2.226   0.960   2.780 -0.2710 -0.4407 -0.8912
   9523SM  H14B12780   2.066   1.010   2.741 -0.4200 -1.5134  0.9588
   9523SM  H14C12781   2.129   1.063   2.888  0.9851 -1.0427  0.2899
   9523SM   C1312782   2.364   1.186   2.778  0.1383 -0.1648  0.0839
   9523SM  H13A12783   2.431   1.104   2.756 -1.5487 -1.4371 -0.5174
   9523SM  H13B12784   2.372   1.198   2.885 -1.4684 -0.4696  0.2615
   9523SM  H13C12785   2.400   1.281   2.740  2.0946 -0.3114  1.3917
   9523SM   C1212786   2.138   1.290   2.772  0.0979  0.2968  0.1823
   9523SM  H12A12787   2.043   1.269   2.725  1.3803  0.9422 -3.0326
   9523SM  H12B12788   2.175   1.376   2.718  0.1194 -0.2324 -0.6737
   9523SM   C1112789   2.119   1.327   2.918 -0.1185  0.1513 -0.7623
   9523SM  H11A12790   2.074   1.426   2.941 -0.1345  0.3780 -1.7139
   9523SM  H11B12791   2.215   1.328   2.975 -0.9690 -3.4073  0.9952
   9523SM     P12792   1.897   1.196   2.967  0.4476 -0.3096 -0.6022
   9523SM   O1312793   1.852   1.261   2.841 -0.0936 -0.2473 -0.4048
   9523SM   O1412794   1.872   1.048   2.978  0.1466 -0.4651 -0.1180
   9523SM   O1112795   1.838   1.273   3.095  0.0951 -0.1125  0.8896
   9523SM   O1212796   2.046   1.223   2.989  0.7339  1.0208 -0.1819
   9523SM   C1S12797   1.860   1.212   3.226  0.3978 -0.2625 -0.7630
   9523SM   H1S12798   1.967   1.227   3.249  0.7037 -1.3842 -1.3915
   9523SM   H1T12799   1.849   1.101   3.226  1.3428 -0.3980  1.2058
   9523SM    NF12800   1.802   1.215   3.462  0.6802  0.5276  0.1038
   9523SM   HNF12801   1.746   1.147   3.509  0.8554 -0.1764 -0.6800
   9523SM   C2S12802   1.770   1.272   3.338  0.4723  0.5429  0.4234
   9523SM   H2S12803   1.790   1.381   3.339  1.2411  0.4009  0.5207
   9523SM   C3S12804   1.617   1.244   3.297  0.3346 -0.6019 -0.0111
   9523SM   H3S12805   1.599   1.134   3.299 -1.3805 -0.3373  0.2000
   9523SM    O312806   1.578   1.278   3.160 -0.2915 -0.3159 -0.9012
   9523SM   HO312807   1.663   1.298   3.119 -0.3054  0.5215 -0.5276
   9523SM   C4S12808   1.510   1.297   3.400 -0.1641 -0.1827 -0.1608
   9523SM   H4S12809   1.470   1.228   3.476 -2.2772  0.3479 -0.7167
   9523SM   C5S12810   1.450   1.415   3.401  0.0660  0.0315  0.1799
   9523SM   H5S12811   1.473   1.493   3.327  0.2308  1.0300  1.2591
   9523SM   C6S12812   1.327   1.458   3.482  0.1892 -0.3010 -0.1093
   9523SM   H6S12813   1.239   1.469   3.417 -1.2742 -0.3664  1.7703
   9523SM   H6T12814   1.349   1.562   3.514 -0.3491 -0.6096  1.3532
   9523SM   C7S12815   1.309   1.391   3.621 -0.3642  0.2587  0.1593
   9523SM   H7S12816   1.290   1.282   3.620  1.0251 -0.0112  0.8655
   9523SM   H7T12817   1.215   1.435   3.663 -1.5779 -1.5869 -0.5292
   9523SM   C8S12818   1.438   1.415   3.709  0.2732 -0.5454  0.0612
   9523SM   H8S12819   1.463   1.520   3.683 -2.0711  0.4757  1.5998
   9523SM   H8T12820   1.512   1.339   3.676 -1.0862 -1.4734 -0.9564
   9523SM   C9S12821   1.411   1.421   3.859 -0.5543  0.1129 -0.3410
   9523SM   H9S12822   1.331   1.493   3.885 -0.3822  0.7831 -1.5462
   9523SM   H9T12823   1.507   1.448   3.908 -0.6024 -0.3280 -0.0046
   9523SM  C10S12824   1.370   1.280   3.903  0.2175 -0.4957  0.4548
   9523SM  H10S12825   1.433   1.198   3.863 -0.2642 -1.0611  0.8267
   9523SM  H10T12826   1.272   1.259   3.855  0.7720 -0.9693 -0.5011
   9523SM  C11S12827   1.360   1.232   4.054  0.3683 -0.4180 -0.0569
   9523SM  H11S12828   1.466   1.222   4.086  0.0997 -0.0260  1.0154
   9523SM  H11T12829   1.310   1.135   4.074  1.3091 -0.9212 -0.1340
   9523SM  C12S12830   1.299   1.343   4.144 -0.0260 -0.5350  0.4053
   9523SM  H12S12831   1.204   1.366   4.091  0.3268  0.3534  0.1520
   9523SM  H12T12832   1.354   1.438   4.150 -2.0906  0.7197  0.6074
   9523SM  C13S12833   1.276   1.300   4.293 -0.1548  0.6886  0.4811
   9523SM  H13S12834   1.239   1.195   4.290  1.2178  0.0750  2.7937
   9523SM  H13T12835   1.201   1.370   4.337  0.0386  0.0536  1.8828
   9523SM  C14S12836   1.401   1.306   4.373  0.6440 -0.2240 -0.3556
   9523SM  H14S12837   1.447   1.407   4.375  1.8386 -0.7572  1.1001
   9523SM  H14T12838   1.459   1.226   4.322 -2.7452 -1.6505 -2.3061
   9523SM  C15S12839   1.384   1.272   4.520 -0.5144  0.1152 -0.4506
   9523SM  H15S12840   1.353   1.166   4.534  0.9889 -0.3418 -0.3628
   9523SM  H15T12841   1.310   1.335   4.574 -0.4415 -0.4712  0.3465
   9523SM  C16S12842   1.511   1.295   4.597 -0.4622  0.3490  0.2878
   9523SM  H16S12843   1.493   1.237   4.690 -0.0079 -0.5228 -0.1487
   9523SM  H16T12844   1.525   1.401   4.628 -0.4334  0.2830  0.5016
   9523SM  C17S12845   1.650   1.255   4.526  0.0533 -0.1955  0.3040
   9523SM  H17S12846   1.665   1.325   4.441 -0.6966 -0.5355 -0.1131
   9523SM  H17T12847   1.625   1.160   4.474  0.5218  0.3394 -0.9478
   9523SM  C18S12848   1.778   1.251   4.618  0.6517 -0.1316  0.0628
   9523SM  H18S12849   1.786   1.353   4.661 -1.3881  0.2812 -0.4325
   9523SM  H18T12850   1.872   1.226   4.565  0.9203 -1.4908  1.1550
   9523SM  H18U12851   1.754   1.180   4.699 -2.6450 -0.6893 -1.2353
   9523SM   C1F12852   1.920   1.233   3.519  0.2376 -0.0142 -0.2677
   9523SM    OF12853   2.006   1.309   3.468  0.2528 -0.3248 -0.0368
   9523SM   C2F12854   1.949   1.165   3.657 -0.1423 -0.1024 -0.4332
   9523SM   H2F12855   2.059   1.164   3.672 -0.1708 -1.9107 -0.1252
   9523SM   H2G12856   1.919   1.058   3.652  2.7858 -1.1837  2.0897
   9523SM   C3F12857   1.860   1.242   3.763 -0.1876 -0.2221 -0.1379
   9523SM   H3F12858   1.757   1.240   3.723  0.2257 -0.6915 -1.2406
   9523SM   H3G12859   1.900   1.344   3.779  0.4949 -0.2012 -1.7716
   9523SM   C4F12860   1.849   1.158   3.897 -0.1661  0.2066  0.2263
   9523SM   H4F12861   1.942   1.173   3.955  0.0551 -1.5591  0.3802
   9523SM   H4G12862   1.840   1.052   3.865 -5.0199 -0.0219  1.4976
   9523SM   C5F12863   1.732   1.205   3.982 -0.3901 -0.6091 -0.5551
   9523SM   H5F12864   1.638   1.179   3.930 -0.4293 -3.3361  0.6783
   9523SM   H5G12865   1.747   1.315   3.993 -1.2591 -0.5891  0.7422
   9523SM   C6F12866   1.734   1.149   4.123 -0.4857  0.1182  0.0374
   9523SM   H6F12867   1.643   1.188   4.174 -0.3599  1.8509 -0.9977
   9523SM   H6G12868   1.820   1.194   4.176  0.5329  1.2282 -2.4207
   9523SM   C7F12869   1.754   0.997   4.125 -0.5952 -0.9978  0.4164
   9523SM   H7F12870   1.854   0.967   4.087 -0.0781  0.8423  0.1948
   9523SM   H7G12871   1.679   0.942   4.066 -2.4154 -0.1503  1.8312
   9523SM   C8F12872   1.764   0.941   4.269 -0.1293  0.3164 -0.0694
   9523SM   H8F12873   1.772   0.831   4.260  2.0734  0.2526  1.7480
   9523SM   H8G12874   1.670   0.956   4.326  0.3822  2.7119  0.2273
   9523SM   C9F12875   1.891   0.973   4.348  0.2254 -0.0600 -0.0122
   9523SM   H9F12876   1.898   1.084   4.343 -4.1152  0.3760 -0.5381
   9523SM   H9G12877   1.973   0.934   4.284  0.3405 -0.6042  0.4615
   9523SM  C10F12878   1.900   0.921   4.488 -0.5478 -0.4557  0.2323
   9523SM  H10F12879   1.876   0.813   4.497  0.1943 -0.5741  0.8833
   9523SM  H10G12880   1.829   0.983   4.546  1.3264  0.9637  1.1180
   9523SM  C11F12881   2.038   0.946   4.555  0.0671  0.5691 -0.1123
   9523SM  H11F12882   2.056   1.056   4.556 -2.7356  1.1015 -0.4269
   9523SM  H11G12883   2.118   0.903   4.492  0.7271  2.0151 -0.2882
   9523SM  C12F12884   2.053   0.880   4.694  0.0939  0.1593 -0.3583
   9523SM  H12F12885   2.072   0.774   4.664 -0.2434 -0.6317  2.0077
   9523SM  H12G12886   1.959   0.889   4.753 -1.3822  2.8768 -2.8667
   9523SM  C13F12887   2.178   0.939   4.775 -0.0579  0.4185 -0.7382
   9523SM  H13F12888   2.166   1.043   4.812 -1.3855 -0.5355  1.7619
   9523SM  H13G12889   2.270   0.940   4.714  0.2450  1.2907 -0.2919
   9523SM  C14F12890   2.218   0.868   4.906 -0.3121  0.2544  0.3401
   9523SM  H14F12891   2.141   0.884   4.984  0.2894 -0.6076  1.1288
   9523SM  H14G12892   2.303   0.927   4.945 -1.6264  3.1507 -0.8765
   9523SM  C15F12893   2.250   0.717   4.894 -0.3746 -0.2632 -0.0423
   9523SM  H15F12894   2.340   0.693   4.834 -0.7697 -0.7005 -0.4767
   9523SM  H15G12895   2.170   0.666   4.835 -1.7055  1.5912  0.0695
   9523SM  C16F12896   2.233   0.647   5.025 -0.7824 -0.2240  0.0185
   9523SM  H16F12897   2.208   0.541   5.003 -0.4105 -0.7004  1.7115
   9523SM  H16G12898   2.140   0.691   5.067 -0.6396 -0.3093  0.4348
   9523SM  C17F12899   2.356   0.650   5.122  0.2827 -0.4252 -0.4375
   9523SM  H17F12900   2.328   0.588   5.209  0.4611 -1.4454 -1.0880
   9523SM  H17G12901   2.371   0.757   5.150 -1.6320 -0.3941  0.6204
   9523SM  C18F12902   2.484   0.591   5.055 -0.0185  0.0443  0.0227
   9523SM  H18F12903   2.537   0.658   4.984  2.0379  0.6737  2.0284
   9523SM  H18G12904   2.461   0.503   4.992  0.4032 -0.8407  1.0777
   9523SM  C19F12905   2.588   0.558   5.160  0.2179  0.1531 -0.3172
   9523SM  H19F12906   2.550   0.483   5.232  1.9315  1.0286  1.5990
   9523SM  H19G12907   2.611   0.646   5.224 -1.8694  0.8535 -0.4524
   9523SM  C20F12908   2.725   0.510   5.107  0.3170  0.1483 -0.1367
   9523SM  H20F12909   2.766   0.603   5.062  0.7629  0.2769  0.5179
   9523SM  H20G12910   2.720   0.426   5.034 -0.1699 -0.9928  1.1667
   9523SM  C21F12911   2.825   0.467   5.224 -0.2555  0.0330  0.2123
   9523SM  H21F12912   2.824   0.357   5.242  0.5882  0.0303  0.2834
   9523SM  H21G12913   2.797   0.523   5.315  2.2295 -0.3604  1.3046
   9523SM  C22F12914   2.973   0.496   5.199 -0.2040 -0.5314 -0.3653
   9523SM  H22F12915   2.974   0.604   5.175 -0.8967 -0.5198 -0.3664
   9523SM  H22G12916   3.015   0.439   5.113  1.2117 -1.5808  0.9551
   9523SM  C23F12917   3.057   0.470   5.323 -0.4389  0.0747 -0.1533
   9523SM  H23F12918   3.023   0.546   5.397  0.7092 -2.9538  3.8319
   9523SM  H23G12919   3.164   0.470   5.295 -0.0275  2.0121  1.2856
   9523SM  H23H12920   3.034   0.371   5.368 -1.0284 -0.4772 -1.5879
   9623SM     N12921   2.601   7.055   2.711  0.1639  0.2592 -0.5243
   9623SM   C1512922   2.681   6.928   2.695 -0.6909 -0.6264  0.0282
   9623SM  H15A12923   2.785   6.957   2.701 -1.3524  2.0410  0.0374
   9623SM  H15B12924   2.658   6.894   2.596  0.9851  0.6792 -0.8533
   9623SM  H15C12925   2.650   6.860   2.773 -0.5236 -1.8203 -0.9374
   9623SM   C1412926   2.638   7.168   2.629  0.2307 -0.3540 -0.1604
   9623SM  H14A12927   2.582   7.257   2.655 -0.7779 -1.2170  0.7713
   9623SM  H14B12928   2.612   7.152   2.525  0.9408 -0.8103 -0.2694
   9623SM  H14C12929   2.738   7.208   2.635  1.0180 -2.0617 -1.1399
   9623SM   C1312930   2.460   7.021   2.682  0.6971  0.7399  0.0957
   9623SM  H13A12931   2.395   7.106   2.692  0.0271  0.2977 -0.3635
   9623SM  H13B12932   2.419   6.937   2.736  0.6622 -1.3681 -2.9711
   9623SM  H13C12933   2.451   6.985   2.580  0.1442 -1.3644  0.8204
   9623SM   C1212934   2.605   7.088   2.857  0.2280 -0.6151 -0.1591
   9623SM  H12A12935   2.698   7.140   2.876 -1.2126  2.0779  0.1268
   9623SM  H12B12936   2.604   7.006   2.926 -0.0381  0.4430  1.1346
   9623SM   C1112937   2.502   7.196   2.911 -0.3048 -0.5460 -0.3151
   9623SM  H11A12938   2.534   7.221   3.015 -0.1281  1.2545 -0.7576
   9623SM  H11B12939   2.403   7.148   2.916 -1.0392  0.7569 -1.5136
   9623SM     P12940   2.586   7.440   2.852 -0.2236  0.0556 -0.1372
   9623SM   O1312941   2.731   7.407   2.829  0.0274  0.1433 -0.2999
   9623SM   O1412942   2.533   7.544   2.760 -0.0742 -0.5625 -0.0452
   9623SM   O1112943   2.563   7.482   3.000 -0.0563 -0.2597 -0.1677
   9623SM   O1212944   2.489   7.315   2.836  0.2590  0.4241  0.0383
   9623SM   C1S12945   2.437   7.487   3.066  0.5481  0.1209  0.1161
   9623SM   H1S12946   2.409   7.386   3.100 -1.4012 -0.0915 -1.9208
   9623SM   H1T12947   2.353   7.530   3.008 -0.8524 -2.2269  0.3104
   9623SM    NF12948   2.340   7.562   3.293  0.2993 -0.0181  0.1268
   9623SM   HNF12949   2.278   7.639   3.308  0.8557  0.6644 -0.9618
   9623SM   C2S12950   2.454   7.581   3.198  0.5089  0.8689 -0.2799
   9623SM   H2S12951   2.552   7.548   3.237  0.5398  1.7237  0.3976
   9623SM   C3S12952   2.480   7.726   3.163 -0.7168  0.6554 -0.2780
   9623SM   H3S12953   2.397   7.767   3.100 -2.3155  0.3784  1.5628
   9623SM    O312954   2.602   7.748   3.089  0.1914  0.3744  0.2675
   9623SM   HO312955   2.636   7.668   3.050 -0.1100 -0.0925  0.9538
   9623SM   C4S12956   2.486   7.806   3.290 -0.2535  0.2730 -0.4293
   9623SM   H4S12957   2.388   7.835   3.328  0.2804 -0.5801  1.6945
   9623SM   C5S12958   2.594   7.822   3.370  0.4662  0.2992  0.3299
   9623SM   H5S12959   2.685   7.774   3.329 -0.4392 -1.5489  0.3502
   9623SM   C6S12960   2.606   7.907   3.492  0.2413  0.1524  0.7185
   9623SM   H6S12961   2.511   7.903   3.550  0.3729  1.0338  1.0106
   9623SM   H6T12962   2.625   8.007   3.448 -0.6495 -0.0759 -0.2106
   9623SM   C7S12963   2.730   7.880   3.582  0.2021  1.0832 -0.1028
   9623SM   H7S12964   2.814   7.910   3.515 -1.3503  1.5318 -1.9539
   9623SM   H7T12965   2.751   7.771   3.589  0.3718  1.1290  0.1057
   9623SM   C8S12966   2.743   7.944   3.716  0.2136  0.3231  0.2400
   9623SM   H8S12967   2.661   7.897   3.774  1.2631 -0.8851  0.8085
   9623SM   H8T12968   2.732   8.053   3.700 -0.1937  0.3014  0.3619
   9623SM   C9S12969   2.881   7.899   3.771 -0.4760 -0.0494 -0.4405
   9623SM   H9S12970   2.968   7.941   3.716  0.9731 -0.8429  1.1708
   9623SM   H9T12971   2.898   7.790   3.757  1.9723  0.2220  0.0143
   9623SM  C10S12972   2.888   7.930   3.921 -0.4907  0.5655 -0.1705
   9623SM  H10S12973   2.853   8.034   3.941 -1.3978 -0.2749  3.4740
   9623SM  H10T12974   2.993   7.916   3.953 -0.6250 -0.7811 -0.2672
   9623SM  C11S12975   2.819   7.830   4.009 -0.9453 -0.7982 -0.2861
   9623SM  H11S12976   2.868   7.731   3.994  0.5740 -0.2427  0.7856
   9623SM  H11T12977   2.711   7.828   3.984 -1.1090  1.1990  0.1100
   9623SM  C12S12978   2.832   7.863   4.163 -0.3202  0.4634 -0.4028
   9623SM  H12S12979   2.786   7.964   4.172  0.5680  0.7958  0.6302
   9623SM  H12T12980   2.935   7.878   4.201 -0.3069 -1.2035  0.3034
   9623SM  C13S12981   2.756   7.763   4.257 -0.5578 -0.3847  0.3930
   9623SM  H13S12982   2.650   7.779   4.228 -0.1683  0.2092 -0.7992
   9623SM  H13T12983   2.782   7.793   4.361 -0.3639  1.3707 -0.1203
   9623SM  C14S12984   2.786   7.613   4.235  0.2873 -0.5088  0.1463
   9623SM  H14S12985   2.893   7.591   4.255  0.1148 -0.4686  1.1957
   9623SM  H14T12986   2.760   7.588   4.130  1.5544 -0.0187 -0.3018
   9623SM  C15S12987   2.694   7.526   4.322  0.1889 -0.4592 -0.6147
   9623SM  H15S12988   2.742   7.425   4.324  2.6949  0.5248 -2.9890
   9623SM  H15T12989   2.599   7.522   4.265  0.6468 -1.3002 -1.3570
   9623SM  C16S12990   2.665   7.564   4.472  0.2149 -0.3245  0.2114
   9623SM  H16S12991   2.593   7.648   4.485  0.3218 -0.5606  3.1065
   9623SM  H16T12992   2.761   7.602   4.513 -0.0105  0.1698  0.2991
   9623SM  C17S12993   2.612   7.439   4.545  0.0070 -0.3163  0.1656
   9623SM  H17S12994   2.676   7.349   4.544  0.0926 -0.2845  1.2020
   9623SM  H17T12995   2.516   7.410   4.498  0.7736  0.1567 -1.7721
   9623SM  C18S12996   2.581   7.471   4.691  0.3193  0.5872  0.1918
   9623SM  H18S12997   2.554   7.375   4.740  1.0425  0.2111 -0.1305
   9623SM  H18T12998   2.502   7.548   4.705  0.4797  0.7474  0.2188
   9623SM  H18U12999   2.674   7.504   4.742  0.3619  1.8505 -0.6575
   9623SM   C1F13000   2.295   7.450   3.347  0.9609 -0.1423 -0.0886
   9623SM    OF13001   2.362   7.351   3.362 -0.0094  0.1527 -0.0169
   9623SM   C2F13002   2.144   7.457   3.390 -0.1251  0.2037 -0.5821
   9623SM   H2F13003   2.085   7.456   3.296  0.5325 -1.6661 -1.0127
   9623SM   H2G13004   2.136   7.554   3.444  1.3857  1.4682 -2.5005
   9623SM   C3F13005   2.093   7.340   3.477 -0.5927 -0.1466 -0.4100
   9623SM   H3F13006   2.109   7.249   3.415  3.2540  0.9406 -1.2648
   9623SM   H3G13007   1.987   7.329   3.507 -0.0900 -0.4169  1.3850
   9623SM   C4F13008   2.163   7.331   3.615  0.4703  0.1937 -1.2086
   9623SM   H4F13009   2.124   7.413   3.680 -0.8472 -1.4312  0.1378
   9623SM   H4G13010   2.274   7.324   3.608  0.5143 -1.5280  0.4524
   9623SM   C5F13011   2.118   7.196   3.687  0.4477 -1.1888  1.3431
   9623SM   H5F13012   2.120   7.110   3.617 -0.6460  0.5518 -0.9793
   9623SM   H5G13013   2.011   7.203   3.719  0.2839 -0.5046  0.6711
   9623SM   C6F13014   2.197   7.166   3.817 -0.4795 -0.4788 -0.0539
   9623SM   H6F13015   2.187   7.244   3.896  1.2204  0.9901 -1.2018
   9623SM   H6G13016   2.303   7.182   3.790 -1.1180 -0.0607 -2.5787
   9623SM   C7F13017   2.167   7.025   3.869  0.0658 -0.4131 -0.7632
   9623SM   H7F13018   2.237   6.996   3.951  0.1994 -0.3508 -0.8554
   9623SM   H7G13019   2.177   6.945   3.793 -1.7548 -1.3982 -0.0290
   9623SM   C8F13020   2.028   7.010   3.935 -1.0987 -0.0138  0.0865
   9623SM   H8F13021   1.950   7.013   3.856  0.0203  0.1620 -1.0420
   9623SM   H8G13022   2.010   7.101   3.996 -3.6269 -0.9607  0.8681
   9623SM   C9F13023   2.012   6.884   4.023  0.4461 -0.6066  0.4314
   9623SM   H9F13024   2.064   6.894   4.120 -0.8820 -1.3476  1.2578
   9623SM   H9G13025   2.035   6.795   3.959 -0.6421  1.0618 -2.4787
   9623SM  C10F13026   1.868   6.865   4.061  0.0941 -0.6763  0.0116
   9623SM  H10F13027   1.797   6.837   3.981 -1.4945 -0.7605  1.4013
   9623SM  H10G13028   1.838   6.968   4.089 -0.3103 -0.4900 -1.0798
   9623SM  C11F13029   1.837   6.791   4.189  0.1988  0.5975 -0.0109
   9623SM  H11F13030   1.738   6.813   4.235  0.5690 -1.5859  1.9915
   9623SM  H11G13031   1.906   6.819   4.272  1.1759  1.1993 -1.0015
   9623SM  C12F13032   1.829   6.636   4.159  0.0073 -0.1295 -0.0605
   9623SM  H12F13033   1.888   6.602   4.071  0.1707 -0.3706  0.1351
   9623SM  H12G13034   1.728   6.597   4.136 -1.0335  3.6609 -2.8471
   9623SM  C13F13035   1.885   6.563   4.282  0.2692 -0.1100 -0.2976
   9623SM  H13F13036   1.991   6.594   4.294  0.9438 -0.9906 -3.1598
   9623SM  H13G13037   1.891   6.453   4.270 -0.1641 -0.1077 -0.5781
   9623SM  C14F13038   1.816   6.600   4.416 -0.1824  0.2407 -0.2390
   9623SM  H14F13039   1.816   6.709   4.436 -1.5364 -0.1374  2.1476
   9623SM  H14G13040   1.871   6.559   4.503  1.5313  1.7611 -0.5473
   9623SM  C15F13041   1.674   6.546   4.424 -0.2895 -0.9067 -0.0938
   9623SM  H15F13042   1.613   6.596   4.346  1.8065  0.0917 -1.1954
   9623SM  H15G13043   1.635   6.595   4.515  1.1499  0.0609  0.0388
   9623SM  C16F13044   1.676   6.391   4.422 -0.0091  0.1900  0.4643
   9623SM  H16F13045   1.719   6.361   4.324 -2.7542  1.2150 -1.1631
   9623SM  H16G13046   1.569   6.363   4.413 -0.6169  2.4931 -0.4448
   9623SM  C17F13047   1.739   6.314   4.537  0.4227 -0.6658  0.2388
   9623SM  H17F13048   1.850   6.322   4.545  0.3529 -0.4694  1.1120
   9623SM  H17G13049   1.728   6.203   4.541  0.0897 -0.6066  1.6334
   9623SM  C18F13050   1.688   6.347   4.675  0.2950 -0.6174 -0.4599
   9623SM  H18F13051   1.704   6.456   4.690  0.4434 -0.3694 -2.2247
   9623SM  H18G13052   1.748   6.300   4.756 -2.1292  0.4583  2.1503
   9623SM  C19F13053   1.536   6.311   4.694 -0.3241 -0.1509  0.1129
   9623SM  H19F13054   1.537   6.200   4.708  0.8186  0.0144  1.6612
   9623SM  H19G13055   1.480   6.349   4.606 -0.0205 -0.1405 -0.0775
   9623SM  C20F13056   1.470   6.379   4.811  0.0991 -0.3332 -0.1749
   9623SM  H20F13057   1.361   6.361   4.807 -0.0436  0.3322  0.4440
   9623SM  H20G13058   1.484   6.489   4.813 -1.6570 -0.0767 -0.3472
   9623SM  C21F13059   1.516   6.314   4.938  0.4334  0.3266  0.8457
   9623SM  H21F13060   1.617   6.355   4.957  0.6890  1.1688 -1.9165
   9623SM  H21G13061   1.519   6.203   4.927  0.4939  0.5108 -1.6586
   9623SM  C22F13062   1.427   6.350   5.060  0.1300  0.9987  0.0142
   9623SM  H22F13063   1.486   6.333   5.153  1.2862  0.7128 -0.7417
   9623SM  H22G13064   1.338   6.285   5.064  0.6191  0.1470 -1.8173
   9623SM  C23F13065   1.367   6.490   5.061 -0.0121 -0.3512  0.7124
   9623SM  H23F13066   1.286   6.490   5.137  0.7536 -1.4040  1.5633
   9623SM  H23G13067   1.331   6.509   4.958  2.9474  1.5126 -0.0908
   9623SM  H23H13068   1.442   6.570   5.079 -0.8337  0.5615  0.2145
   9723SM     N13069   3.411   1.836   2.859  0.0275  0.4628  0.7449
   9723SM   C1513070   3.502   1.931   2.927  0.2345 -0.0608  0.9401
   9723SM  H15A13071   3.603   1.930   2.890 -0.0846 -0.6622  0.0527
   9723SM  H15B13072   3.503   1.917   3.035 -1.5798  0.5201  1.0657
   9723SM  H15C13073   3.474   2.035   2.921  0.0361  0.1280  3.5799
   9723SM   C1413074   3.403   1.882   2.715 -0.0489 -0.1174  0.2588
   9723SM  H14A13075   3.503   1.897   2.675 -0.5279 -0.0620 -0.9669
   9723SM  H14B13076   3.346   1.970   2.691 -1.4470 -0.9511  0.3978
   9723SM  H14C13077   3.349   1.809   2.657 -0.9634 -1.9516  3.2402
   9723SM   C1313078   3.479   1.696   2.859  0.3405 -0.4479  0.9062
   9723SM  H13A13079   3.418   1.627   2.803 -0.4132 -0.0655  1.2358
   9723SM  H13B13080   3.474   1.653   2.958  1.6839 -0.6068  0.9276
   9723SM  H13C13081   3.582   1.707   2.828 -0.3537  1.1205 -1.0074
   9723SM   C1213082   3.270   1.830   2.927 -0.1598  0.2493  0.4220
   9723SM  H12A13083   3.212   1.762   2.867 -1.3256 -1.1394  2.9702
   9723SM  H12B13084   3.216   1.923   2.921  0.8106  0.8908  1.3393
   9723SM   C1113085   3.260   1.760   3.065 -0.1654 -0.0770 -0.0305
   9723SM  H11A13086   3.308   1.660   3.068  0.5242  0.2714  1.9938
   9723SM  H11B13087   3.150   1.757   3.079 -0.1342  1.2544  0.6823
   9723SM     P13088   3.234   1.888   3.290  0.7319 -0.4117  0.1163
   9723SM   O1313089   3.317   1.981   3.370  0.0496  0.1160  0.0362
   9723SM   O1413090   3.100   1.938   3.254  0.9411  0.4852 -0.2175
   9723SM   O1113091   3.202   1.761   3.379 -0.4548  0.0284  0.3428
   9723SM   O1213092   3.321   1.839   3.167 -0.9161 -0.0497 -0.1201
   9723SM   C1S13093   3.304   1.690   3.444  0.2012 -0.2717  0.4471
   9723SM   H1S13094   3.404   1.699   3.396 -0.3138 -1.4891 -0.9213
   9723SM   H1T13095   3.283   1.581   3.441 -1.3209 -0.0150  0.8161
   9723SM    NF13096   3.428   1.661   3.652  0.6318 -0.2452 -0.0509
   9723SM   HNF13097   3.419   1.575   3.703 -1.5824 -0.4996 -0.7360
   9723SM   C2S13098   3.309   1.734   3.593  0.4374 -0.0860 -1.2024
   9723SM   H2S13099   3.317   1.844   3.604  0.1109 -0.2115  0.5571
   9723SM   C3S13100   3.175   1.691   3.659  0.8771  0.0358 -0.7986
   9723SM   H3S13101   3.178   1.580   3.655  0.8680 -0.4474  4.8788
   9723SM    O313102   3.056   1.739   3.590  0.2876 -0.1887 -0.6447
   9723SM   HO313103   3.091   1.767   3.504  0.6589  2.1532  0.1876
   9723SM   C4S13104   3.170   1.720   3.809  0.0061 -0.2842 -0.2561
   9723SM   H4S13105   3.211   1.646   3.879  1.5262  1.7958  1.1641
   9723SM   C5S13106   3.107   1.829   3.856  0.2171 -0.8852 -0.2929
   9723SM   H5S13107   3.055   1.889   3.780 -0.8900 -1.0768  0.2939
   9723SM   C6S13108   3.090   1.868   4.007 -0.0491 -0.3174 -0.2787
   9723SM   H6S13109   2.986   1.895   4.035  0.1825  1.2261 -0.8310
   9723SM   H6T13110   3.147   1.959   4.034 -0.1125 -0.1004 -0.8566
   9723SM   C7S13111   3.119   1.756   4.104 -0.5804  0.0210 -0.3524
   9723SM   H7S13112   3.220   1.710   4.096 -0.5019  0.2684 -0.8663
   9723SM   H7T13113   3.042   1.679   4.082  0.0422 -1.3425  1.8994
   9723SM   C8S13114   3.095   1.785   4.248 -0.2289  0.4539 -0.2197
   9723SM   H8S13115   3.102   1.688   4.301  1.3471  0.2669 -0.7199
   9723SM   H8T13116   2.995   1.834   4.257 -0.2914  1.0807 -3.1596
   9723SM   C9S13117   3.205   1.886   4.298  0.6995 -0.5335  0.3515
   9723SM   H9S13118   3.158   1.986   4.304 -0.3692 -0.9930 -0.0748
   9723SM   H9T13119   3.289   1.889   4.226  1.7093 -1.8793  1.4152
   9723SM  C10S13120   3.264   1.833   4.435 -0.1941 -0.5611 -0.1708
   9723SM  H10S13121   3.357   1.892   4.456 -1.2420  1.2680 -0.4083
   9723SM  H10T13122   3.292   1.726   4.439  1.7838 -0.0635  1.2594
   9723SM  C11S13123   3.154   1.853   4.543 -0.7055  0.0813 -0.1288
   9723SM  H11S13124   3.090   1.762   4.543  1.2938 -1.4581 -2.3649
   9723SM  H11T13125   3.089   1.938   4.515  0.3719  0.4248 -1.7267
   9723SM  C12S13126   3.216   1.886   4.680  0.3082 -0.5115  0.5829
   9723SM  H12S13127   3.135   1.941   4.731 -2.1564  0.9503 -4.2299
   9723SM  H12T13128   3.306   1.950   4.668 -1.5277  3.0221  3.6533
   9723SM  C13S13129   3.253   1.758   4.755 -0.8164  0.3146 -0.0278
   9723SM  H13S13130   3.327   1.702   4.693  0.7489 -0.6542  2.5309
   9723SM  H13T13131   3.164   1.693   4.749 -0.0784 -0.6289 -1.3153
   9723SM  C14S13132   3.310   1.775   4.895  1.0029 -0.4463 -0.0008
   9723SM  H14S13133   3.405   1.832   4.895  0.8200 -0.1201  0.8423
   9723SM  H14T13134   3.327   1.671   4.931  0.7147 -0.1781  0.9519
   9723SM  C15S13135   3.216   1.851   4.990 -0.1942 -0.0221  0.4653
   9723SM  H15S13136   3.120   1.800   5.013 -1.0493  1.4551  0.3532
   9723SM  H15T13137   3.188   1.944   4.935 -1.0665 -1.0402 -0.8841
   9723SM  C16S13138   3.282   1.884   5.122  0.3476 -0.7144  0.3584
   9723SM  H16S13139   3.381   1.931   5.103  0.9449 -2.5241 -1.3383
   9723SM  H16T13140   3.303   1.787   5.172  3.2124 -0.3311  0.0803
   9723SM  C17S13141   3.186   1.979   5.196  0.3454 -0.1958  0.5051
   9723SM  H17S13142   3.089   1.928   5.178  1.4516 -2.0122 -0.7531
   9723SM  H17T13143   3.181   2.078   5.147 -2.8689 -0.3193  0.3683
   9723SM  C18S13144   3.232   1.995   5.343 -0.2539  0.2161  0.5970
   9723SM  H18S13145   3.228   1.895   5.391 -0.5623 -0.0716 -0.0202
   9723SM  H18T13146   3.169   2.061   5.406 -0.3460  0.0447  0.6841
   9723SM  H18U13147   3.335   2.035   5.346 -1.1041  2.5691  0.4050
   9723SM   C1F13148   3.546   1.720   3.644 -0.4500  0.3701  0.1565
   9723SM    OF13149   3.556   1.841   3.620  0.7267 -0.0414 -0.2748
   9723SM   C2F13150   3.672   1.641   3.673  0.2046  0.4847  0.1150
   9723SM   H2F13151   3.760   1.708   3.671  1.0574 -0.6180 -0.0975
   9723SM   H2G13152   3.682   1.568   3.590 -0.1571  0.5847 -0.0178
   9723SM   C3F13153   3.671   1.560   3.807 -0.1678  0.0303  0.3752
   9723SM   H3F13154   3.774   1.520   3.816  0.7715  2.1971 -0.2238
   9723SM   H3G13155   3.594   1.482   3.788 -0.1886  0.4073 -1.2264
   9723SM   C4F13156   3.637   1.634   3.936  0.0922 -0.3945  0.3243
   9723SM   H4F13157   3.549   1.693   3.901  1.6570  1.4694 -0.6268
   9723SM   H4G13158   3.718   1.705   3.962 -0.3141 -0.7024  2.6642
   9723SM   C5F13159   3.613   1.543   4.054  0.0320  0.6803  0.4307
   9723SM   H5F13160   3.712   1.502   4.085  1.2379  1.1419 -2.4998
   9723SM   H5G13161   3.561   1.448   4.034 -0.1395  0.3869  2.1314
   9723SM   C6F13162   3.529   1.610   4.167  0.5676  0.0853  0.2785
   9723SM   H6F13163   3.428   1.632   4.126  0.3685  2.6347  1.9076
   9723SM   H6G13164   3.565   1.713   4.193 -4.3274  2.2213 -0.3899
   9723SM   C7F13165   3.517   1.544   4.301 -0.0028 -0.1368 -0.7399
   9723SM   H7F13166   3.478   1.440   4.286 -1.7233  0.2575  0.5960
   9723SM   H7G13167   3.448   1.613   4.354  1.9527  1.0413  0.3801
   9723SM   C8F13168   3.657   1.536   4.381 -0.4374  0.3060 -0.5156
   9723SM   H8F13169   3.710   1.633   4.364  0.5995 -0.2148 -0.3541
   9723SM   H8G13170   3.724   1.458   4.341 -0.8083 -0.4884  0.3776
   9723SM   C9F13171   3.628   1.518   4.533  0.0847  0.7422  0.0407
   9723SM   H9F13172   3.561   1.429   4.532  2.7562 -1.3910  0.6676
   9723SM   H9G13173   3.568   1.605   4.566 -0.5641  0.4513 -0.3406
   9723SM  C10F13174   3.746   1.517   4.630  0.3362 -0.6088 -0.3504
   9723SM  H10F13175   3.792   1.615   4.605  1.0389 -0.7073  0.5320
   9723SM  H10G13176   3.815   1.433   4.608  1.8335  1.0816 -2.6402
   9723SM  C11F13177   3.713   1.518   4.777  0.0923  0.2598 -0.3618
   9723SM  H11F13178   3.665   1.419   4.792  0.5563  0.1715  0.6617
   9723SM  H11G13179   3.617   1.573   4.789 -0.6784 -1.3352  1.2652
   9723SM  C12F13180   3.819   1.541   4.889 -0.8300  0.1515  0.6089
   9723SM  H12F13181   3.834   1.651   4.887  0.5480 -0.0070  1.0105
   9723SM  H12G13182   3.922   1.505   4.867  0.2257  1.7680  2.5483
   9723SM  C13F13183   3.799   1.473   5.022 -0.0850  0.3549  0.7598
   9723SM  H13F13184   3.898   1.473   5.073  0.1347  0.2479  0.3407
   9723SM  H13G13185   3.746   1.379   4.997 -3.3651  2.0520  0.7846
   9723SM  C14F13186   3.711   1.555   5.111 -0.1847  0.6282 -0.0326
   9723SM  H14F13187   3.620   1.589   5.056  2.4115  0.5339 -5.0154
   9723SM  H14G13188   3.761   1.650   5.137 -0.6620  0.6964  0.6580
   9723SM  C15F13189   3.688   1.491   5.244 -0.0750 -0.3161 -0.2116
   9723SM  H15F13190   3.784   1.473   5.297  0.2178 -0.3828 -0.7589
   9723SM  H15G13191   3.644   1.391   5.226  1.1923 -1.5069  2.7220
   9723SM  C16F13192   3.603   1.581   5.330  0.3472 -0.3338  0.0979
   9723SM  H16F13193   3.510   1.599   5.272  1.1341 -0.2945 -1.2061
   9723SM  H16G13194   3.644   1.683   5.344 -1.0344  0.5044 -1.5978
   9723SM  C17F13195   3.569   1.529   5.466 -0.3446  0.3787 -1.1455
   9723SM  H17F13196   3.535   1.424   5.450  0.8521 -0.1051 -0.6478
   9723SM  H17G13197   3.485   1.584   5.514  1.2403 -0.0674  2.4884
   9723SM  C18F13198   3.688   1.537   5.565  0.5421  0.0118  0.9679
   9723SM  H18F13199   3.717   1.644   5.565 -2.2206  0.8432  0.6145
   9723SM  H18G13200   3.766   1.467   5.528 -1.1347 -0.7300 -1.3560
   9723SM  C19F13201   3.643   1.511   5.709 -0.2871  0.2030  0.5291
   9723SM  H19F13202   3.615   1.405   5.726  0.8493  0.0201  1.3934
   9723SM  H19G13203   3.546   1.559   5.732 -0.0446  0.7057  0.5240
   9723SM  C20F13204   3.756   1.546   5.801  0.9402 -1.1777 -0.2536
   9723SM  H20F13205   3.721   1.583   5.899 -0.9196 -0.0219 -1.3079
   9723SM  H20G13206   3.797   1.636   5.749  0.5324 -1.0127 -0.2926
   9723SM  C21F13207   3.872   1.447   5.799  0.2783  0.6203  0.7501
   9723SM  H21F13208   3.901   1.417   5.696 -1.1727  2.2352 -0.1908
   9723SM  H21G13209   3.833   1.355   5.847  0.8813 -0.2113 -0.3129
   9723SM  C22F13210   4.000   1.492   5.879  0.4063  0.1755 -0.0018
   9723SM  H22F13211   4.035   1.597   5.864 -1.3341  0.8421  0.3756
   9723SM  H22G13212   4.084   1.420   5.867  0.7100  0.6751 -0.9627
   9723SM  C23F13213   3.979   1.491   6.036  0.7473 -0.1583  0.2081
   9723SM  H23F13214   3.914   1.565   6.087  0.9758  0.2920 -0.1502
   9723SM  H23G13215   4.077   1.502   6.086  1.2334  0.1314 -0.7980
   9723SM  H23H13216   3.946   1.388   6.062 -0.0304 -0.5944 -2.2019
   9823SM     N13217   7.276   1.641   3.038  0.6166  0.5121 -0.1104
   9823SM   C1513218   7.200   1.629   2.907 -0.1820 -0.1216  0.1925
   9823SM  H15A13219   7.162   1.528   2.903 -0.1858 -0.0859 -0.7165
   9823SM  H15B13220   7.256   1.656   2.819 -0.9126  0.7658 -0.0154
   9823SM  H15C13221   7.113   1.693   2.912 -0.2898  0.0587 -2.7290
   9823SM   C1413222   7.390   1.545   3.028  0.3129  0.6168 -0.5554
   9823SM  H14A13223   7.345   1.447   3.037 -0.1871  0.7199 -1.8312
   9823SM  H14B13224   7.453   1.567   3.113 -2.3208  1.2601  1.3423
   9823SM  H14C13225   7.447   1.563   2.938 -0.6458  2.5420 -0.8199
   9823SM   C1313226   7.328   1.777   3.038  0.4972 -0.3797 -0.0753
   9823SM  H13A13227   7.399   1.798   2.959  0.4497  0.0228 -0.0161
   9823SM  H13B13228   7.383   1.803   3.127  0.6945  0.5723 -0.4627
   9823SM  H13C13229   7.245   1.847   3.031 -0.8244 -1.8421  0.4825
   9823SM   C1213230   7.188   1.616   3.153 -0.6191  0.6737  0.0311
   9823SM  H12A13231   7.129   1.698   3.192 -1.4720  0.1934 -0.2266
   9823SM  H12B13232   7.259   1.597   3.232  1.5174 -0.5463 -2.0727
   9823SM   C1113233   7.098   1.487   3.151  0.0804  0.4125 -0.2901
   9823SM  H11A13234   7.036   1.494   3.060  0.1127  4.0219 -0.1481
   9823SM  H11B13235   7.030   1.480   3.239  0.2288 -1.6250 -0.2743
   9823SM     P13236   7.109   1.230   3.186 -0.1257 -0.5568 -0.0576
   9823SM   O1313237   6.965   1.241   3.211  0.1691 -0.3338 -0.5676
   9823SM   O1413238   7.146   1.118   3.098  0.3211  0.0249  0.6848
   9823SM   O1113239   7.185   1.203   3.319 -0.3626  0.3604  0.1634
   9823SM   O1213240   7.182   1.366   3.147  0.2418  0.3198  0.2220
   9823SM   C1S13241   7.318   1.247   3.349 -0.3612  0.2770 -0.3703
   9823SM   H1S13242   7.329   1.357   3.335  3.0193  0.0905  0.0641
   9823SM   H1T13243   7.389   1.202   3.277  0.0518 -2.5244  1.6362
   9823SM    NF13244   7.473   1.278   3.530  0.2584  0.2673 -0.3062
   9823SM   HNF13245   7.566   1.245   3.512 -0.3619 -0.6429 -1.9549
   9823SM   C2S13246   7.356   1.203   3.494 -0.6079 -1.0576 -0.7098
   9823SM   H2S13247   7.279   1.246   3.562 -0.0836  2.2864 -2.0047
   9823SM   C3S13248   7.373   1.050   3.502  0.2971  0.1763 -0.0967
   9823SM   H3S13249   7.469   1.029   3.451 -0.0386  1.3325 -1.2655
   9823SM    O313250   7.284   0.964   3.436 -0.3484  0.6861 -0.3010
   9823SM   HO313251   7.228   1.031   3.395  1.6163  2.2572 -0.5651
   9823SM   C4S13252   7.389   1.012   3.648 -0.8131 -0.0037 -0.1434
   9823SM   H4S13253   7.494   0.994   3.675 -0.8458 -0.8150 -0.5378
   9823SM   C5S13254   7.298   0.988   3.742  0.2238  0.5921 -0.0689
   9823SM   H5S13255   7.191   0.995   3.721 -0.1704 -3.3303 -0.0318
   9823SM   C6S13256   7.334   0.948   3.883  0.5125  0.1507 -0.4233
   9823SM   H6S13257   7.433   0.899   3.884  0.6086  0.3498  0.0349
   9823SM   H6T13258   7.268   0.860   3.901  3.0887 -1.3277  2.5644
   9823SM   C7S13259   7.321   1.058   3.986  0.4198 -0.1816  0.3695
   9823SM   H7S13260   7.219   1.096   4.005  0.4896  0.7957 -1.0788
   9823SM   H7T13261   7.390   1.143   3.965 -2.4057  2.3024  0.5785
   9823SM   C8S13262   7.380   1.004   4.120 -0.1583 -1.0585 -0.4279
   9823SM   H8S13263   7.484   0.970   4.104  0.3994  0.5571 -0.3371
   9823SM   H8T13264   7.323   0.913   4.152 -0.9899 -0.2009  0.6308
   9823SM   C9S13265   7.376   1.109   4.227 -0.2223  0.0744 -0.6767
   9823SM   H9S13266   7.274   1.104   4.269  0.5304 -3.9910  1.1163
   9823SM   H9T13267   7.397   1.209   4.184 -0.8538  0.5631  0.1332
   9823SM  C10S13268   7.460   1.076   4.353 -0.0043  0.0760  0.1556
   9823SM  H10S13269   7.417   1.140   4.434 -1.1307 -0.3640 -0.0758
   9823SM  H10T13270   7.565   1.104   4.328  0.4208 -0.3792  1.3938
   9823SM  C11S13271   7.459   0.930   4.391 -0.4275 -0.7429 -0.8361
   9823SM  H11S13272   7.529   0.878   4.322 -1.0179 -1.2327 -1.0797
   9823SM  H11T13273   7.355   0.895   4.372 -0.0233 -3.0392  0.8117
   9823SM  C12S13274   7.495   0.905   4.539  0.3820 -0.3498  0.5368
   9823SM  H12S13275   7.511   0.796   4.551  1.6088 -0.0961  1.4086
   9823SM  H12T13276   7.404   0.927   4.597 -0.4871  1.6766 -1.4303
   9823SM  C13S13277   7.617   0.980   4.592 -0.0798 -0.5366  0.1079
   9823SM  H13S13278   7.626   1.083   4.553  0.2634 -0.2099  1.0137
   9823SM  H13T13279   7.708   0.921   4.569 -0.3711 -1.2529  0.7235
   9823SM  C14S13280   7.601   1.001   4.744  0.5005  0.3705  0.2735
   9823SM  H14S13281   7.584   0.904   4.795  1.0813 -0.4753 -1.0864
   9823SM  H14T13282   7.515   1.070   4.755  1.1942  1.2483  0.2970
   9823SM  C15S13283   7.718   1.081   4.807 -0.0132 -0.0512  0.3664
   9823SM  H15S13284   7.804   1.011   4.799 -1.4931 -1.7936 -1.0292
   9823SM  H15T13285   7.697   1.095   4.915  0.1948 -0.4413  0.4603
   9823SM  C16S13286   7.764   1.216   4.743  0.0172 -0.7815  0.4232
   9823SM  H16S13287   7.685   1.291   4.763 -2.5596 -2.9690 -0.8190
   9823SM  H16T13288   7.789   1.209   4.634 -0.0978  1.3717  0.2150
   9823SM  C17S13289   7.891   1.269   4.795 -0.0366  0.1592 -0.7746
   9823SM  H17S13290   7.927   1.359   4.740  1.1872 -0.6126 -1.2785
   9823SM  H17T13291   7.979   1.205   4.775  0.0584  0.3772 -1.0612
   9823SM  C18S13292   7.899   1.295   4.949  0.7443 -0.2542 -0.9249
   9823SM  H18S13293   7.992   1.349   4.981 -0.8358  1.4170  1.1465
   9823SM  H18T13294   7.893   1.201   5.007 -3.8828 -1.6144 -3.1865
   9823SM  H18U13295   7.819   1.364   4.983  0.9304 -0.8677  0.8614
   9823SM   C1F13296   7.467   1.405   3.564  0.2221 -0.4625 -0.0137
   9823SM    OF13297   7.360   1.467   3.561  0.1392  0.1790  0.1088
   9823SM   C2F13298   7.596   1.464   3.613  0.5242 -0.1125 -0.2083
   9823SM   H2F13299   7.630   1.535   3.535  1.6908  1.1127  1.3491
   9823SM   H2G13300   7.670   1.387   3.642  0.5199  0.5427  1.6681
   9823SM   C3F13301   7.584   1.540   3.745  0.2922  0.1263 -0.1914
   9823SM   H3F13302   7.511   1.624   3.740  0.4417  0.3721  1.2967
   9823SM   H3G13303   7.681   1.591   3.766  0.0618  0.4918  0.0116
   9823SM   C4F13304   7.550   1.453   3.866 -0.0632  0.4156 -0.2313
   9823SM   H4F13305   7.634   1.380   3.876  0.6096  0.9378 -1.7196
   9823SM   H4G13306   7.457   1.395   3.848 -1.2731  1.9178  0.9010
   9823SM   C5F13307   7.533   1.538   3.989 -0.0949  0.6191 -0.4856
   9823SM   H5F13308   7.433   1.587   3.984 -0.6973 -0.6085 -0.9399
   9823SM   H5G13309   7.600   1.625   4.004 -2.1127  2.2402 -0.2726
   9823SM   C6F13310   7.523   1.467   4.125  0.0689  0.2265  0.1681
   9823SM   H6F13311   7.620   1.417   4.147  0.8586  1.4732 -0.3963
   9823SM   H6G13312   7.441   1.393   4.127  2.0043 -2.2742 -2.8993
   9823SM   C7F13313   7.503   1.559   4.239 -0.6410 -0.0945 -0.4905
   9823SM   H7F13314   7.407   1.614   4.230  0.5396  1.9268 -1.5649
   9823SM   H7G13315   7.589   1.630   4.241 -1.6672  1.3246  4.1001
   9823SM   C8F13316   7.510   1.490   4.375  0.3532  0.1238 -0.3820
   9823SM   H8F13317   7.587   1.412   4.358  1.0759  0.3525  1.6109
   9823SM   H8G13318   7.412   1.441   4.391  0.6932 -0.2973  0.4732
   9823SM   C9F13319   7.543   1.577   4.492  0.5921 -0.6992  0.3468
   9823SM   H9F13320   7.468   1.659   4.494  0.5302 -0.7709  1.0606
   9823SM   H9G13321   7.646   1.619   4.481  0.3193 -0.4054 -1.2655
   9823SM  C10F13322   7.517   1.499   4.620  0.8512 -0.0374 -0.2012
   9823SM  H10F13323   7.583   1.412   4.604  0.9524 -0.2131  1.0770
   9823SM  H10G13324   7.412   1.461   4.619  0.4382  1.0598  0.0458
   9823SM  C11F13325   7.536   1.576   4.756  0.5738 -0.2789  0.0533
   9823SM  H11F13326   7.500   1.514   4.841  3.5321  2.0967  3.3390
   9823SM  H11G13327   7.490   1.677   4.756  0.9636 -0.0875 -1.3436
   9823SM  C12F13328   7.682   1.605   4.792 -0.6637  0.5565  0.2149
   9823SM  H12F13329   7.707   1.686   4.721  0.0121 -1.5426 -2.0944
   9823SM  H12G13330   7.751   1.524   4.759 -0.2290  1.0723 -0.1509
   9823SM  C13F13331   7.700   1.627   4.941  0.2328 -0.6055  0.7311
   9823SM  H13F13332   7.689   1.531   4.996 -1.4437 -1.8100 -1.5523
   9823SM  H13G13333   7.623   1.698   4.977 -0.5774 -1.8576  1.5857
   9823SM  C14F13334   7.844   1.667   4.971  0.1245  0.8624  0.3877
   9823SM  H14F13335   7.873   1.749   4.901  1.2998  0.4358  0.3620
   9823SM  H14G13336   7.913   1.586   4.939 -0.7419  0.4423 -0.4658
   9823SM  C15F13337   7.864   1.709   5.122  0.1224  0.2930  0.0426
   9823SM  H15F13338   7.828   1.622   5.181 -0.5309 -0.3599 -1.2883
   9823SM  H15G13339   7.783   1.783   5.138  0.2873  0.5216 -0.1741
   9823SM  C16F13340   8.000   1.752   5.157 -0.2042  0.1947 -0.1250
   9823SM  H16F13341   7.994   1.811   5.251  1.5209  1.7859 -0.9496
   9823SM  H16G13342   8.038   1.813   5.073 -0.1342  0.4881  0.1200
   9823SM  C17F13343   8.103   1.643   5.187  0.0118 -0.0111  0.7819
   9823SM  H17F13344   8.123   1.574   5.103 -3.4418 -1.4787  0.9957
   9823SM  H17G13345   8.074   1.584   5.277 -0.0504 -1.9120 -0.4292
   9823SM  C18F13346   8.241   1.711   5.225 -0.0450  0.1202  0.6161
   9823SM  H18F13347   8.239   1.768   5.320  0.8292 -1.2550  1.5110
   9823SM  H18G13348   8.259   1.769   5.132 -0.0107 -0.4842  0.2381
   9823SM  C19F13349   8.357   1.612   5.231  0.2412  0.1708 -0.9398
   9823SM  H19F13350   8.379   1.566   5.132  2.7339 -0.0376 -0.3364
   9823SM  H19G13351   8.326   1.534   5.304 -2.8285  3.0032  1.1288
   9823SM  C20F13352   8.480   1.674   5.302 -0.0884 -0.5695  0.8380
   9823SM  H20F13353   8.446   1.708   5.403 -0.0419  2.6359 -0.0990
   9823SM  H20G13354   8.507   1.765   5.244  1.4434 -1.0349  0.7959
   9823SM  C21F13355   8.599   1.577   5.305 -0.5205  0.6888  0.0779
   9823SM  H21F13356   8.692   1.628   5.338  0.1645  0.4447 -1.3974
   9823SM  H21G13357   8.621   1.531   5.206 -2.9234 -0.2909 -0.0750
   9823SM  C22F13358   8.576   1.456   5.392 -0.5198 -0.1093  0.3986
   9823SM  H22F13359   8.670   1.403   5.417 -0.9774 -1.0147  0.2538
   9823SM  H22G13360   8.522   1.378   5.333  0.0778 -0.2128 -0.0284
   9823SM  C23F13361   8.520   1.493   5.532  0.4475 -0.2874 -0.3725
   9823SM  H23F13362   8.588   1.569   5.577  1.8193 -0.8889 -1.3742
   9823SM  H23G13363   8.512   1.410   5.605 -1.6956 -0.2520 -0.5086
   9823SM  H23H13364   8.419   1.537   5.515  0.2499 -0.5401  0.1314
   9923SM     N13365   0.202   6.637   2.942 -0.0203  0.5152 -1.4681
   9923SM   C1513366   0.242   6.777   2.915 -0.2387 -0.1411 -0.2124
   9923SM  H15A13367   0.259   6.788   2.809  0.1479  0.1952 -0.1213
   9923SM  H15B13368   0.333   6.791   2.971 -0.2814 -1.1974  0.1436
   9923SM  H15C13369   0.171   6.849   2.954 -0.9921 -1.4303  0.8667
   9923SM   C1413370   0.141   6.630   3.076  0.4149 -0.3096 -0.5971
   9923SM  H14A13371   0.204   6.646   3.162  0.5788 -1.6844 -0.4386
   9923SM  H14B13372   0.103   6.530   3.094 -0.0363 -0.4371 -2.1294
   9923SM  H14C13373   0.058   6.699   3.076 -0.1995 -0.9829 -2.1159
   9923SM   C1313374   0.104   6.588   2.845  0.2741  0.1486 -0.6873
   9923SM  H13A13375   0.017   6.651   2.853 -0.5687 -1.1327  0.7927
   9923SM  H13B13376   0.069   6.486   2.851 -0.0020  0.3024  0.6954
   9923SM  H13C13377   0.146   6.595   2.746  0.9806 -0.3670 -0.4292
   9923SM   C1213378   0.342   6.564   2.939  0.3262  0.6053  1.1875
   9923SM  H12A13379   0.393   6.567   2.843 -0.1655 -1.8179  0.7772
   9923SM  H12B13380   0.336   6.458   2.958 -0.1311  0.3476 -0.2101
   9923SM   C1113381   0.452   6.614   3.029 -0.6504 -0.7175 -0.0139
   9923SM  H11A13382   0.518   6.525   3.039  0.6542  0.2455  0.3294
   9923SM  H11B13383   0.406   6.641   3.127 -3.2181 -1.5796 -0.9162
   9923SM     P13384   0.627   6.720   2.865  0.0124  0.5882 -0.0229
   9923SM   O1313385   0.590   6.605   2.776  0.6923 -0.7142 -0.3535
   9923SM   O1413386   0.662   6.853   2.804  0.0637 -0.4189  0.5426
   9923SM   O1113387   0.747   6.681   2.958  0.4219 -0.7727  0.2605
   9923SM   O1213388   0.517   6.729   2.973  0.2838 -0.3966  0.3840
   9923SM   C1S13389   0.819   6.792   3.021  0.2886  0.2859 -0.2951
   9923SM   H1S13390   0.750   6.877   3.042 -1.2873 -0.6320 -1.5590
   9923SM   H1T13391   0.896   6.822   2.946  2.1539 -3.4553 -0.0946
   9923SM    NF13392   0.929   6.886   3.221  0.8241  0.3128  0.4474
   9923SM   HNF13393   1.026   6.904   3.208  1.0629 -2.5102 -3.6079
   9923SM   C2S13394   0.886   6.762   3.163 -0.2299  0.8509  0.2367
   9923SM   H2S13395   0.808   6.711   3.223 -0.6661 -1.4418 -2.1168
   9923SM   C3S13396   0.999   6.658   3.130  0.1920 -0.2897 -0.3739
   9923SM   H3S13397   1.080   6.719   3.083  0.8874 -2.1379 -1.7048
   9923SM    O313398   0.969   6.557   3.033  0.1333  0.1465  0.2413
   9923SM   HO313399   0.889   6.593   2.993 -1.3375 -1.8953  1.1748
   9923SM   C4S13400   1.065   6.614   3.263 -0.1452  0.5752 -0.1111
   9923SM   H4S13401   1.143   6.683   3.297 -0.2958  1.1037 -0.8060
   9923SM   C5S13402   1.036   6.503   3.332  0.2890 -0.1511 -0.1492
   9923SM   H5S13403   0.986   6.414   3.292 -1.7903  0.3800  1.0654
   9923SM   C6S13404   1.086   6.467   3.472 -0.3011  0.3776 -0.2799
   9923SM   H6S13405   1.140   6.370   3.465 -0.4875  0.1331  1.3887
   9923SM   H6T13406   1.005   6.448   3.544 -0.6365  2.4350 -0.0381
   9923SM   C7S13407   1.175   6.576   3.537  0.2689  0.2082  0.6164
   9923SM   H7S13408   1.146   6.683   3.533 -1.6301 -0.2408  1.2984
   9923SM   H7T13409   1.270   6.557   3.483 -1.1597 -2.1495 -1.2937
   9923SM   C8S13410   1.213   6.553   3.681  0.2539  0.3339  0.0336
   9923SM   H8S13411   1.301   6.612   3.715 -0.4939  0.9042  1.0316
   9923SM   H8T13412   1.248   6.447   3.685  2.9741  1.0608 -1.5820
   9923SM   C9S13413   1.097   6.581   3.774  0.3064 -0.3110  0.3239
   9923SM   H9S13414   1.003   6.544   3.726 -0.6178 -0.1062  1.9222
   9923SM   H9T13415   1.098   6.692   3.775  3.0351 -0.1827 -2.2545
   9923SM  C10S13416   1.110   6.502   3.905 -0.1499  0.4464 -0.3019
   9923SM  H10S13417   1.085   6.395   3.894  0.5651  0.0540  1.5354
   9923SM  H10T13418   1.027   6.536   3.971 -0.9187 -0.5645 -0.7153
   9923SM  C11S13419   1.251   6.500   3.967  0.2583 -0.2680 -0.0443
   9923SM  H11S13420   1.300   6.599   3.955  2.0932 -0.6157  3.3303
   9923SM  H11T13421   1.313   6.430   3.907 -0.7591 -2.2629  1.1360
   9923SM  C12S13422   1.260   6.466   4.118 -1.2956 -0.4252 -0.5116
   9923SM  H12S13423   1.210   6.544   4.179  0.2549 -0.3085  0.6530
   9923SM  H12T13424   1.364   6.499   4.138 -1.9303  1.5206 -0.2170
   9923SM  C13S13425   1.240   6.319   4.168 -0.7561 -0.2898  0.5246
   9923SM  H13S13426   1.295   6.248   4.102 -0.5924 -0.0982  0.4536
   9923SM  H13T13427   1.135   6.284   4.179  0.0183 -2.8014  0.6138
   9923SM  C14S13428   1.309   6.290   4.305  0.2356  0.6938  0.3480
   9923SM  H14S13429   1.272   6.357   4.386 -1.7637  2.5737 -1.9556
   9923SM  H14T13430   1.415   6.320   4.290  0.5128  1.0793  2.6412
   9923SM  C15S13431   1.304   6.143   4.346  1.2280  0.0683  0.4046
   9923SM  H15S13432   1.340   6.086   4.259  0.2404  1.2617 -0.8254
   9923SM  H15T13433   1.196   6.119   4.352  0.8038  1.7694  0.2615
   9923SM  C16S13434   1.373   6.098   4.469 -0.0151 -0.8079  0.3733
   9923SM  H16S13435   1.330   6.166   4.546  0.0520  0.5507 -0.7548
   9923SM  H16T13436   1.482   6.112   4.452  0.3938 -1.2128  2.3612
   9923SM  C17S13437   1.357   5.955   4.515 -0.3380 -0.2148 -0.3226
   9923SM  H17S13438   1.434   5.899   4.459 -0.7378 -1.2983  0.1762
   9923SM  H17T13439   1.250   5.941   4.486 -0.7258  0.6160  0.6451
   9923SM  C18S13440   1.385   5.939   4.664 -0.2572  0.2277  0.2125
   9923SM  H18S13441   1.357   5.836   4.694 -2.0293  0.6120  0.0033
   9923SM  H18T13442   1.331   6.006   4.734 -0.7830 -0.7170  0.7251
   9923SM  H18U13443   1.493   5.944   4.688 -0.2786 -4.4506  2.3478
   9923SM   C1F13444   0.841   6.983   3.268  0.5003 -0.2938  0.1183
   9923SM    OF13445   0.719   6.970   3.254 -0.0212  0.5515 -0.4363
   9923SM   C2F13446   0.893   7.120   3.317 -0.6953 -0.3688 -0.2223
   9923SM   H2F13447   0.913   7.187   3.231  0.6565 -0.8835 -0.3328
   9923SM   H2G13448   0.990   7.108   3.370 -0.1733 -1.2006 -1.3173
   9923SM   C3F13449   0.786   7.202   3.405  0.1136 -0.1142  1.8844
   9923SM   H3F13450   0.695   7.190   3.342  0.4201 -0.3574  1.4887
   9923SM   H3G13451   0.820   7.307   3.394 -1.8669  0.6073  2.1744
   9923SM   C4F13452   0.762   7.165   3.552  0.0678  0.7329  0.4525
   9923SM   H4F13453   0.857   7.144   3.605  0.9151  1.1163 -0.8775
   9923SM   H4G13454   0.703   7.071   3.558  1.7064 -0.4346 -0.8640
   9923SM   C5F13455   0.704   7.288   3.616  0.3038 -0.2443  0.0420
   9923SM   H5F13456   0.595   7.304   3.597  0.5308  0.5046 -0.6296
   9923SM   H5G13457   0.756   7.378   3.579  0.7708 -1.4383 -2.4166
   9923SM   C6F13458   0.713   7.282   3.768 -0.1520 -0.3777 -0.4370
   9923SM   H6F13459   0.720   7.388   3.799 -0.3679  0.5857 -3.4032
   9923SM   H6G13460   0.800   7.219   3.795 -1.6204 -3.1627 -1.7919
   9923SM   C7F13461   0.590   7.212   3.834 -0.0079 -0.3220 -0.2113
   9923SM   H7F13462   0.577   7.118   3.776  2.1889  0.2884 -1.8259
   9923SM   H7G13463   0.497   7.272   3.831  0.2947  0.0944 -2.0527
   9923SM   C8F13464   0.616   7.184   3.985 -0.2086 -0.2271 -0.7058
   9923SM   H8F13465   0.649   7.278   4.034 -2.0211 -0.2108  0.5946
   9923SM   H8G13466   0.708   7.120   3.987 -0.2721 -0.3756  2.5124
   9923SM   C9F13467   0.499   7.120   4.059 -0.0143 -0.3105  0.2161
   9923SM   H9F13468   0.489   7.012   4.032 -2.5431 -0.7651  2.5176
   9923SM   H9G13469   0.406   7.167   4.021 -0.0755  0.5917  1.4177
   9923SM  C10F13470   0.508   7.138   4.216  0.1866 -0.3009 -0.0258
   9923SM  H10F13471   0.517   7.246   4.242 -0.3421 -0.1728 -0.3701
   9923SM  H10G13472   0.614   7.113   4.240  0.7073  2.7203  1.3237
   9923SM  C11F13473   0.407   7.060   4.296  0.4212 -0.1524  0.1988
   9923SM  H11F13474   0.445   7.035   4.397 -1.2539  3.6697  1.9797
   9923SM  H11G13475   0.384   6.964   4.246  1.8317  0.1167 -1.0687
   9923SM  C12F13476   0.272   7.136   4.315  0.7877 -0.3328  0.8285
   9923SM  H12F13477   0.197   7.056   4.337  0.3045 -0.1602 -0.1343
   9923SM  H12G13478   0.238   7.176   4.217  0.7340 -0.6920  0.6990
   9923SM  C13F13479   0.274   7.243   4.425  0.4606  0.3277  0.5859
   9923SM  H13F13480   0.324   7.334   4.387 -1.2924  0.8054 -0.7363
   9923SM  H13G13481   0.332   7.195   4.507  1.7859  1.5868  0.4182
   9923SM  C14F13482   0.131   7.289   4.470 -0.1935  0.3483  0.4308
   9923SM  H14F13483   0.066   7.295   4.380  1.6215  1.5739 -0.8751
   9923SM  H14G13484   0.145   7.391   4.511  1.3530 -0.9933  3.6192
   9923SM  C15F13485   0.066   7.192   4.574 -0.6610 -0.2155  0.4173
   9923SM  H15F13486   0.051   7.093   4.527  1.2613 -0.8849  1.1185
   9923SM  H15G13487  -0.030   7.244   4.596 -1.2261 -0.5061 -1.2323
   9923SM  C16F13488   0.159   7.173   4.695 -0.3847  0.2388 -0.2076
   9923SM  H16F13489   0.206   7.262   4.743 -2.0813  0.3057  1.4596
   9923SM  H16G13490   0.246   7.109   4.668 -2.4401 -2.3137 -1.1711
   9923SM  C17F13491   0.080   7.088   4.799 -0.0740  0.1497  0.3819
   9923SM  H17F13492   0.023   7.006   4.750  1.8909  0.0126 -1.8375
   9923SM  H17G13493   0.007   7.160   4.843  0.3930 -0.4259  2.1770
   9923SM  C18F13494   0.178   7.029   4.904  1.2611  0.0961 -0.3003
   9923SM  H18F13495   0.248   6.953   4.862  1.9796  0.6911 -0.2065
   9923SM  H18G13496   0.119   6.973   4.980  0.4274 -0.7958 -1.5711
   9923SM  C19F13497   0.267   7.130   4.985  0.4388 -0.0601 -0.2936
   9923SM  H19F13498   0.334   7.195   4.925 -0.6404  1.1578 -0.2281
   9923SM  H19G13499   0.331   7.070   5.052  0.5236 -0.6971 -0.9324
   9923SM  C20F13500   0.180   7.227   5.068  0.0643  0.1331 -0.1398
   9923SM  H20F13501   0.115   7.162   5.130 -0.5053 -1.1732 -2.0033
   9923SM  H20G13502   0.122   7.286   4.994  0.1569 -0.5452 -0.7744
   9923SM  C21F13503   0.264   7.316   5.163  0.3502 -0.1554  0.3139
   9923SM  H21F13504   0.336   7.374   5.101  0.6079  1.1422  1.7445
   9923SM  H21G13505   0.325   7.261   5.238 -0.9947 -0.7413  1.0111
   9923SM  C22F13506   0.173   7.406   5.241  0.2538  0.6206 -0.1453
   9923SM  H22F13507   0.124   7.472   5.166 -2.3668 -2.1816 -1.0979
   9923SM  H22G13508   0.243   7.471   5.298 -0.4471  1.8010 -0.5949
   9923SM  C23F13509   0.074   7.345   5.342 -0.5012  0.0496 -0.1262
   9923SM  H23F13510   0.133   7.291   5.419 -2.0190  0.8125  1.6732
   9923SM  H23G13511   0.002   7.279   5.289 -0.5583 -0.8518  1.0156
   9923SM  H23H13512   0.019   7.418   5.405 -0.8898 -0.8388  0.6001
  10023SM     N13513   7.599   0.247   2.475 -0.3933  0.2496 -0.0301
  10023SM   C1513514   7.546   0.315   2.349  0.0807 -0.1593 -0.0535
  10023SM  H15A13515   7.475   0.395   2.363 -0.4175 -0.6125  0.0366
  10023SM  H15B13516   7.505   0.235   2.289  0.4835 -0.1590 -0.3295
  10023SM  H15C13517   7.628   0.358   2.294  0.5346 -2.2578 -1.1189
  10023SM   C1413518   7.487   0.167   2.528  0.8179  0.1000  0.5961
  10023SM  H14A13519   7.454   0.098   2.452 -0.8984 -0.1965  1.5573
  10023SM  H14B13520   7.405   0.233   2.555 -0.1313 -0.6054 -0.4587
  10023SM  H14C13521   7.514   0.112   2.617  0.0225 -0.4845  0.4927
  10023SM   C1313522   7.712   0.156   2.441 -0.2776  0.2559  0.6593
  10023SM  H13A13523   7.788   0.215   2.392  0.3329 -0.0592  1.2111
  10023SM  H13B13524   7.669   0.081   2.376  0.5233  1.1246 -0.9445
  10023SM  H13C13525   7.754   0.109   2.529 -3.4402 -3.3667  0.4914
  10023SM   C1213526   7.651   0.355   2.565 -0.1933  0.2782 -0.4059
  10023SM  H12A13527   7.582   0.437   2.577  1.4494  1.8182 -1.0450
  10023SM  H12B13528   7.738   0.394   2.513  0.2056 -0.8378 -0.6111
  10023SM   C1113529   7.693   0.325   2.715  0.2435 -0.0019  0.3747
  10023SM  H11A13530   7.613   0.261   2.758  1.1489 -0.4729  1.3992
  10023SM  H11B13531   7.704   0.422   2.768  0.1111 -0.5252  1.3776
  10023SM     P13532   7.858   0.142   2.804  0.1641 -0.4804  0.1083
  10023SM   O1313533   7.830   0.023   2.724  0.0112 -0.5740 -0.6269
  10023SM   O1413534   7.996   0.161   2.852  0.4648 -0.2163  0.6701
  10023SM   O1113535   7.759   0.137   2.927  0.5939 -0.7791  0.2640
  10023SM   O1213536   7.819   0.265   2.713  0.4187  0.2675 -0.1163
  10023SM   C1S13537   7.767   0.011   3.007  0.3927  0.0947  0.3932
  10023SM   H1S13538   7.866  -0.039   3.000  0.7669  0.7877  0.5902
  10023SM   H1T13539   7.693  -0.062   2.969 -0.4002 -0.2530  2.4651
  10023SM    NF13540   7.757  -0.073   3.239 -0.1024 -0.0698  0.3693
  10023SM   HNF13541   7.674  -0.116   3.274  0.4278 -0.9916  0.5031
  10023SM   C2S13542   7.735   0.045   3.158 -0.1070  0.4507 -0.1806
  10023SM   H2S13543   7.810   0.118   3.195  0.8065 -0.2988 -0.5190
  10023SM   C3S13544   7.596   0.109   3.184  0.6576  0.5032 -0.1297
  10023SM   H3S13545   7.511   0.043   3.157  1.0203  0.4765 -1.2977
  10023SM    O313546   7.574   0.231   3.112  0.0604  0.2332  0.6857
  10023SM   HO313547   7.647   0.235   3.050  0.7842  1.5209  1.5628
  10023SM   C4S13548   7.566   0.143   3.330  0.6213 -0.2662  0.3358
  10023SM   H4S13549   7.627   0.227   3.367 -0.4059  0.7581 -0.2368
  10023SM   C5S13550   7.458   0.096   3.403 -0.3344 -0.3588  0.3942
  10023SM   H5S13551   7.376   0.043   3.353 -2.1936  2.7937 -0.2077
  10023SM   C6S13552   7.433   0.134   3.548 -0.3358 -0.3252  0.1772
  10023SM   H6S13553   7.325   0.115   3.568 -0.5571  1.3856  0.8042
  10023SM   H6T13554   7.453   0.243   3.558  0.0887 -0.5299  2.1119
  10023SM   C7S13555   7.531   0.073   3.652  0.0360  0.1967  0.2226
  10023SM   H7S13556   7.636   0.105   3.632 -0.2729  1.0368 -0.0916
  10023SM   H7T13557   7.542  -0.037   3.642 -1.2211  0.0751  0.0120
  10023SM   C8S13558   7.493   0.098   3.798 -0.1895  0.1585  0.4384
  10023SM   H8S13559   7.388   0.064   3.813 -1.0060  1.3131 -2.1946
  10023SM   H8T13560   7.492   0.208   3.815  0.2780 -0.1865  3.2741
  10023SM   C9S13561   7.573   0.019   3.901  0.2203  0.8380  1.0236
  10023SM   H9S13562   7.678   0.055   3.902  1.2325 -1.5256 -2.5525
  10023SM   H9T13563   7.573  -0.088   3.873 -0.9766  1.0896 -0.0277
  10023SM  C10S13564   7.505   0.031   4.042 -0.0961 -0.4884  0.3695
  10023SM  H10S13565   7.399  -0.003   4.037 -1.5868  3.3460  2.0312
  10023SM  H10T13566   7.511   0.138   4.068  0.2080 -0.3063 -0.4377
  10023SM  C11S13567   7.586  -0.042   4.150 -0.1061  1.2782 -0.2195
  10023SM  H11S13568   7.694  -0.018   4.148  0.0548  0.5562 -2.5563
  10023SM  H11T13569   7.581  -0.153   4.144 -0.2186  1.2049  0.8994
  10023SM  C12S13570   7.531  -0.003   4.293 -0.6451 -0.9706  0.5178
  10023SM  H12S13571   7.422  -0.026   4.289 -0.4780 -1.6480 -0.5644
  10023SM  H12T13572   7.560   0.104   4.296  0.1138 -1.0463 -1.7734
  10023SM  C13S13573   7.600  -0.077   4.406 -0.0723  0.1372  0.4542
  10023SM  H13S13574   7.708  -0.072   4.381  0.2095 -2.1343  1.0355
  10023SM  H13T13575   7.580  -0.186   4.405 -1.9173  0.4318 -1.1622
  10023SM  C14S13576   7.567  -0.014   4.545  0.2851 -0.4658 -0.1128
  10023SM  H14S13577   7.457  -0.020   4.559  0.2566  1.6193  0.9950
  10023SM  H14T13578   7.593   0.093   4.530 -1.2146  0.0394  0.7092
  10023SM  C15S13579   7.657  -0.060   4.666  0.7531  0.8135 -0.0568
  10023SM  H15S13580   7.639  -0.169   4.673 -1.1694  1.0574 -0.5704
  10023SM  H15T13581   7.625  -0.005   4.757  2.3074 -0.6589  1.4719
  10023SM  C16S13582   7.807  -0.025   4.650 -0.0639  0.1633  0.2690
  10023SM  H16S13583   7.840   0.081   4.645  2.6385 -0.5903  0.4549
  10023SM  H16T13584   7.842  -0.064   4.552 -0.4471  2.1649 -0.7109
  10023SM  C17S13585   7.888  -0.089   4.759 -0.2970 -0.0049  0.3890
  10023SM  H17S13586   7.991  -0.056   4.732 -0.6841  0.9203 -0.0391
  10023SM  H17T13587   7.886  -0.200   4.755 -3.9098 -0.0302 -0.6279
  10023SM  C18S13588   7.853  -0.047   4.901 -0.3576 -0.2440  0.2073
  10023SM  H18S13589   7.936  -0.079   4.968 -1.0201  2.2627  2.4178
  10023SM  H18T13590   7.765  -0.106   4.935  0.4397 -1.4407  0.2519
  10023SM  H18U13591   7.829   0.060   4.916 -1.7626 -0.2559 -1.5953
  10023SM   C1F13592   7.879  -0.122   3.255  0.2829  0.2754  0.2372
  10023SM    OF13593   7.975  -0.065   3.207  0.5125 -0.0282 -0.1712
  10023SM   C2F13594   7.888  -0.249   3.333  0.7229 -0.1759 -0.4650
  10023SM   H2F13595   7.815  -0.319   3.289  0.6063  1.2534 -2.6931
  10023SM   H2G13596   7.856  -0.229   3.438 -0.7209 -0.1290 -0.9026
  10023SM   C3F13597   8.025  -0.310   3.354 -0.0317  0.2770  0.1290
  10023SM   H3F13598   8.083  -0.246   3.425  0.1742 -1.3088  1.4441
  10023SM   H3G13599   8.068  -0.337   3.256 -3.4768  1.8513 -2.0037
  10023SM   C4F13600   7.998  -0.444   3.418 -0.1186 -0.2769 -0.4300
  10023SM   H4F13601   8.099  -0.490   3.407  0.6328  1.5901 -1.9038
  10023SM   H4G13602   7.924  -0.501   3.358  0.1389 -1.8451  0.6756
  10023SM   C5F13603   7.946  -0.450   3.564  1.2491  0.5238 -0.4740
  10023SM   H5F13604   7.848  -0.397   3.571  0.1407 -1.4160 -0.6979
  10023SM   H5G13605   8.020  -0.397   3.628  0.0439  1.5923  0.0906
  10023SM   C6F13606   7.936  -0.593   3.618 -0.1281 -0.6313  0.2300
  10023SM   H6F13607   8.043  -0.619   3.617 -0.1864 -0.8839  0.4334
  10023SM   H6G13608   7.891  -0.670   3.552 -0.5748  0.6963 -1.0721
  10023SM   C7F13609   7.892  -0.596   3.768  0.2141 -0.1128 -0.0563
  10023SM   H7F13610   7.970  -0.540   3.824  0.7187 -0.1614 -0.7051
  10023SM   H7G13611   7.898  -0.701   3.806  0.9615 -0.5778 -1.4030
  10023SM   C8F13612   7.757  -0.526   3.801  0.1377  0.3295 -0.6116
  10023SM   H8F13613   7.677  -0.561   3.732 -2.2656  0.9145  1.7175
  10023SM   H8G13614   7.778  -0.417   3.795  0.1121  0.5061  1.7001
  10023SM   C9F13615   7.702  -0.554   3.936  0.1647  0.9615 -0.4205
  10023SM   H9F13616   7.778  -0.534   4.014  2.1767 -1.5561 -1.5763
  10023SM   H9G13617   7.665  -0.659   3.938 -2.2401  1.6909 -1.8868
  10023SM  C10F13618   7.587  -0.460   3.974 -0.3045  0.1319  1.0399
  10023SM  H10F13619   7.492  -0.490   3.925 -0.0777  0.0600  0.6340
  10023SM  H10G13620   7.612  -0.356   3.946 -0.5871  0.2795  1.3374
  10023SM  C11F13621   7.553  -0.458   4.127 -0.6084  0.1643  0.4365
  10023SM  H11F13622   7.486  -0.375   4.160  0.1255  0.4194  1.3210
  10023SM  H11G13623   7.651  -0.450   4.178 -0.1149 -2.1605 -0.0581
  10023SM  C12F13624   7.499  -0.586   4.181  0.0100 -0.4920  0.8131
  10023SM  H12F13625   7.578  -0.661   4.158  0.5713  0.2308  0.3739
  10023SM  H12G13626   7.405  -0.614   4.129 -0.3135  2.7693 -0.5943
  10023SM  C13F13627   7.473  -0.582   4.329  0.1734  0.0492 -0.1715
  10023SM  H13F13628   7.403  -0.500   4.354  2.5518  1.9724  0.6385
  10023SM  H13G13629   7.566  -0.557   4.385  1.1887 -1.0598 -1.3090
  10023SM  C14F13630   7.418  -0.714   4.375  0.0354 -0.3719  0.0419
  10023SM  H14F13631   7.488  -0.801   4.369 -1.4794 -1.7225  0.9523
  10023SM  H14G13632   7.333  -0.735   4.306  0.9975  0.2279 -1.3742
  10023SM  C15F13633   7.359  -0.716   4.516 -0.3564  0.2524 -0.1584
  10023SM  H15F13634   7.312  -0.622   4.552  0.6944  0.9327 -0.5239
  10023SM  H15G13635   7.445  -0.724   4.585  0.8041 -3.1163 -1.7837
  10023SM  C16F13636   7.272  -0.836   4.551 -0.1077  0.2059  0.2000
  10023SM  H16F13637   7.331  -0.929   4.565 -0.1827  0.0052 -0.7760
  10023SM  H16G13638   7.192  -0.860   4.477 -0.5819 -0.9537  1.0624
  10023SM  C17F13639   7.199  -0.821   4.684  0.1547  0.1488 -0.0805
  10023SM  H17F13640   7.125  -0.904   4.691 -0.6953  0.7091 -1.7225
  10023SM  H17G13641   7.135  -0.732   4.696  2.0346  1.3472  1.8185
  10023SM  C18F13642   7.290  -0.824   4.806 -0.0269  0.3347 -0.1908
  10023SM  H18F13643   7.352  -0.732   4.802  0.0204  0.3131  0.0172
  10023SM  H18G13644   7.350  -0.918   4.807  0.2966  0.5113 -1.4761
  10023SM  C19F13645   7.200  -0.821   4.927 -0.5628 -0.4756 -0.0945
  10023SM  H19F13646   7.128  -0.904   4.910 -1.4661  0.5970 -1.8667
  10023SM  H19G13647   7.151  -0.722   4.924 -1.4296 -0.9079 -0.6387
  10023SM  C20F13648   7.273  -0.828   5.057 -1.3002 -0.1973 -0.0463
  10023SM  H20F13649   7.274  -0.935   5.089 -3.4268  0.3397  2.1180
  10023SM  H20G13650   7.213  -0.777   5.135 -0.7609  0.2822  0.0593
  10023SM  C21F13651   7.413  -0.765   5.062 -0.3013 -0.1405 -0.3799
  10023SM  H21F13652   7.394  -0.656   5.052  2.3983  0.7841  2.8644
  10023SM  H21G13653   7.492  -0.795   4.989  0.2217 -1.4952  0.7026
  10023SM  C22F13654   7.475  -0.783   5.204 -0.0198 -0.0048  0.2387
  10023SM  H22F13655   7.475  -0.892   5.227 -2.4361  0.0445  0.7094
  10023SM  H22G13656   7.402  -0.728   5.268 -0.1789  2.7049 -2.0622
  10023SM  C23F13657   7.603  -0.702   5.217 -0.6366 -0.1410 -0.0035
  10023SM  H23F13658   7.599  -0.598   5.177  0.5608  0.2159  0.7623
  10023SM  H23G13659   7.690  -0.754   5.172 -0.5589  1.3060 -1.6559
  10023SM  H23H13660   7.643  -0.700   5.320  0.5190 -1.2398 -0.4124
  101CHL1    C313661   3.501   3.915   6.655  0.1837  0.1015  0.3092
  101CHL1    H313662   3.610   3.913   6.678  0.4546 -2.7198 -0.8585
  101CHL1    O313663   3.417   3.886   6.765  0.6133  0.1127 -0.0493
  101CHL1   H3'13664   3.360   3.814   6.733 -0.9628  0.0654  2.5724
  101CHL1    C413665   3.463   4.055   6.594 -0.1769  0.2690  0.0903
  101CHL1   H4A13666   3.356   4.065   6.568  0.0102 -0.2293 -0.9133
  101CHL1   H4B13667   3.486   4.135   6.667  1.0133  0.1663 -0.1465
  101CHL1    C513668   3.542   4.084   6.471  0.0958  0.2848  0.2220
  101CHL1    C613669   3.612   4.197   6.459  0.4987 -0.0006 -0.3049
  101CHL1    H613670   3.606   4.269   6.542 -0.8456 -1.6647  1.1218
  101CHL1    C713671   3.685   4.236   6.331 -0.4145  0.2172 -0.3868
  101CHL1   H7A13672   3.652   4.338   6.301 -1.4192  0.5649  1.7129
  101CHL1   H7B13673   3.793   4.245   6.356 -0.7633 -0.0763  1.3079
  101CHL1    C813674   3.656   4.142   6.216 -0.0812 -0.1287  0.4628
  101CHL1    H813675   3.565   4.179   6.163  1.1828  0.0216 -1.7154
  101CHL1   C1413676   3.766   4.164   6.111  0.4818  0.0733 -0.0744
  101CHL1   H1413677   3.862   4.131   6.158  1.0778  3.2052  1.1000
  101CHL1   C1513678   3.795   4.304   6.063  0.0783 -0.3887 -0.1051
  101CHL1  H15A13679   3.697   4.356   6.052  0.6848  0.5189 -1.4327
  101CHL1  H15B13680   3.865   4.355   6.132  0.4690  1.2364 -1.6422
  101CHL1   C1613681   3.869   4.286   5.926  0.0020 -0.4269 -0.0055
  101CHL1  H16A13682   3.806   4.325   5.843 -0.6530 -2.1839 -0.3769
  101CHL1  H16B13683   3.977   4.313   5.930 -0.1605  0.4728 -1.1893
  101CHL1   C1713684   3.877   4.127   5.911  0.0801 -0.3705  0.0936
  101CHL1   H1713685   3.970   4.102   5.968  1.4253  2.8395 -0.4730
  101CHL1   C1313686   3.760   4.070   5.990 -0.6496 -0.1853  0.3704
  101CHL1   C1813687   3.632   4.083   5.914  0.1816 -0.0662 -0.0563
  101CHL1  H18A13688   3.632   4.173   5.850 -1.2196  0.4486  0.6217
  101CHL1  H18B13689   3.620   3.998   5.844  1.8780  2.1156 -3.2468
  101CHL1  H18C13690   3.543   4.094   5.981  0.4894  1.4369  0.1333
  101CHL1   C1213691   3.773   3.929   6.047 -0.2898  0.0459  0.4390
  101CHL1  H12A13692   3.774   3.861   5.959  0.2843  2.0859 -1.2021
  101CHL1  H12B13693   3.873   3.919   6.094  0.4195  2.9222 -0.2567
  101CHL1   C1113694   3.660   3.900   6.149  0.4562 -0.1437  0.8399
  101CHL1  H11A13695   3.563   3.900   6.094  1.2265 -2.3576 -0.6496
  101CHL1  H11B13696   3.661   3.793   6.178  0.4675 -0.3835 -0.0233
  101CHL1    C913697   3.654   3.998   6.267  0.1273  0.4771  0.7099
  101CHL1    H913698   3.744   3.977   6.330  0.1551 -0.3498  0.4091
  101CHL1   C1013699   3.542   3.971   6.371  0.3153  0.2068 -0.4312
  101CHL1   C1913700   3.405   3.984   6.303  0.5113  0.0910 -1.4008
  101CHL1  H19A13701   3.331   3.964   6.383  1.0716 -1.8337 -1.3160
  101CHL1  H19B13702   3.389   4.082   6.253  0.5001 -0.5913 -2.7910
  101CHL1  H19C13703   3.397   3.907   6.224  1.2316 -0.0891 -1.2992
  101CHL1    C113704   3.559   3.827   6.425 -0.0357 -0.0988  0.3845
  101CHL1   H1A13705   3.536   3.748   6.350 -2.2163 -0.3340  1.2123
  101CHL1   H1B13706   3.667   3.812   6.445  0.3972  0.5800 -1.2133
  101CHL1    C213707   3.478   3.796   6.552 -0.1998 -0.5684  0.5254
  101CHL1   H2A13708   3.488   3.693   6.591 -1.1818 -0.0268  2.3329
  101CHL1   H2B13709   3.373   3.805   6.518 -0.0454  2.1386  0.5328
  101CHL1   C2013710   3.896   4.081   5.767 -0.0465 -0.1307  0.5574
  101CHL1   H2013711   3.843   3.985   5.753 -1.5922  0.8599 -0.7404
  101CHL1   C2113712   4.048   4.061   5.748  0.2073  0.6837 -0.2364
  101CHL1  H21A13713   4.083   3.977   5.811  1.6411  0.6417 -1.0489
  101CHL1  H21B13714   4.107   4.153   5.769  1.0796  0.0777  0.0127
  101CHL1  H21C13715   4.071   4.031   5.643 -2.0607 -1.2870 -0.2576
  101CHL1   C2213716   3.840   4.178   5.651 -0.7223 -0.4315 -0.1745
  101CHL1  H22A13717   3.741   4.207   5.690 -0.1311 -1.2858  2.1285
  101CHL1  H22B13718   3.921   4.250   5.628  0.1040 -1.1884  0.2976
  101CHL1   C2313719   3.826   4.099   5.517 -0.1441  0.3176 -0.7739
  101CHL1  H23A13720   3.931   4.069   5.495 -0.3273 -0.2830 -0.8433
  101CHL1  H23B13721   3.757   4.015   5.540  0.2649  0.1547 -0.1370
  101CHL1   C2413722   3.773   4.186   5.404 -0.4599  0.3768  0.0923
  101CHL1  H24A13723   3.680   4.234   5.441  0.0292  2.9092 -1.7334
  101CHL1  H24B13724   3.842   4.268   5.376 -0.2813  0.6788  1.3726
  101CHL1   C2513725   3.743   4.104   5.273  0.1942 -0.2077  0.6190
  101CHL1   H2513726   3.689   4.010   5.297  2.0487 -1.2798  0.8410
  101CHL1   C2613727   3.651   4.183   5.177  0.5790 -0.7723  0.1422
  101CHL1  H26A13728   3.550   4.190   5.222  1.6518 -0.9005  2.6965
  101CHL1  H26B13729   3.692   4.285   5.160 -3.1932  0.8941  0.1303
  101CHL1  H26C13730   3.640   4.133   5.078 -1.5154  2.1572 -1.2657
  101CHL1   C2713731   3.869   4.070   5.185  0.2769 -0.8135  0.4165
  101CHL1  H27A13732   3.908   4.164   5.140  0.1318 -0.0405  1.8338
  101CHL1  H27B13733   3.943   4.028   5.257  1.4784  2.3185  1.1830
  101CHL1  H27C13734   3.843   3.992   5.111 -1.0940  0.7538 -0.8529
  102CHL1    C313735   2.764   3.089   6.610  0.1439 -0.3045 -0.3967
  102CHL1    H313736   2.838   3.006   6.618  1.8509  1.0014 -1.7289
  102CHL1    O313737   2.724   3.129   6.741 -0.3514 -0.2247  0.3205
  102CHL1   H3'13738   2.798   3.183   6.770 -0.0186 -0.5045  0.0034
  102CHL1    C413739   2.830   3.206   6.540  0.0780 -0.2552 -0.1645
  102CHL1   H4A13740   2.771   3.298   6.563  0.7051 -0.4018  2.3699
  102CHL1   H4B13741   2.922   3.227   6.599 -1.0628  0.9038  1.2957
  102CHL1    C513742   2.856   3.187   6.395 -0.5700  0.2026  0.9751
  102CHL1    C613743   2.983   3.194   6.345 -0.2521  0.3730 -0.0082
  102CHL1    H613744   3.065   3.209   6.416 -0.2524 -1.3928  0.4188
  102CHL1    C713745   3.010   3.183   6.200 -0.0479  0.5403  0.8167
  102CHL1   H7A13746   3.071   3.270   6.166  0.1265  0.0376 -0.2018
  102CHL1   H7B13747   3.067   3.090   6.178 -1.2142 -0.4646  1.9048
  102CHL1    C813748   2.880   3.193   6.109  0.6338  0.0198 -0.1058
  102CHL1    H813749   2.842   3.297   6.119  0.0518 -0.1123 -0.9074
  102CHL1   C1413750   2.906   3.157   5.966 -0.4672 -0.1998 -0.4447
  102CHL1   H1413751   2.947   3.055   5.960  2.0909  0.8170 -1.5091
  102CHL1   C1513752   3.010   3.246   5.892  0.6689  0.7572 -0.3427
  102CHL1  H15A13753   2.980   3.351   5.912  0.2721  0.3192  1.5458
  102CHL1  H15B13754   3.114   3.233   5.928 -0.1986  0.9205  2.4662
  102CHL1   C1613755   2.987   3.199   5.752  0.1658 -0.7959 -0.3393
  102CHL1  H16A13756   2.997   3.288   5.686 -0.2471 -2.0649 -2.2006
  102CHL1  H16B13757   3.059   3.128   5.708 -1.7412 -3.0203 -0.0774
  102CHL1   C1713758   2.847   3.133   5.742  0.4770  0.2104  0.1765
  102CHL1   H1713759   2.868   3.025   5.728 -1.8370 -0.1324 -1.1533
  102CHL1   C1313760   2.777   3.159   5.880 -0.5134  0.4906  0.1220
  102CHL1   C1813761   2.708   3.294   5.877 -0.2200 -0.4348  0.3034
  102CHL1  H18A13762   2.681   3.324   5.981  0.5590 -0.1789  0.4364
  102CHL1  H18B13763   2.776   3.377   5.849 -0.8951 -0.4538 -1.4902
  102CHL1  H18C13764   2.621   3.290   5.808 -0.7667 -0.3814  0.9749
  102CHL1   C1213765   2.687   3.045   5.937 -0.0318  0.5527  0.1435
  102CHL1  H12A13766   2.593   3.033   5.879 -1.3363  0.3382  2.2076
  102CHL1  H12B13767   2.744   2.951   5.925  1.3989  1.0964  2.2649
  102CHL1   C1113768   2.649   3.079   6.083 -0.2564  0.0620 -0.1860
  102CHL1  H11A13769   2.592   3.174   6.068  0.7817  0.6913 -0.2224
  102CHL1  H11B13770   2.586   3.004   6.135  1.9606 -1.1160  0.9408
  102CHL1    C913771   2.770   3.100   6.174 -0.3488  0.7314 -0.2042
  102CHL1    H913772   2.818   3.000   6.184  0.1943  0.9059 -0.9628
  102CHL1   C1013773   2.736   3.147   6.312 -0.0087 -0.3993  0.2718
  102CHL1   C1913774   2.654   3.279   6.309  0.0808 -0.1854 -0.0852
  102CHL1  H19A13775   2.705   3.373   6.279 -0.0572 -1.0746 -3.4793
  102CHL1  H19B13776   2.561   3.260   6.251 -1.0753  2.5606  0.6695
  102CHL1  H19C13777   2.611   3.306   6.408 -3.9017 -0.9132 -1.4330
  102CHL1    C113778   2.658   3.038   6.388  0.4815  0.0207  0.7647
  102CHL1   H1A13779   2.556   3.020   6.347  0.8060 -2.1301  0.7544
  102CHL1   H1B13780   2.714   2.945   6.366  1.1388  0.3863  0.8660
  102CHL1    C213781   2.643   3.041   6.540 -0.2004 -0.1222 -0.1352
  102CHL1   H2A13782   2.615   2.942   6.580 -1.6257  1.2308  2.5269
  102CHL1   H2B13783   2.561   3.109   6.571 -0.9212 -0.1546 -1.8801
  102CHL1   C2013784   2.770   3.156   5.616  0.5719  0.2574 -0.4108
  102CHL1   H2013785   2.713   3.251   5.624  2.1357  1.0981  1.8885
  102CHL1   C2113786   2.667   3.045   5.586 -0.0425  0.0519  0.0892
  102CHL1  H21A13787   2.715   2.948   5.558  1.7813  1.6189 -2.7128
  102CHL1  H21B13788   2.596   3.065   5.503 -1.1664 -0.6146  0.8694
  102CHL1  H21C13789   2.606   3.025   5.677  1.9815 -0.0020  1.5157
  102CHL1   C2213790   2.861   3.159   5.482  0.7857 -0.2214 -0.1447
  102CHL1  H22A13791   2.923   3.251   5.478  0.0252  0.3232  0.3078
  102CHL1  H22B13792   2.938   3.079   5.487  0.3784 -0.6330 -0.3950
  102CHL1   C2313793   2.791   3.172   5.350  0.8611 -0.3393 -0.0517
  102CHL1  H23A13794   2.866   3.160   5.269 -1.2195 -2.7489 -1.7548
  102CHL1  H23B13795   2.715   3.093   5.333 -0.0451  0.7213 -1.1103
  102CHL1   C2413796   2.725   3.313   5.326  0.1148  0.0477 -0.2593
  102CHL1  H24A13797   2.656   3.331   5.412  0.7982 -0.2364  0.3532
  102CHL1  H24B13798   2.811   3.383   5.330 -0.0317  0.2097  0.1915
  102CHL1   C2513799   2.642   3.319   5.190  0.0392  0.3593  0.0593
  102CHL1   H2513800   2.569   3.403   5.192  0.2118  0.5006  0.3792
  102CHL1   C2613801   2.737   3.333   5.075  0.3277  0.4478 -0.0013
  102CHL1  H26A13802   2.689   3.351   4.976 -0.1075 -1.3635 -0.1461
  102CHL1  H26B13803   2.806   3.418   5.094 -1.6747  1.7104  1.9604
  102CHL1  H26C13804   2.788   3.236   5.052  0.3325  0.5289 -0.3474
  102CHL1   C2713805   2.548   3.206   5.163  0.1424  0.0714 -0.1411
  102CHL1  H27A13806   2.467   3.198   5.238 -0.2233  1.4362 -0.3600
  102CHL1  H27B13807   2.501   3.242   5.069 -4.0845 -0.4002  1.5521
  102CHL1  H27C13808   2.597   3.107   5.153 -0.9496 -0.7630  1.9890
  103CHL1    C313809   2.458   2.491   6.779 -0.5133 -0.2612 -0.3712
  103CHL1    H313810   2.538   2.417   6.755 -0.0259  0.8769 -2.5729
  103CHL1    O313811   2.438   2.492   6.916  0.2616  0.1647 -0.4107
  103CHL1   H3'13812   2.390   2.571   6.939  2.0515  0.5492  2.5498
  103CHL1    C413813   2.506   2.626   6.722 -0.5015 -0.1383 -0.5452
  103CHL1   H4A13814   2.427   2.696   6.756 -2.3433 -1.9125 -0.9513
  103CHL1   H4B13815   2.603   2.658   6.767 -0.8531  1.8599 -1.0902
  103CHL1    C513816   2.510   2.616   6.568 -0.2860 -0.2624  0.1193
  103CHL1    C613817   2.625   2.639   6.503 -0.2335 -0.5767  0.3049
  103CHL1    H613818   2.709   2.656   6.571 -0.5195  1.3716  0.2261
  103CHL1    C713819   2.632   2.646   6.353 -0.6514  0.0787  0.0936
  103CHL1   H7A13820   2.711   2.718   6.321 -0.6212 -0.8975 -2.2967
  103CHL1   H7B13821   2.683   2.555   6.312  2.7843  1.3183  1.2417
  103CHL1    C813822   2.497   2.660   6.283  0.3880  0.3310  0.5236
  103CHL1    H813823   2.481   2.770   6.288 -0.3941  0.2410  0.2299
  103CHL1   C1413824   2.508   2.631   6.135 -0.3359 -0.2701  0.1665
  103CHL1   H1413825   2.513   2.520   6.136 -0.5466 -0.2800  0.4345
  103CHL1   C1513826   2.626   2.693   6.056  0.1848 -0.0990 -0.4558
  103CHL1  H15A13827   2.648   2.798   6.087 -0.2675  0.2699 -1.3421
  103CHL1  H15B13828   2.719   2.634   6.069 -0.4252 -0.8411  0.7837
  103CHL1   C1613829   2.580   2.683   5.913  0.2541  0.2907  0.5508
  103CHL1  H16A13830   2.574   2.784   5.869  1.2810  0.8853  1.7147
  103CHL1  H16B13831   2.644   2.606   5.864 -1.6335 -0.7251 -0.4389
  103CHL1   C1713832   2.434   2.626   5.912  0.4635 -1.1955 -0.1086
  103CHL1   H1713833   2.437   2.517   5.891 -0.4184 -0.9224 -1.8584
  103CHL1   C1313834   2.380   2.658   6.054 -0.6222  0.1287 -0.1428
  103CHL1   C1813835   2.340   2.804   6.057 -0.2400  0.1792  0.0884
  103CHL1  H18A13836   2.424   2.869   6.023  1.8371 -2.5166 -0.2818
  103CHL1  H18B13837   2.254   2.829   5.991 -1.1765 -0.9450  0.8414
  103CHL1  H18C13838   2.308   2.835   6.158  0.0947 -3.2909  1.4024
  103CHL1   C1213839   2.265   2.566   6.102  0.1152  0.1087 -1.2357
  103CHL1  H12A13840   2.163   2.580   6.060 -1.0022  0.0205  1.2294
  103CHL1  H12B13841   2.288   2.463   6.068  0.8132 -0.3927  0.5937
  103CHL1   C1113842   2.254   2.578   6.262  0.0095 -0.4668 -0.8261
  103CHL1  H11A13843   2.209   2.678   6.280 -1.5139 -0.7731 -2.6923
  103CHL1  H11B13844   2.194   2.503   6.317 -1.0560 -1.1058 -2.7876
  103CHL1    C913845   2.386   2.574   6.347 -0.2164  0.2649  0.1931
  103CHL1    H913846   2.414   2.468   6.330 -3.5780 -0.8332  0.7702
  103CHL1   C1013847   2.379   2.584   6.500 -0.3708  0.4829  0.3747
  103CHL1   C1913848   2.277   2.705   6.536 -0.3120  0.0883  0.3474
  103CHL1  H19A13849   2.325   2.797   6.498  0.3627 -0.2716  0.3106
  103CHL1  H19B13850   2.182   2.680   6.484 -0.0762  0.9151 -0.4938
  103CHL1  H19C13851   2.261   2.710   6.646  2.2328 -1.2453  0.8623
  103CHL1    C113852   2.338   2.448   6.563 -0.5064 -0.2394  0.6121
  103CHL1   H1A13853   2.238   2.413   6.529 -0.2145  0.3404 -0.9305
  103CHL1   H1B13854   2.407   2.372   6.521 -0.8147 -0.4445  0.4708
  103CHL1    C213855   2.324   2.444   6.714 -0.0508 -0.1607  0.1031
  103CHL1   H2A13856   2.306   2.345   6.762  1.6974  0.4232  2.1478
  103CHL1   H2B13857   2.240   2.511   6.741  0.6316  0.5753  0.4562
  103CHL1   C2013858   2.359   2.677   5.786  0.2320  0.4949 -0.2283
  103CHL1   H2013859   2.364   2.788   5.794 -0.0086  0.4610  0.4699
  103CHL1   C2113860   2.212   2.633   5.781 -0.2469  0.2342 -0.7651
  103CHL1  H21A13861   2.154   2.664   5.871 -3.4686 -1.9823 -1.8629
  103CHL1  H21B13862   2.225   2.524   5.800  0.7661  0.5422  0.4602
  103CHL1  H21C13863   2.159   2.656   5.686 -0.9829  0.7466 -0.2445
  103CHL1   C2213864   2.435   2.644   5.649  0.4793  0.1657 -0.4671
  103CHL1  H22A13865   2.528   2.704   5.655  0.6154 -0.0656 -0.2571
  103CHL1  H22B13866   2.455   2.537   5.624  1.5250  0.4477 -0.8801
  103CHL1   C2313867   2.363   2.705   5.529 -0.1338  0.4411  0.4263
  103CHL1  H23A13868   2.262   2.666   5.507 -0.3680  1.3029 -0.0920
  103CHL1  H23B13869   2.345   2.813   5.549  0.2638  0.1633  2.5567
  103CHL1   C2413870   2.445   2.689   5.397  0.7568 -0.0749  0.0717
  103CHL1  H24A13871   2.531   2.757   5.413 -0.2615  0.8976  1.6890
  103CHL1  H24B13872   2.483   2.585   5.399  0.7200 -0.1691 -1.8682
  103CHL1   C2513873   2.362   2.723   5.272 -0.4452 -0.6350 -0.0162
  103CHL1   H2513874   2.266   2.667   5.279 -1.6368  1.4247  1.7514
  103CHL1   C2613875   2.323   2.877   5.266  0.2951  0.0710 -0.3374
  103CHL1  H26A13876   2.259   2.896   5.177 -1.3208  1.4260  1.0296
  103CHL1  H26B13877   2.260   2.907   5.352  0.7829 -2.9861  1.2191
  103CHL1  H26C13878   2.410   2.945   5.270  0.2248  0.1643 -0.3808
  103CHL1   C2713879   2.446   2.681   5.148 -0.2107 -0.0460 -0.5517
  103CHL1  H27A13880   2.465   2.572   5.134  2.6658  0.0923  1.3279
  103CHL1  H27B13881   2.401   2.718   5.053 -0.9855 -0.6540 -0.4339
  103CHL1  H27C13882   2.550   2.720   5.145  0.0470 -0.7242 -0.7626
  104CHL1    C313883   6.392   4.951   6.273 -0.4033  0.0811  0.4953
  104CHL1    H313884   6.473   5.023   6.248 -0.2261 -0.1176  0.4942
  104CHL1    O313885   6.380   4.938   6.412  0.2268  0.5673 -0.0321
  104CHL1   H3'13886   6.341   5.021   6.441 -1.4529 -0.0279 -0.4370
  104CHL1    C413887   6.257   5.013   6.224  0.9066 -0.1571  0.4165
  104CHL1   H4A13888   6.171   4.960   6.271 -0.8721  3.4223  1.6319
  104CHL1   H4B13889   6.255   5.117   6.262  1.5084  0.4306 -1.0834
  104CHL1    C513890   6.240   5.014   6.076  0.3032  0.1156  0.8849
  104CHL1    C613891   6.209   5.127   6.009 -0.2968 -0.5151 -0.6017
  104CHL1    H613892   6.188   5.218   6.066 -2.1601 -0.8746 -0.6575
  104CHL1    C713893   6.193   5.140   5.862 -0.6549  0.2237  0.0010
  104CHL1   H7A13894   6.123   5.222   5.834  2.0722  2.0975 -1.8239
  104CHL1   H7B13895   6.289   5.173   5.818  0.6259 -3.8539 -0.7227
  104CHL1    C813896   6.176   5.004   5.790  0.5207 -0.5073  0.3495
  104CHL1    H813897   6.068   4.985   5.805  0.0797  2.1511  0.9677
  104CHL1   C1413898   6.198   5.012   5.637 -0.6162  0.3066 -0.6010
  104CHL1   H1413899   6.301   5.055   5.631 -1.0102  1.2682 -0.5665
  104CHL1   C1513900   6.099   5.109   5.569 -0.1946  0.1321  0.3786
  104CHL1  H15A13901   5.989   5.104   5.586 -0.3343  3.3394  1.0068
  104CHL1  H15B13902   6.113   5.215   5.597 -0.1346  0.1756  0.1825
  104CHL1   C1613903   6.111   5.072   5.418  0.4231 -0.0998 -0.5797
  104CHL1  H16A13904   6.013   5.065   5.367 -0.3479 -1.2164  0.9729
  104CHL1  H16B13905   6.163   5.154   5.364  1.4362 -0.4720 -0.2008
  104CHL1   C1713906   6.208   4.941   5.415 -0.1053  0.4222  0.6263
  104CHL1   H1713907   6.314   4.970   5.401 -0.3885  0.6827 -1.2380
  104CHL1   C1313908   6.197   4.883   5.553 -0.2639  0.1091 -0.6429
  104CHL1   C1813909   6.061   4.807   5.561 -0.1986 -1.1597 -0.2922
  104CHL1  H18A13910   6.083   4.702   5.531  0.0918 -1.6241  1.4497
  104CHL1  H18B13911   6.030   4.815   5.667  0.9971  0.4215 -0.0359
  104CHL1  H18C13912   5.981   4.848   5.494  0.0145 -1.6633 -0.8657
  104CHL1   C1213913   6.315   4.799   5.610  0.1429 -0.1466  0.3150
  104CHL1  H12A13914   6.320   4.693   5.575 -0.0483 -0.8225  2.2077
  104CHL1  H12B13915   6.401   4.861   5.578 -0.1557 -0.6840 -1.6841
  104CHL1   C1113916   6.296   4.775   5.762 -0.6334 -0.1681  0.0459
  104CHL1  H11A13917   6.205   4.714   5.780 -0.6124  0.2047  1.6064
  104CHL1  H11B13918   6.382   4.717   5.802 -0.7555 -0.5467 -0.2275
  104CHL1    C913919   6.280   4.899   5.850  0.7516 -0.5252  0.2837
  104CHL1    H913920   6.374   4.955   5.832  0.0910  0.1810 -1.0633
  104CHL1   C1013921   6.276   4.875   5.999  0.2730  0.0848 -0.3644
  104CHL1   C1913922   6.155   4.770   6.019  0.2438 -0.3209 -0.3052
  104CHL1  H19A13923   6.057   4.809   5.983  0.2435 -0.5424 -0.5443
  104CHL1  H19B13924   6.178   4.669   5.979  1.1656 -0.0648 -0.4294
  104CHL1  H19C13925   6.145   4.744   6.127  0.3673  0.4324 -0.1079
  104CHL1    C113926   6.408   4.816   6.062  0.2350  0.3565  0.2754
  104CHL1   H1A13927   6.433   4.717   6.018  4.5826  1.3296  0.1021
  104CHL1   H1B13928   6.491   4.870   6.010 -0.4414  0.3219 -0.8797
  104CHL1    C213929   6.416   4.811   6.217 -0.1486 -0.1101  0.8745
  104CHL1   H2A13930   6.509   4.764   6.257  2.4850  1.9750 -2.2621
  104CHL1   H2B13931   6.331   4.751   6.257 -0.4781  0.9333  1.7719
  104CHL1   C2013932   6.176   4.856   5.287 -0.1103 -0.0098  0.3899
  104CHL1   H2013933   6.077   4.811   5.309  0.2789 -1.1688 -0.1960
  104CHL1   C2113934   6.274   4.745   5.269  0.3801 -0.5937  0.6914
  104CHL1  H21A13935   6.255   4.680   5.357  1.8953  0.6796  2.0229
  104CHL1  H21B13936   6.379   4.780   5.258 -0.2604  0.6653 -3.0278
  104CHL1  H21C13937   6.253   4.681   5.180  0.5073 -0.2846  0.4343
  104CHL1   C2213938   6.153   4.936   5.155  0.8601  0.1565  0.3772
  104CHL1  H22A13939   6.083   5.018   5.181 -0.7525 -0.6539 -1.1969
  104CHL1  H22B13940   6.244   4.990   5.118 -0.6973  1.5472 -1.6630
  104CHL1   C2313941   6.089   4.858   5.039 -0.0477 -0.9032 -0.4754
  104CHL1  H23A13942   6.165   4.785   5.004  2.9215  1.7619 -0.0790
  104CHL1  H23B13943   6.005   4.795   5.074 -1.1534 -0.1995 -1.7428
  104CHL1   C2413944   6.037   4.948   4.916 -0.7873 -0.5954 -0.2931
  104CHL1  H24A13945   5.970   5.029   4.951 -2.0083 -2.5783  2.4031
  104CHL1  H24B13946   6.130   4.978   4.863 -0.2472 -1.7170 -0.0186
  104CHL1   C2513947   5.945   4.867   4.830  0.3009  0.4847  0.0059
  104CHL1   H2513948   5.854   4.847   4.890  0.5671 -0.7356  0.0359
  104CHL1   C2613949   5.893   4.943   4.705 -0.4598 -0.3172 -0.0143
  104CHL1  H26A13950   5.985   4.949   4.643 -0.6341 -2.6286 -0.6147
  104CHL1  H26B13951   5.815   4.886   4.650 -0.0897 -1.6093  0.7505
  104CHL1  H26C13952   5.850   5.042   4.731 -1.2134 -1.2837  2.7705
  104CHL1   C2713953   6.004   4.742   4.777  0.8755 -0.4819 -0.1204
  104CHL1  H27A13954   5.928   4.677   4.729  0.0444  0.5829 -0.3082
  104CHL1  H27B13955   6.084   4.762   4.703 -0.1322 -3.3763 -2.1564
  104CHL1  H27C13956   6.041   4.680   4.861 -1.7842 -0.7611  0.9509
  105CHL1    C313957   6.168   4.362   6.384  0.0280  0.1400  0.4950
  105CHL1    H313958   6.254   4.292   6.387 -1.1495 -1.3604  0.0529
  105CHL1    O313959   6.171   4.428   6.508 -0.0370 -0.2838  0.3133
  105CHL1   H3'13960   6.204   4.364   6.572 -0.7251 -2.1196 -1.1001
  105CHL1    C413961   6.190   4.477   6.274  0.2745 -0.2296  0.3560
  105CHL1   H4A13962   6.108   4.547   6.303 -1.1879 -2.2766  1.4619
  105CHL1   H4B13963   6.288   4.527   6.286  0.4155 -0.4922  0.2981
  105CHL1    C513964   6.179   4.418   6.141 -0.4478  0.3183 -0.0115
  105CHL1    C613965   6.280   4.431   6.054 -0.0796 -1.2127 -0.1572
  105CHL1    H613966   6.368   4.488   6.086 -1.4733  1.4699 -0.7542
  105CHL1    C713967   6.263   4.396   5.913  0.9548  0.5747  0.7809
  105CHL1   H7A13968   6.296   4.481   5.848  0.8558  0.1143  0.1188
  105CHL1   H7B13969   6.328   4.306   5.907  1.5605  1.0384  0.2098
  105CHL1    C813970   6.115   4.350   5.866  0.2915 -1.3755  0.7660
  105CHL1    H813971   6.060   4.446   5.856  4.5463  1.1998 -1.0011
  105CHL1   C1413972   6.114   4.272   5.739  0.0522 -0.5645  0.0827
  105CHL1   H1413973   6.173   4.180   5.758 -0.6048 -0.5038  2.8651
  105CHL1   C1513974   6.174   4.339   5.617 -0.4250  0.1576 -0.6945
  105CHL1  H15A13975   6.157   4.448   5.609  0.6334  0.3659 -0.2104
  105CHL1  H15B13976   6.283   4.328   5.632 -0.4898  2.6188  2.9596
  105CHL1   C1613977   6.140   4.259   5.489  0.3017  0.2559 -0.3191
  105CHL1  H16A13978   6.093   4.326   5.414 -2.0317  0.1180  0.9157
  105CHL1  H16B13979   6.211   4.188   5.442  0.7576  0.3984  0.1475
  105CHL1   C1713980   6.023   4.171   5.543  0.6819  0.0333  0.1311
  105CHL1   H1713981   6.067   4.074   5.576  1.7548  0.3899 -0.2230
  105CHL1   C1313982   5.981   4.221   5.686  0.3015 -0.3007  0.0445
  105CHL1   C1813983   5.884   4.346   5.672 -0.3198  0.0572  0.5312
  105CHL1  H18A13984   5.782   4.326   5.631  1.5710 -2.5749 -3.6238
  105CHL1  H18B13985   5.867   4.380   5.776  0.2119 -1.6512  1.2205
  105CHL1  H18C13986   5.929   4.433   5.620 -0.7287 -0.0115  0.0451
  105CHL1   C1213987   5.929   4.115   5.787 -0.5165 -0.7649 -0.1530
  105CHL1  H12A13988   5.826   4.088   5.756  0.0592 -0.0958 -2.9507
  105CHL1  H12B13989   5.990   4.024   5.770 -1.0592 -0.9101 -1.4717
  105CHL1   C1113990   5.932   4.173   5.928 -0.5342  0.2825  0.3836
  105CHL1  H11A13991   5.848   4.245   5.934 -1.3907 -0.7632  1.2929
  105CHL1  H11B13992   5.915   4.088   5.997 -1.6465 -0.0177 -0.2336
  105CHL1    C913993   6.055   4.262   5.977  0.5026  0.7417  0.4199
  105CHL1    H913994   6.135   4.186   5.988 -1.0001 -0.7081  1.8368
  105CHL1   C1013995   6.043   4.332   6.109  0.0798 -0.6450 -0.0706
  105CHL1   C1913996   5.927   4.433   6.111  0.1909  0.0796  0.2000
  105CHL1  H19A13997   5.827   4.396   6.080  0.8252 -2.2259  0.7318
  105CHL1  H19B13998   5.916   4.471   6.215  2.1136 -0.0159  0.4680
  105CHL1  H19C13999   5.946   4.529   6.059 -2.7762  1.0493  0.7101
  105CHL1    C114000   6.017   4.231   6.228  0.5199 -0.0279 -0.3089
  105CHL1   H1A14001   5.913   4.202   6.204  0.3018  0.2809  0.2542
  105CHL1   H1B14002   6.094   4.151   6.218  0.3020 -0.1596 -1.0296
  105CHL1    C214003   6.037   4.286   6.370  0.0092 -0.0206 -0.1663
  105CHL1   H2A14004   6.050   4.202   6.441  1.1979  0.4052  0.1483
  105CHL1   H2B14005   5.954   4.352   6.404 -0.6274 -0.8093 -0.1780
  105CHL1   C2014006   5.924   4.136   5.435  0.2415 -0.1807 -0.1620
  105CHL1   H2014007   5.870   4.230   5.413 -2.2740 -1.1111  1.6497
  105CHL1   C2114008   5.808   4.042   5.481  0.3718  0.2913 -0.4815
  105CHL1  H21A14009   5.746   4.103   5.551  1.5202  1.2636 -0.2840
  105CHL1  H21B14010   5.846   3.951   5.531  0.1870  0.1805 -0.5422
  105CHL1  H21C14011   5.734   4.029   5.399 -1.4552 -0.3270  1.1752
  105CHL1   C2214012   5.996   4.084   5.306  0.0939  0.2592  0.1904
  105CHL1  H22A14013   5.925   4.132   5.234 -1.4078  0.5929  1.8251
  105CHL1  H22B14014   6.099   4.123   5.290 -0.7427  1.7274 -2.2007
  105CHL1   C2314015   5.988   3.935   5.276  0.0574 -0.5858  0.2558
  105CHL1  H23A14016   6.031   3.891   5.369 -0.6019 -0.1280  0.7867
  105CHL1  H23B14017   5.883   3.901   5.263  0.5835 -2.0345 -0.4623
  105CHL1   C2414018   6.065   3.891   5.148  0.3339  0.4887  0.3693
  105CHL1  H24A14019   6.020   3.930   5.054  1.2740 -0.7690 -0.6533
  105CHL1  H24B14020   6.167   3.929   5.127 -0.5540  2.5743 -0.4609
  105CHL1   C2514021   6.087   3.739   5.134 -0.1626 -0.1393 -0.0921
  105CHL1   H2514022   5.988   3.690   5.133 -0.2583  0.0559 -0.1717
  105CHL1   C2614023   6.132   3.704   4.992  0.3266  0.4896 -0.0977
  105CHL1  H26A14024   6.230   3.755   4.974  1.1096 -1.8085 -3.1253
  105CHL1  H26B14025   6.158   3.596   4.986  3.0251  0.9237  1.7661
  105CHL1  H26C14026   6.061   3.726   4.910  0.8120 -2.4038 -1.4147
  105CHL1   C2714027   6.181   3.671   5.230  0.3809  0.4083 -0.1742
  105CHL1  H27A14028   6.178   3.720   5.330 -3.1168  1.2537 -0.5585
  105CHL1  H27B14029   6.166   3.561   5.224  1.5425  0.2461 -0.4007
  105CHL1  H27C14030   6.285   3.693   5.197  0.0244  1.0305 -0.9267
  106CHL1    C314031   1.556   1.123   6.474  0.8195  0.1290  0.6873
  106CHL1    H314032   1.536   1.016   6.454 -1.2347  0.5943 -0.0487
  106CHL1    O314033   1.578   1.128   6.612 -0.3766 -0.4023  0.4340
  106CHL1   H3'14034   1.525   1.054   6.642 -1.6648 -0.4802 -1.8999
  106CHL1    C414035   1.674   1.172   6.384 -0.6313  0.0910  0.3757
  106CHL1   H4A14036   1.720   1.268   6.415  1.2408 -0.3508 -0.9224
  106CHL1   H4B14037   1.744   1.089   6.409  0.7821  1.1791  0.1452
  106CHL1    C514038   1.642   1.173   6.236 -0.2879 -0.6074 -0.4556
  106CHL1    C614039   1.710   1.107   6.144  0.0718 -0.3228  0.0028
  106CHL1    H614040   1.796   1.051   6.181 -1.2165 -1.2675  1.6976
  106CHL1    C714041   1.681   1.105   5.995  0.2277 -0.1124 -0.0511
  106CHL1   H7A14042   1.778   1.099   5.941  0.6272  1.7172  0.4016
  106CHL1   H7B14043   1.625   1.015   5.962  0.2717  0.5109 -1.9508
  106CHL1    C814044   1.594   1.230   5.953 -1.3866 -0.2730  0.5451
  106CHL1    H814045   1.652   1.324   5.968 -1.4000 -0.3102  0.8410
  106CHL1   C1414046   1.541   1.215   5.816  0.3458  0.0529  0.6993
  106CHL1   H1414047   1.493   1.115   5.826 -0.3917  0.4645  1.3713
  106CHL1   C1514048   1.641   1.191   5.701 -0.1949  0.2336  0.3996
  106CHL1  H15A14049   1.721   1.268   5.705 -1.2137  1.3756 -0.2797
  106CHL1  H15B14050   1.679   1.087   5.693 -0.3577  0.2884 -1.4666
  106CHL1   C1614051   1.570   1.243   5.579  1.0527 -0.2893  0.3502
  106CHL1  H16A14052   1.630   1.328   5.539 -0.7251  0.9356  0.1870
  106CHL1  H16B14053   1.568   1.174   5.492  1.6199  0.4737 -0.2821
  106CHL1   C1714054   1.430   1.283   5.617  0.5548 -0.2194  0.4542
  106CHL1   H1714055   1.363   1.194   5.610  1.9235 -1.2753  0.4662
  106CHL1   C1314056   1.443   1.326   5.764  0.1908 -0.2425 -0.1756
  106CHL1   C1814057   1.512   1.464   5.771 -0.1395 -0.1239  0.1429
  106CHL1  H18A14058   1.547   1.476   5.876 -0.1401 -0.1417  0.1449
  106CHL1  H18B14059   1.605   1.464   5.709 -0.2836 -1.9306 -0.1224
  106CHL1  H18C14060   1.442   1.547   5.745  0.2576  0.4589  0.8979
  106CHL1   C1214061   1.317   1.322   5.859  0.1949 -0.1316  0.1339
  106CHL1  H12A14062   1.262   1.416   5.838 -0.5563 -0.2801  1.3423
  106CHL1  H12B14063   1.254   1.234   5.839  1.8224 -0.9602 -1.7058
  106CHL1   C1114064   1.357   1.336   6.012 -0.3111 -0.3573  0.4637
  106CHL1  H11A14065   1.398   1.440   6.016  0.1267 -0.5211  0.3033
  106CHL1  H11B14066   1.262   1.331   6.069 -0.8648  0.4816 -0.3484
  106CHL1    C914067   1.477   1.247   6.057  0.0336  0.7960 -0.0015
  106CHL1    H914068   1.435   1.144   6.049  1.3773  0.3380 -1.8716
  106CHL1   C1014069   1.522   1.268   6.206  0.5178  0.0290 -0.1707
  106CHL1   C1914070   1.550   1.413   6.239  0.6209 -0.1049  0.6164
  106CHL1  H19A14071   1.468   1.477   6.202  0.7168  0.7037  1.7528
  106CHL1  H19B14072   1.564   1.418   6.349  0.2847 -2.3682  0.8028
  106CHL1  H19C14073   1.640   1.457   6.191 -0.7658  1.9315 -0.2064
  106CHL1    C114074   1.400   1.220   6.292  0.4257  0.0307 -0.2164
  106CHL1   H1A14075   1.304   1.277   6.291 -0.3718 -1.2344  0.4684
  106CHL1   H1B14076   1.367   1.117   6.264  1.1918 -0.4857  0.7107
  106CHL1    C214077   1.431   1.208   6.448  0.6546  0.6275  0.2501
  106CHL1   H2A14078   1.341   1.172   6.502  0.1821  1.6238  0.1414
  106CHL1   H2B14079   1.455   1.312   6.478  0.1522  0.4466  1.3602
  106CHL1   C2014080   1.371   1.387   5.511  0.5693 -0.4401 -0.2843
  106CHL1   H2014081   1.426   1.483   5.514 -1.8612  1.0536 -1.0880
  106CHL1   C2114082   1.231   1.410   5.551  0.4520  0.4308 -0.0827
  106CHL1  H21A14083   1.171   1.317   5.565  0.0687  0.7919  0.7696
  106CHL1  H21B14084   1.183   1.470   5.471  0.6633 -0.9545 -1.2826
  106CHL1  H21C14085   1.230   1.466   5.647 -0.8396 -0.5003  0.4957
  106CHL1   C2214086   1.380   1.329   5.369 -0.1326  0.1748 -0.5313
  106CHL1  H22A14087   1.478   1.281   5.345  0.6344  0.9435  0.8942
  106CHL1  H22B14088   1.298   1.257   5.350 -0.5134  0.4836 -0.0735
  106CHL1   C2314089   1.363   1.439   5.263 -0.5007 -0.6872 -0.0375
  106CHL1  H23A14090   1.273   1.504   5.274  0.9127  1.4957 -0.7241
  106CHL1  H23B14091   1.454   1.499   5.280 -0.0857 -1.0334 -0.9699
  106CHL1   C2414092   1.378   1.380   5.115  0.2907  0.0596 -1.0110
  106CHL1  H24A14093   1.480   1.339   5.102  0.3609  0.1661 -0.8058
  106CHL1  H24B14094   1.312   1.292   5.100 -0.5968  0.4148  0.5788
  106CHL1   C2514095   1.363   1.492   5.003 -0.1844  0.9066  0.1562
  106CHL1   H2514096   1.408   1.582   5.050  1.5470 -0.4618  1.2601
  106CHL1   C2614097   1.445   1.459   4.881  0.1662  0.0133  0.0284
  106CHL1  H26A14098   1.428   1.530   4.797 -4.0513 -0.4214  0.2606
  106CHL1  H26B14099   1.555   1.470   4.891  0.0323  2.0430 -0.1511
  106CHL1  H26C14100   1.416   1.364   4.832 -3.3824  0.8813  0.1482
  106CHL1   C2714101   1.210   1.502   4.969  0.2456 -0.9114  0.0953
  106CHL1  H27A14102   1.174   1.407   4.924  1.7324 -1.1510 -0.6328
  106CHL1  H27B14103   1.138   1.526   5.051 -1.4597 -3.0624 -0.6706
  106CHL1  H27C14104   1.199   1.572   4.883 -0.2996 -1.1650 -0.0488
  107CHL1    C314105   2.972   4.879   6.225 -0.1160  0.4561  0.0626
  107CHL1    H314106   2.997   4.986   6.242 -0.0537  0.6679 -1.2382
  107CHL1    O314107   2.933   4.829   6.348  0.1532  0.0332 -0.3760
  107CHL1   H3'14108   2.884   4.906   6.377  0.5573  0.6755 -1.3336
  107CHL1    C414109   2.860   4.888   6.125  0.3706 -0.1248  0.0511
  107CHL1   H4A14110   2.833   4.785   6.092  3.2023 -1.6423  2.0653
  107CHL1   H4B14111   2.770   4.936   6.169  0.6347 -1.2758  1.9473
  107CHL1    C514112   2.896   4.968   5.998 -0.4809  0.0316 -0.4590
  107CHL1    C614113   2.832   5.071   5.943  0.2633  0.0988 -0.0148
  107CHL1    H614114   2.738   5.111   5.984  1.1510  0.1484  2.0859
  107CHL1    C714115   2.863   5.143   5.817 -0.1343  0.3175  0.3201
  107CHL1   H7A14116   2.773   5.140   5.751 -0.3835 -1.2970  0.6861
  107CHL1   H7B14117   2.886   5.249   5.839  0.3969  0.2688  0.0010
  107CHL1    C814118   2.971   5.078   5.735 -0.0138  0.8613  0.7384
  107CHL1    H814119   2.921   5.010   5.664 -0.5088  2.3312 -0.3774
  107CHL1   C1414120   3.049   5.177   5.648 -0.1498  0.2461  0.1368
  107CHL1   H1414121   3.099   5.246   5.719  2.3344 -0.6694 -0.6492
  107CHL1   C1514122   2.964   5.263   5.554  0.7789  0.4572 -0.8688
  107CHL1  H15A14123   2.872   5.214   5.516  0.2982  1.7743 -1.4596
  107CHL1  H15B14124   2.925   5.344   5.620  0.9741  0.2030 -0.4363
  107CHL1   C1614125   3.050   5.311   5.444 -0.2097  0.1621  0.0953
  107CHL1  H16A14126   3.003   5.279   5.349 -0.7985 -1.1957  0.8008
  107CHL1  H16B14127   3.078   5.418   5.456 -1.9397  0.6034  0.4836
  107CHL1   C1714128   3.188   5.230   5.458  0.4399 -0.3783 -0.6049
  107CHL1   H1714129   3.254   5.287   5.526 -1.0514 -0.8188  1.2858
  107CHL1   C1314130   3.148   5.112   5.550  0.1328  0.1283  0.6040
  107CHL1   C1814131   3.085   4.999   5.454  0.1837 -0.0360  0.5605
  107CHL1  H18A14132   3.028   4.920   5.509  0.3077  0.4933  1.4790
  107CHL1  H18B14133   3.006   5.046   5.391 -0.0931 -0.9775  0.1783
  107CHL1  H18C14134   3.167   4.960   5.391 -0.3912  0.6400 -0.6273
  107CHL1   C1214135   3.256   5.051   5.640 -0.0185  0.3282 -0.4090
  107CHL1  H12A14136   3.339   5.000   5.589  0.9763  1.4542  0.0262
  107CHL1  H12B14137   3.304   5.138   5.690 -2.5101 -0.2331  3.4168
  107CHL1   C1114138   3.200   4.957   5.750 -0.4247  0.1917 -0.3408
  107CHL1  H11A14139   3.174   4.862   5.699 -1.9847 -0.0641  0.8580
  107CHL1  H11B14140   3.286   4.943   5.819 -1.1532 -0.6859  0.4049
  107CHL1    C914141   3.074   5.012   5.828 -0.3713  0.1682  0.3176
  107CHL1    H914142   3.110   5.088   5.901  2.4262  0.0552 -0.8069
  107CHL1   C1014143   3.020   4.906   5.935 -0.7908 -0.1677  0.4144
  107CHL1   C1914144   2.974   4.787   5.851 -0.2676 -0.0832  0.5252
  107CHL1  H19A14145   2.901   4.719   5.899 -1.0693 -1.3332 -2.2376
  107CHL1  H19B14146   2.919   4.808   5.756 -1.8465 -0.2111  1.3832
  107CHL1  H19C14147   3.057   4.724   5.813 -0.9613  0.0169 -1.2416
  107CHL1    C114148   3.131   4.862   6.032  0.0340 -0.5800 -0.5768
  107CHL1   H1A14149   3.204   4.794   5.983 -0.4572  0.7826 -3.4369
  107CHL1   H1B14150   3.181   4.956   6.064 -2.1909 -0.3287  2.5319
  107CHL1    C214151   3.081   4.799   6.161  0.3310 -0.1624 -0.3894
  107CHL1   H2A14152   3.164   4.781   6.233  1.8092 -0.5527 -2.1134
  107CHL1   H2B14153   3.040   4.699   6.135  1.9888 -1.0179  0.1435
  107CHL1   C2014154   3.265   5.226   5.325  0.3280 -0.1596  0.3192
  107CHL1   H2014155   3.207   5.166   5.252 -2.1456  2.0549  0.3004
  107CHL1   C2114156   3.397   5.151   5.353 -0.1936 -0.3516 -1.0313
  107CHL1  H21A14157   3.385   5.044   5.381 -0.4551 -0.2589 -0.7861
  107CHL1  H21B14158   3.451   5.204   5.434 -1.6313 -2.5805  1.5409
  107CHL1  H21C14159   3.474   5.148   5.273  1.4817 -0.9483  0.5586
  107CHL1   C2214160   3.282   5.367   5.259 -0.5014 -0.1807 -0.0875
  107CHL1  H22A14161   3.349   5.350   5.172  0.9600  0.1553  0.9196
  107CHL1  H22B14162   3.192   5.408   5.209  0.4945  0.9111 -1.0403
  107CHL1   C2314163   3.343   5.480   5.345  0.4786 -0.5887 -0.0676
  107CHL1  H23A14164   3.280   5.493   5.436  0.7796 -1.0341  0.2094
  107CHL1  H23B14165   3.444   5.451   5.382 -0.2553 -3.2924  0.0433
  107CHL1   C2414166   3.349   5.612   5.262 -0.0822 -0.2097  0.2222
  107CHL1  H24A14167   3.245   5.649   5.247 -0.0988  0.3189  1.5133
  107CHL1  H24B14168   3.396   5.689   5.327 -2.2888 -0.5529  2.3673
  107CHL1   C2514169   3.438   5.597   5.127 -0.3881  0.2480 -0.2159
  107CHL1   H2514170   3.385   5.526   5.059 -1.1785  0.6833 -0.0738
  107CHL1   C2614171   3.440   5.729   5.045  0.2175  0.0406  0.3062
  107CHL1  H26A14172   3.335   5.765   5.031  0.0781  1.5436  4.0509
  107CHL1  H26B14173   3.495   5.801   5.110 -0.3227 -0.1564  0.9950
  107CHL1  H26C14174   3.491   5.721   4.947 -1.4644  1.1579 -0.7123
  107CHL1   C2714175   3.581   5.542   5.149  0.4370  0.5133  0.2484
  107CHL1  H27A14176   3.632   5.515   5.054  1.4348  4.4265 -0.5401
  107CHL1  H27B14177   3.637   5.620   5.205 -0.7709  2.0685 -0.6170
  107CHL1  H27C14178   3.576   5.448   5.207 -1.2384  0.7824  0.5921
  108CHL1    C314179   6.318   4.002   6.428  0.4573 -0.2673 -0.2213
  108CHL1    H314180   6.217   4.046   6.411 -0.1863 -1.3097  0.7941
  108CHL1    O314181   6.335   3.986   6.567 -0.6744 -0.6527 -0.4030
  108CHL1   H3'14182   6.274   3.917   6.593 -1.9092  0.7342  0.5358
  108CHL1    C414183   6.326   3.865   6.360  0.1414 -0.0199 -0.3603
  108CHL1   H4A14184   6.416   3.818   6.403  0.8355 -1.6943 -3.3912
  108CHL1   H4B14185   6.239   3.805   6.394  1.0176 -1.3359 -0.3816
  108CHL1    C514186   6.325   3.876   6.205  0.3239  0.5016  0.1964
  108CHL1    C614187   6.234   3.813   6.130  0.0969  0.1893  0.0945
  108CHL1    H614188   6.164   3.741   6.176 -2.4810  0.8139 -2.6191
  108CHL1    C714189   6.239   3.828   5.977 -0.1882  0.2752 -0.3337
  108CHL1   H7A14190   6.210   3.731   5.933  0.7147 -1.7761  3.1894
  108CHL1   H7B14191   6.149   3.893   5.967 -0.2536  0.6511  2.1044
  108CHL1    C814192   6.374   3.878   5.917  0.1070  1.2327  0.3263
  108CHL1    H814193   6.436   3.787   5.933 -2.0534 -0.4913 -0.5320
  108CHL1   C1414194   6.357   3.908   5.772  0.2676  0.2264  0.3145
  108CHL1   H1414195   6.285   3.992   5.776  0.9198  0.7710  0.8308
  108CHL1   C1514196   6.294   3.800   5.685 -0.6934 -0.1226  0.0967
  108CHL1  H15A14197   6.352   3.706   5.696  0.3959  0.4707 -0.3878
  108CHL1  H15B14198   6.185   3.782   5.697 -0.6666 -0.5039 -0.1899
  108CHL1   C1614199   6.330   3.856   5.543  0.2182  0.7163 -0.0593
  108CHL1  H16A14200   6.377   3.777   5.481 -0.1475  0.9823 -0.6769
  108CHL1  H16B14201   6.248   3.899   5.483 -1.3563 -0.4612  1.1791
  108CHL1   C1714202   6.436   3.966   5.565 -0.7528 -0.1309  1.0151
  108CHL1   H1714203   6.374   4.058   5.564 -0.7903 -0.0793  3.1497
  108CHL1   C1314204   6.487   3.966   5.707  0.5744  0.4815 -0.3083
  108CHL1   C1814205   6.599   3.857   5.728  0.6221  0.6706  0.8044
  108CHL1  H18A14206   6.648   3.871   5.826  2.3952  1.5206 -0.1405
  108CHL1  H18B14207   6.561   3.753   5.717  2.3775 -0.0361  1.0610
  108CHL1  H18C14208   6.681   3.873   5.654  0.5959  2.1297  1.0738
  108CHL1   C1214209   6.520   4.096   5.778  0.3189 -0.6469  0.5683
  108CHL1  H12A14210   6.618   4.138   5.744  0.1129 -0.7714 -0.1974
  108CHL1  H12B14211   6.434   4.162   5.754  0.8327 -0.6977 -1.6857
  108CHL1   C1114212   6.530   4.076   5.928  0.1455 -0.1113  0.8001
  108CHL1  H11A14213   6.629   4.035   5.955  0.7545  0.7360 -0.1019
  108CHL1  H11B14214   6.532   4.170   5.985  1.8774 -0.4585  1.3729
  108CHL1    C914215   6.413   4.000   5.994 -0.5623  0.1407 -0.2186
  108CHL1    H914216   6.326   4.068   5.981  0.0651  0.6183 -2.1460
  108CHL1   C1014217   6.428   3.977   6.151  0.0807  0.1607  0.0507
  108CHL1   C1914218   6.567   3.908   6.176  1.0531 -0.6344  0.5127
  108CHL1  H19A14219   6.643   3.973   6.127 -0.6949  2.8638  2.0786
  108CHL1  H19B14220   6.598   3.888   6.281 -1.8489  0.9921  1.7970
  108CHL1  H19C14221   6.573   3.810   6.124  0.9149 -0.7545  0.7225
  108CHL1    C114222   6.424   4.111   6.218 -0.3230  0.3328 -0.8243
  108CHL1   H1A14223   6.509   4.177   6.188  0.8426  0.4398  2.3820
  108CHL1   H1B14224   6.326   4.156   6.190  0.1936  0.8436 -1.9076
  108CHL1    C214225   6.427   4.094   6.371 -0.3177  0.3690 -0.4726
  108CHL1   H2A14226   6.428   4.187   6.431 -0.7931  0.1920 -0.1804
  108CHL1   H2B14227   6.524   4.042   6.386 -0.2062  0.3604 -1.1979
  108CHL1   C2014228   6.529   3.974   5.437  0.7756  0.2142  0.2268
  108CHL1   H2014229   6.594   3.884   5.444 -0.2804 -0.4346  3.4216
  108CHL1   C2114230   6.620   4.098   5.462 -0.3102 -0.0509  0.5073
  108CHL1  H21A14231   6.564   4.193   5.476  1.0035  1.1712 -1.8298
  108CHL1  H21B14232   6.698   4.116   5.385 -1.7237  0.8819 -0.7501
  108CHL1  H21C14233   6.686   4.098   5.552  0.5203  1.9746 -0.0404
  108CHL1   C2214234   6.452   3.979   5.306 -0.0223 -0.6306 -0.1431
  108CHL1  H22A14235   6.393   3.885   5.296 -1.5857  0.4217 -1.0614
  108CHL1  H22B14236   6.382   4.065   5.305  0.2140 -0.3981  1.5454
  108CHL1   C2314237   6.537   3.981   5.179  0.3255 -0.2158  0.2644
  108CHL1  H23A14238   6.606   4.067   5.191  2.6438 -2.0845  1.0937
  108CHL1  H23B14239   6.605   3.893   5.179 -2.1189 -2.2237  0.2121
  108CHL1   C2414240   6.454   3.981   5.052 -0.1258  0.8752 -0.0253
  108CHL1  H24A14241   6.419   3.876   5.039  1.6088  0.2765 -0.2030
  108CHL1  H24B14242   6.365   4.046   5.062 -0.4426  0.2227  1.6443
  108CHL1   C2514243   6.538   4.010   4.920  0.4762  0.5299 -0.4720
  108CHL1   H2514244   6.586   4.110   4.915  0.8019  0.3748 -0.4565
  108CHL1   C2614245   6.651   3.905   4.895  0.2104  0.9029  0.5526
  108CHL1  H26A14246   6.713   3.933   4.807 -0.2604  0.9717  0.2386
  108CHL1  H26B14247   6.712   3.894   4.987  0.1238 -1.0886  0.4150
  108CHL1  H26C14248   6.615   3.805   4.863  2.3854  0.0744  0.4802
  108CHL1   C2714249   6.446   4.002   4.794  0.6135 -0.0490 -0.4602
  108CHL1  H27A14250   6.382   4.093   4.797 -0.0250 -0.4256 -1.7474
  108CHL1  H27B14251   6.509   4.017   4.703 -0.4849  1.2438 -1.0408
  108CHL1  H27C14252   6.378   3.914   4.794 -0.9430  1.0716  1.9178
  109CHL1    C314253   1.565   4.714   6.552  0.2323  0.0129 -0.8032
  109CHL1    H314254   1.461   4.752   6.549  0.7025  1.3631 -0.5411
  109CHL1    O314255   1.587   4.676   6.683 -0.3141  0.2676  0.2466
  109CHL1   H3'14256   1.683   4.670   6.691 -0.3687  0.1346  0.9416
  109CHL1    C414257   1.578   4.592   6.466 -0.1475  0.4582  0.2991
  109CHL1   H4A14258   1.677   4.542   6.475 -0.2047 -0.0981 -1.6895
  109CHL1   H4B14259   1.501   4.518   6.497  0.9805 -0.7452  0.3108
  109CHL1    C514260   1.573   4.624   6.320 -0.0295  0.3605 -0.6143
  109CHL1    C614261   1.478   4.565   6.248  0.2432  0.2911  0.6890
  109CHL1    H614262   1.401   4.505   6.300 -1.0341  1.2256 -0.0523
  109CHL1    C714263   1.460   4.599   6.104  0.2558  0.4528 -0.1396
  109CHL1   H7A14264   1.437   4.507   6.045  1.8088 -1.0265  1.4316
  109CHL1   H7B14265   1.384   4.680   6.094  0.4182  0.3886 -2.1810
  109CHL1    C814266   1.586   4.658   6.038 -0.3279  0.1558 -0.1410
  109CHL1    H814267   1.670   4.585   6.030  1.1897  1.9942 -2.6010
  109CHL1   C1414268   1.562   4.711   5.899 -0.2573  0.1685  0.8112
  109CHL1   H1414269   1.482   4.788   5.910 -1.2465 -0.1406 -2.8740
  109CHL1   C1514270   1.505   4.615   5.800 -0.6267 -0.0948 -0.4390
  109CHL1  H15A14271   1.567   4.524   5.789 -2.3228 -1.2659 -0.6647
  109CHL1  H15B14272   1.399   4.589   5.821 -1.2392  1.5150 -1.3046
  109CHL1   C1614273   1.515   4.691   5.665 -0.2192 -0.1596 -1.5261
  109CHL1  H16A14274   1.562   4.625   5.588  2.5220  1.7824 -1.6762
  109CHL1  H16B14275   1.418   4.732   5.630 -1.4657 -1.5897  0.0899
  109CHL1   C1714276   1.625   4.799   5.686  0.5068  0.1050 -0.5112
  109CHL1   H1714277   1.573   4.896   5.699  2.1288  0.6756  2.9235
  109CHL1   C1314278   1.682   4.767   5.828 -0.3081  0.6762 -0.8445
  109CHL1   C1814279   1.799   4.666   5.812  0.6145  0.1462 -0.7058
  109CHL1  H18A14280   1.830   4.620   5.908 -1.2201  1.2405  0.4738
  109CHL1  H18B14281   1.774   4.581   5.746 -1.0308 -0.8509  1.0730
  109CHL1  H18C14282   1.886   4.716   5.763  0.3613 -1.3996 -2.8590
  109CHL1   C1214283   1.718   4.895   5.909 -0.4078 -0.0926  0.0450
  109CHL1  H12A14284   1.803   4.954   5.868 -0.3800  0.3058  0.6504
  109CHL1  H12B14285   1.625   4.954   5.921 -0.9592 -1.2823  2.0951
  109CHL1   C1114286   1.750   4.858   6.053  0.3213  0.1547  0.0279
  109CHL1  H11A14287   1.840   4.794   6.071 -1.0429 -1.5910  1.0372
  109CHL1  H11B14288   1.766   4.949   6.115 -2.6582 -0.0979  1.3237
  109CHL1    C914289   1.630   4.776   6.119 -0.3060  0.3657 -0.1483
  109CHL1    H914290   1.548   4.850   6.131 -2.2185 -1.7104  0.0711
  109CHL1   C1014291   1.672   4.733   6.267  0.0708  0.3138 -0.0361
  109CHL1   C1914292   1.815   4.674   6.280  0.2466  0.5938 -0.4628
  109CHL1  H19A14293   1.823   4.602   6.196 -2.6557  0.7861 -0.9985
  109CHL1  H19B14294   1.899   4.746   6.285 -1.4394  2.5703  1.8918
  109CHL1  H19C14295   1.836   4.618   6.374 -0.3988  0.9819 -0.0785
  109CHL1    C114296   1.662   4.854   6.364  0.1813 -0.2751  0.4000
  109CHL1   H1A14297   1.735   4.932   6.333 -0.8349  0.1083 -1.1700
  109CHL1   H1B14298   1.561   4.896   6.349 -0.4695 -1.7770  0.3844
  109CHL1    C214299   1.664   4.823   6.518  0.3956  0.1384 -0.4744
  109CHL1   H2A14300   1.641   4.902   6.592 -0.5086 -1.5991  1.1665
  109CHL1   H2B14301   1.768   4.790   6.542  0.3190  0.2033 -0.0650
  109CHL1   C2014302   1.720   4.822   5.565 -0.2558 -0.6869  0.3840
  109CHL1   H2014303   1.777   4.728   5.553 -0.3356 -0.4392 -2.8518
  109CHL1   C2114304   1.808   4.942   5.594 -0.0764  0.0408 -0.4654
  109CHL1  H21A14305   1.865   4.961   5.501 -0.1367  1.3944 -0.2522
  109CHL1  H21B14306   1.876   4.930   5.681 -1.0318 -1.9274  0.0655
  109CHL1  H21C14307   1.744   5.033   5.599 -0.3844 -0.1979  0.0793
  109CHL1   C2214308   1.634   4.837   5.430  0.5204 -0.1782  0.3212
  109CHL1  H22A14309   1.715   4.841   5.354  0.5736  1.3242  0.4338
  109CHL1  H22B14310   1.583   4.744   5.396  0.5546  0.8173 -2.8228
  109CHL1   C2314311   1.552   4.963   5.419 -0.4703 -0.3548  0.3021
  109CHL1  H23A14312   1.474   4.962   5.498 -0.7692 -0.3023  0.0091
  109CHL1  H23B14313   1.612   5.056   5.426 -0.5335 -0.0402 -2.3901
  109CHL1   C2414314   1.467   4.976   5.290  0.8525  0.4634  0.1144
  109CHL1  H24A14315   1.408   4.882   5.279  0.5189  0.9261 -3.2579
  109CHL1  H24B14316   1.398   5.062   5.308  0.0771 -0.0877 -0.1356
  109CHL1   C2514317   1.557   4.982   5.160  0.3973 -0.1102  0.0957
  109CHL1   H2514318   1.621   4.891   5.163  1.8104  0.8885  2.4192
  109CHL1   C2614319   1.471   4.974   5.028  0.4093  0.2614  0.0595
  109CHL1  H26A14320   1.539   4.957   4.941 -0.1222  0.2476 -0.3560
  109CHL1  H26B14321   1.396   4.892   5.033 -0.5432  1.0035 -1.3763
  109CHL1  H26C14322   1.418   5.071   5.020 -1.6380 -0.7221  1.0925
  109CHL1   C2714323   1.661   5.093   5.158  0.2031  0.2772 -0.0291
  109CHL1  H27A14324   1.615   5.192   5.179  1.1269  1.0818 -1.6178
  109CHL1  H27B14325   1.752   5.075   5.220  0.9678  0.9594 -0.9264
  109CHL1  H27C14326   1.692   5.111   5.053 -2.2949  1.5700 -0.6020
  110CHL1    C314327   1.350   4.098   6.404  0.5748 -0.0308  0.3109
  110CHL1    H314328   1.373   4.011   6.339 -0.0597  1.6478 -2.3134
  110CHL1    O314329   1.430   4.072   6.524 -0.1345  0.5004 -0.1966
  110CHL1   H3'14330   1.400   3.987   6.556  2.0924 -1.1873 -2.2271
  110CHL1    C414331   1.376   4.231   6.333  0.5877  0.2575  0.4395
  110CHL1   H4A14332   1.363   4.319   6.400 -3.0796 -0.8623  1.3839
  110CHL1   H4B14333   1.485   4.234   6.312  0.7356 -1.2477  0.8923
  110CHL1    C514334   1.289   4.240   6.205  0.1856 -0.1559 -0.4359
  110CHL1    C614335   1.365   4.232   6.089 -0.3408  0.4565 -0.3487
  110CHL1    H614336   1.475   4.237   6.092 -0.2804 -0.8249  1.4357
  110CHL1    C714337   1.303   4.228   5.955  0.9752 -1.0130 -0.4746
  110CHL1   H7A14338   1.366   4.297   5.896  1.3102 -1.1238 -0.2509
  110CHL1   H7B14339   1.311   4.124   5.918  0.2814 -1.4517  0.5546
  110CHL1    C814340   1.148   4.268   5.966 -0.1190  0.2248  0.6918
  110CHL1    H814341   1.154   4.377   5.989  1.4686  1.2848 -3.6688
  110CHL1   C1414342   1.076   4.253   5.834 -0.4506 -0.1279  0.1835
  110CHL1   H1414343   1.097   4.146   5.810 -1.0430 -0.1343 -0.3224
  110CHL1   C1514344   1.139   4.314   5.705 -0.3086 -0.0474  0.2192
  110CHL1  H15A14345   1.164   4.421   5.719  1.3272 -0.5421  1.3524
  110CHL1  H15B14346   1.231   4.261   5.672  1.4968  2.4261  1.0225
  110CHL1   C1614347   1.025   4.306   5.608  0.3160  0.0282  0.0904
  110CHL1  H16A14348   0.992   4.411   5.589  0.0964 -0.1330 -0.4391
  110CHL1  H16B14349   1.039   4.251   5.513  0.4867  1.4439 -0.7353
  110CHL1   C1714350   0.902   4.243   5.683 -0.2065  0.8964  0.2246
  110CHL1   H1714351   0.912   4.134   5.669 -0.6347  0.2838  3.7508
  110CHL1   C1314352   0.920   4.281   5.835  0.0517  0.3591  0.0497
  110CHL1   C1814353   0.894   4.433   5.857 -0.4450 -0.3210  0.1751
  110CHL1  H18A14354   0.953   4.492   5.784  0.5076 -0.4757  0.7958
  110CHL1  H18B14355   0.785   4.448   5.847 -0.8556 -1.9465  1.6398
  110CHL1  H18C14356   0.943   4.473   5.949  2.0250 -0.3232 -1.0458
  110CHL1   C1214357   0.860   4.188   5.939  0.4480 -0.0920 -0.6238
  110CHL1  H12A14358   0.749   4.198   5.938  0.5489  1.2074 -0.7742
  110CHL1  H12B14359   0.881   4.081   5.916 -0.0876 -0.7606  1.7142
  110CHL1   C1114360   0.918   4.207   6.077 -0.3260  0.0162 -0.3700
  110CHL1  H11A14361   0.883   4.306   6.113  0.9097  0.7014 -1.0150
  110CHL1  H11B14362   0.877   4.132   6.148 -0.1071 -0.3009 -0.5775
  110CHL1    C914363   1.077   4.198   6.083 -0.2292 -0.0848  0.1827
  110CHL1    H914364   1.097   4.089   6.072 -0.2975 -0.1251  0.4671
  110CHL1   C1014365   1.136   4.232   6.217 -0.9529 -0.3756  0.3061
  110CHL1   C1914366   1.089   4.361   6.278  0.4690 -0.3166  0.0542
  110CHL1  H19A14367   1.127   4.454   6.230  0.8520  0.0213  1.0015
  110CHL1  H19B14368   0.981   4.385   6.283  0.6537  0.6771 -0.3413
  110CHL1  H19C14369   1.140   4.370   6.376 -1.8944 -2.7745  1.6503
  110CHL1    C114370   1.109   4.115   6.319  0.3720 -0.3112  0.0849
  110CHL1   H1A14371   1.003   4.124   6.351  0.8991  1.3146  1.5375
  110CHL1   H1B14372   1.123   4.017   6.270 -0.6427 -0.9920  1.1033
  110CHL1    C214373   1.198   4.098   6.440 -0.0860  0.2667  0.7250
  110CHL1   H2A14374   1.183   4.002   6.493  3.4515 -1.3492 -0.8121
  110CHL1   H2B14375   1.191   4.183   6.510  2.1385  1.0932  0.0627
  110CHL1   C2014376   0.761   4.269   5.618  0.4157  0.3972 -0.0566
  110CHL1   H2014377   0.740   4.376   5.641  0.1818  0.6447 -1.3693
  110CHL1   C2114378   0.650   4.183   5.682  0.6415 -0.5319 -0.3214
  110CHL1  H21A14379   0.631   4.228   5.781 -0.1753  0.4762 -0.9156
  110CHL1  H21B14380   0.678   4.077   5.697  1.1401 -0.6751 -2.0035
  110CHL1  H21C14381   0.557   4.173   5.623  0.2172 -0.4575  0.3282
  110CHL1   C2214382   0.763   4.272   5.464  0.5191 -0.4938  0.0358
  110CHL1  H22A14383   0.670   4.321   5.428 -0.0876 -2.2146 -0.8374
  110CHL1  H22B14384   0.848   4.327   5.417 -0.4097 -0.3264 -1.5185
  110CHL1   C2314385   0.778   4.137   5.404 -0.4600  0.1800 -0.1697
  110CHL1  H23A14386   0.885   4.113   5.418 -0.8382 -1.3584  0.3074
  110CHL1  H23B14387   0.724   4.061   5.464  0.7908 -2.1006 -1.7648
  110CHL1   C2414388   0.746   4.141   5.258  0.2410 -0.4678  0.2136
  110CHL1  H24A14389   0.636   4.152   5.249  0.6105  2.3387 -2.3562
  110CHL1  H24B14390   0.790   4.230   5.209 -0.0626 -0.7675 -0.6192
  110CHL1   C2514391   0.804   4.028   5.178  0.8199  0.4331 -0.5422
  110CHL1   H2514392   0.776   3.932   5.226 -2.1774  1.2545 -0.4150
  110CHL1   C2614393   0.729   4.031   5.037 -0.1275  0.0070 -0.3175
  110CHL1  H26A14394   0.746   3.942   4.973  0.4217  1.7785 -2.7798
  110CHL1  H26B14395   0.622   4.037   5.065  0.0233  1.1239  0.0484
  110CHL1  H26C14396   0.758   4.119   4.975 -1.6922  1.7014  1.2506
  110CHL1   C2714397   0.959   4.032   5.159 -0.3478  0.7827  0.9738
  110CHL1  H27A14398   1.019   4.028   5.253  0.4878  0.8416  0.4545
  110CHL1  H27B14399   0.978   3.945   5.092 -0.6004  1.7672 -0.4253
  110CHL1  H27C14400   0.991   4.130   5.118 -0.1537  0.5942  0.6757
  111CHL1    C314401   2.476   6.747   6.362  0.2859 -0.5658  0.0263
  111CHL1    H314402   2.581   6.712   6.356  0.9915  1.4212 -0.0313
  111CHL1    O314403   2.416   6.717   6.489 -0.1382 -0.5397 -0.0901
  111CHL1   H3'14404   2.380   6.629   6.489  0.0778 -0.6557 -1.9709
  111CHL1    C414405   2.480   6.902   6.348 -0.0219  0.5216  0.1048
  111CHL1   H4A14406   2.373   6.934   6.348 -0.9173 -2.2071  0.7389
  111CHL1   H4B14407   2.534   6.943   6.436 -1.0891 -0.1175  1.0867
  111CHL1    C514408   2.545   6.946   6.223 -0.0553 -0.9598 -0.8842
  111CHL1    C614409   2.660   7.021   6.231  0.2469  0.0806 -0.6854
  111CHL1    H614410   2.692   7.058   6.329  0.4134 -2.1011  0.1430
  111CHL1    C714411   2.731   7.063   6.110 -1.0587  0.2575 -0.5331
  111CHL1   H7A14412   2.754   7.171   6.122 -0.4911  0.2003 -1.0388
  111CHL1   H7B14413   2.829   7.012   6.104 -1.6686 -0.9290 -0.5661
  111CHL1    C814414   2.646   7.044   5.980  0.4144 -0.2128 -0.6725
  111CHL1    H814415   2.556   7.108   5.980  0.6544  0.1696  0.8734
  111CHL1   C1414416   2.728   7.075   5.851  0.8944  0.3151 -0.9624
  111CHL1   H1414417   2.802   6.993   5.845  1.0691  0.4423 -0.6073
  111CHL1   C1514418   2.813   7.201   5.846  0.2791 -0.0125  0.1878
  111CHL1  H15A14419   2.766   7.297   5.878  0.3921 -0.1665  0.8245
  111CHL1  H15B14420   2.902   7.175   5.906 -1.0526 -1.5371  1.5973
  111CHL1   C1614421   2.847   7.201   5.699 -0.3553 -0.6986  0.8295
  111CHL1  H16A14422   2.821   7.302   5.663 -1.4656 -1.8287 -1.7864
  111CHL1  H16B14423   2.955   7.193   5.674 -0.3268  1.9899 -0.1752
  111CHL1   C1714424   2.763   7.100   5.619  0.4434  0.1781 -0.0507
  111CHL1   H1714425   2.831   7.013   5.624  0.7643  0.4722  1.0117
  111CHL1   C1314426   2.652   7.055   5.720 -0.0417  1.0319 -0.3404
  111CHL1   C1814427   2.542   7.163   5.706  0.4486  0.1543 -0.1003
  111CHL1  H18A14428   2.581   7.264   5.730 -1.9501  1.5548 -1.7295
  111CHL1  H18B14429   2.489   7.158   5.609 -0.2939 -0.2376  0.3154
  111CHL1  H18C14430   2.471   7.129   5.784 -1.3348  1.9907 -0.8411
  111CHL1   C1214431   2.611   6.908   5.713 -0.1549  0.5225 -0.2075
  111CHL1  H12A14432   2.567   6.890   5.613  0.3150 -0.7390 -0.2048
  111CHL1  H12B14433   2.693   6.832   5.715 -1.3770 -0.8770 -1.1670
  111CHL1   C1114434   2.519   6.874   5.834  0.5389 -0.6702 -0.5010
  111CHL1  H11A14435   2.423   6.929   5.821  0.4619 -0.4360  0.8845
  111CHL1  H11B14436   2.492   6.768   5.818  1.8441 -1.2865  1.1917
  111CHL1    C914437   2.576   6.907   5.973  0.2863 -0.0881  0.0773
  111CHL1    H914438   2.664   6.840   5.977  1.3468  1.1190 -1.7271
  111CHL1   C1014439   2.487   6.877   6.098 -0.0151 -0.1658  0.1447
  111CHL1   C1914440   2.352   6.940   6.078  0.3379  0.1841 -0.0856
  111CHL1  H19A14441   2.289   6.944   6.169  0.2579 -1.8298 -0.0235
  111CHL1  H19B14442   2.371   7.046   6.048 -0.2603  0.7015  1.3031
  111CHL1  H19C14443   2.299   6.888   5.995  1.7117 -0.2996 -0.6829
  111CHL1    C114444   2.470   6.723   6.111  0.0495  0.0827 -0.0391
  111CHL1   H1A14445   2.410   6.696   6.021  2.8033 -0.7728 -1.7654
  111CHL1   H1B14446   2.570   6.674   6.112  0.1344  0.2623  0.3032
  111CHL1    C214447   2.401   6.683   6.247 -0.3525 -0.6985  0.6079
  111CHL1   H2A14448   2.401   6.574   6.265  1.9243 -0.6105  1.3516
  111CHL1   H2B14449   2.297   6.723   6.240 -0.2766 -0.6459 -0.3394
  111CHL1   C2014450   2.734   7.137   5.470  0.4948 -0.9667 -0.1973
  111CHL1   H2014451   2.651   7.211   5.473 -0.4900 -2.0650  0.5183
  111CHL1   C2114452   2.689   7.010   5.394 -0.0269 -0.2952 -0.3049
  111CHL1  H21A14453   2.686   7.032   5.286  1.7271 -1.5804 -0.6490
  111CHL1  H21B14454   2.588   6.981   5.432  0.4019 -0.3616  0.8291
  111CHL1  H21C14455   2.758   6.927   5.417 -2.6096 -2.0766  1.6654
  111CHL1   C2214456   2.838   7.223   5.394 -0.7171  0.7616  0.3374
  111CHL1  H22A14457   2.893   7.304   5.447 -0.0901  1.3467 -1.1599
  111CHL1  H22B14458   2.912   7.147   5.362 -0.3903  1.4903 -0.6770
  111CHL1   C2314459   2.783   7.296   5.273 -0.2794  0.3134  0.7133
  111CHL1  H23A14460   2.863   7.335   5.207  1.7155 -2.8243  1.0836
  111CHL1  H23B14461   2.731   7.213   5.219 -1.7588 -1.7178  4.8525
  111CHL1   C2414462   2.662   7.395   5.294 -0.4861 -0.2364 -0.9963
  111CHL1  H24A14463   2.581   7.345   5.351 -0.1021 -0.2901 -0.4788
  111CHL1  H24B14464   2.695   7.483   5.353  2.1403 -1.5721 -0.3190
  111CHL1   C2514465   2.597   7.448   5.167 -0.1461  0.0896 -0.0451
  111CHL1   H2514466   2.562   7.551   5.189  0.6041  0.2782  0.3042
  111CHL1   C2614467   2.694   7.469   5.045 -0.0573 -0.3304 -0.9707
  111CHL1  H26A14468   2.765   7.554   5.055 -0.3091 -0.1051 -1.0903
  111CHL1  H26B14469   2.749   7.377   5.015 -0.9229 -1.3654  0.5174
  111CHL1  H26C14470   2.625   7.495   4.962 -3.9357  0.8650  2.3016
  111CHL1   C2714471   2.484   7.350   5.127 -0.6402 -0.6854  0.1710
  111CHL1  H27A14472   2.421   7.407   5.055 -0.0898  0.8624  0.8536
  111CHL1  H27B14473   2.519   7.256   5.081 -0.1263  0.9645 -3.1155
  111CHL1  H27C14474   2.416   7.324   5.210 -2.3345 -0.9312 -1.2299
  112CHL1    C314475   4.373   0.511   6.717  0.2963  0.7687 -0.2289
  112CHL1    H314476   4.276   0.484   6.670 -1.0279 -1.2630  3.2958
  112CHL1    O314477   4.340   0.514   6.855 -0.0190 -0.0598  0.1347
  112CHL1   H3'14478   4.426   0.515   6.897  0.2022  2.2731 -0.2144
  112CHL1    C414479   4.461   0.388   6.686 -0.5342  0.2411  0.3746
  112CHL1   H4A14480   4.559   0.401   6.737 -0.3396  0.9162 -0.1573
  112CHL1   H4B14481   4.426   0.292   6.729  1.2918 -0.7140 -0.1251
  112CHL1    C514482   4.491   0.373   6.533 -0.5757 -0.3177  0.1879
  112CHL1    C614483   4.470   0.256   6.471 -0.2328  0.0774 -0.4950
  112CHL1    H614484   4.425   0.174   6.529 -2.4387  1.3972 -0.2419
  112CHL1    C714485   4.493   0.225   6.326  0.2546  0.7330  0.0261
  112CHL1   H7A14486   4.550   0.130   6.317  0.0808  0.5634  0.6836
  112CHL1   H7B14487   4.391   0.207   6.284  0.4093 -0.1020 -0.0082
  112CHL1    C814488   4.574   0.345   6.251 -0.3692 -0.2319 -0.3069
  112CHL1    H814489   4.680   0.333   6.282 -0.6192  0.0432  0.6735
  112CHL1   C1414490   4.534   0.345   6.100 -0.2421  0.0679 -0.9922
  112CHL1   H1414491   4.425   0.369   6.103  0.0101  1.1302  1.0117
  112CHL1   C1514492   4.535   0.211   6.027 -0.5841  0.9418 -1.3663
  112CHL1  H15A14493   4.608   0.135   6.065 -1.2772  1.3490  0.9202
  112CHL1  H15B14494   4.432   0.174   6.043  0.0853 -0.0400  1.3832
  112CHL1   C1614495   4.540   0.251   5.888 -0.8248  0.1186 -0.0671
  112CHL1  H16A14496   4.608   0.189   5.825  1.4041 -0.4585  2.7294
  112CHL1  H16B14497   4.442   0.237   5.837 -1.9294  2.2358  1.3267
  112CHL1   C1714498   4.568   0.402   5.882 -0.0376 -0.0480 -0.2300
  112CHL1   H1714499   4.466   0.445   5.871  0.5671  1.3484 -0.6734
  112CHL1   C1314500   4.618   0.446   6.017 -0.2491 -0.0718  0.2596
  112CHL1   C1814501   4.767   0.406   6.020 -0.3327  0.7860 -0.8322
  112CHL1  H18A14502   4.837   0.469   5.961  1.2433  0.5885  0.7238
  112CHL1  H18B14503   4.801   0.416   6.125  2.4669  0.5662 -1.6398
  112CHL1  H18C14504   4.789   0.299   5.999  1.0542  0.2372  2.6813
  112CHL1   C1214505   4.591   0.587   6.072  0.5464 -0.7954 -0.5668
  112CHL1  H12A14506   4.654   0.656   6.011 -1.1826  1.3148 -0.1049
  112CHL1  H12B14507   4.485   0.616   6.055  0.9554  0.8619 -0.4461
  112CHL1   C1114508   4.606   0.603   6.231 -1.0468  0.1132  0.1079
  112CHL1  H11A14509   4.712   0.615   6.261 -1.8915  0.5916  3.3428
  112CHL1  H11B14510   4.555   0.696   6.265 -3.0657 -1.0915  0.5712
  112CHL1    C914511   4.542   0.487   6.314  0.2375  0.2409 -0.0157
  112CHL1    H914512   4.433   0.493   6.294  0.2467 -2.2930 -1.2106
  112CHL1   C1014513   4.547   0.499   6.466  0.0750  0.0756  0.2666
  112CHL1   C1914514   4.698   0.511   6.503 -0.3333  0.3519 -0.4392
  112CHL1  H19A14515   4.755   0.424   6.465 -0.6331  0.7664 -1.8749
  112CHL1  H19B14516   4.739   0.608   6.466  0.1884  1.3145  2.4113
  112CHL1  H19C14517   4.699   0.504   6.614 -1.8471 -0.3366 -0.4394
  112CHL1    C114518   4.458   0.624   6.507  0.0153  0.5036 -0.3734
  112CHL1   H1A14519   4.507   0.717   6.471  0.0041 -0.4604 -3.0909
  112CHL1   H1B14520   4.362   0.613   6.452  0.9310 -0.3270 -1.8625
  112CHL1    C214521   4.441   0.635   6.662  0.0437 -0.1526  0.1747
  112CHL1   H2A14522   4.369   0.719   6.676  0.1676  0.4397 -2.3071
  112CHL1   H2B14523   4.530   0.662   6.722 -0.7010 -1.0484  1.7436
  112CHL1   C2014524   4.649   0.443   5.762 -0.0591  0.5010  0.1580
  112CHL1   H2014525   4.751   0.401   5.772  0.3194  1.5091  0.7231
  112CHL1   C2114526   4.670   0.595   5.754  0.4021  0.1312  0.2010
  112CHL1  H21A14527   4.717   0.618   5.656  0.3996 -0.7866 -0.0303
  112CHL1  H21B14528   4.752   0.618   5.825  0.5032 -1.4889  0.6439
  112CHL1  H21C14529   4.575   0.651   5.767  0.4750 -0.2125  2.6645
  112CHL1   C2214530   4.591   0.404   5.622  0.4811  0.0192 -0.7824
  112CHL1  H22A14531   4.657   0.431   5.537  0.5853  0.8745 -0.4361
  112CHL1  H22B14532   4.581   0.294   5.610  1.0346 -0.4858  2.5417
  112CHL1   C2314533   4.444   0.460   5.594  0.4352  0.1135 -0.2268
  112CHL1  H23A14534   4.389   0.410   5.676 -0.6450 -0.4230 -1.2461
  112CHL1  H23B14535   4.444   0.569   5.613 -0.7486 -0.1062  1.2263
  112CHL1   C2414536   4.394   0.419   5.457  0.3885 -0.0530 -0.1064
  112CHL1  H24A14537   4.449   0.474   5.378  0.3633 -0.5213 -0.4538
  112CHL1  H24B14538   4.417   0.311   5.442 -3.2140 -0.8305 -1.0975
  112CHL1   C2514539   4.250   0.465   5.429 -0.5734 -0.1838 -0.0048
  112CHL1   H2514540   4.234   0.571   5.457  0.7033 -0.1288  0.5898
  112CHL1   C2614541   4.213   0.458   5.279  0.9660  0.0124 -0.0168
  112CHL1  H26A14542   4.123   0.522   5.264  2.1614  1.5667 -0.7585
  112CHL1  H26B14543   4.297   0.505   5.224  1.0796 -1.5430 -1.2709
  112CHL1  H26C14544   4.187   0.354   5.247 -0.6903  0.2004  0.6065
  112CHL1   C2714545   4.149   0.381   5.510  0.5897 -0.2805  0.3666
  112CHL1  H27A14546   4.156   0.388   5.620 -1.7667  1.2999  0.4899
  112CHL1  H27B14547   4.046   0.419   5.491  0.4929 -0.8715 -0.3685
  112CHL1  H27C14548   4.156   0.272   5.487  0.4364 -1.1534  3.9491
  113CHL1    C314549   1.017   4.796   6.495 -0.0148 -0.5146  0.4093
  113CHL1    H314550   1.050   4.898   6.525  1.8136 -0.9495  0.0409
  113CHL1    O314551   0.995   4.722   6.608  0.0330 -0.3212  0.1797
  113CHL1   H3'14552   0.992   4.632   6.576  3.0203 -0.5097  0.1216
  113CHL1    C414553   0.880   4.817   6.426 -0.0325  0.0296 -0.4487
  113CHL1   H4A14554   0.836   4.717   6.405 -0.1163  0.1158 -0.6926
  113CHL1   H4B14555   0.796   4.856   6.488 -1.3946 -0.7368 -1.7247
  113CHL1    C514556   0.903   4.886   6.290  0.0588 -0.3323  0.7356
  113CHL1    C614557   0.834   5.000   6.260 -0.4677 -0.1139  0.1020
  113CHL1    H614558   0.761   5.043   6.331  1.6457  0.7926  1.8460
  113CHL1    C714559   0.844   5.067   6.129  0.4751 -0.2347  0.4170
  113CHL1   H7A14560   0.740   5.082   6.093  0.8099  2.6898  0.4953
  113CHL1   H7B14561   0.885   5.170   6.123 -0.1026 -0.0659 -3.3267
  113CHL1    C814562   0.910   4.977   6.018 -0.1698  0.1969 -0.2567
  113CHL1    H814563   0.839   4.896   5.994 -0.5464  0.1510  0.9647
  113CHL1   C1414564   0.936   5.045   5.888  0.1222 -0.0582 -0.6936
  113CHL1   H1414565   1.013   5.122   5.912 -1.5486  1.1278  1.1984
  113CHL1   C1514566   0.819   5.120   5.820  0.5906 -0.0424  0.1450
  113CHL1  H15A14567   0.723   5.066   5.831 -0.1278  1.1503 -0.0748
  113CHL1  H15B14568   0.809   5.221   5.865  1.3752  0.0148  0.2006
  113CHL1   C1614569   0.858   5.131   5.672 -0.2930  0.8830  0.0007
  113CHL1  H16A14570   0.783   5.071   5.617  0.5588  1.0152 -1.3370
  113CHL1  H16B14571   0.851   5.235   5.632 -1.9538  0.3350 -1.2246
  113CHL1   C1714572   0.996   5.051   5.656  0.2816 -0.1722  0.0413
  113CHL1   H1714573   1.079   5.125   5.664  2.4386 -2.3862 -0.7054
  113CHL1   C1314574   1.000   4.962   5.780  0.1801 -0.0817  0.1603
  113CHL1   C1814575   0.923   4.829   5.751  0.1764  0.1655 -0.1570
  113CHL1  H18A14576   0.821   4.854   5.713 -0.3850  1.4342  2.0188
  113CHL1  H18B14577   0.989   4.772   5.682  1.1729  1.2199 -0.1200
  113CHL1  H18C14578   0.919   4.761   5.838 -0.7101  0.1737 -0.1873
  113CHL1   C1214579   1.138   4.932   5.842 -1.1880  0.7855  0.2232
  113CHL1  H12A14580   1.198   4.877   5.766 -3.5820 -2.1045  0.2785
  113CHL1  H12B14581   1.181   5.034   5.854  0.2346  0.1014  1.3040
  113CHL1   C1114582   1.131   4.857   5.975  0.2832  0.0049  0.0130
  113CHL1  H11A14583   1.090   4.760   5.941 -0.9130  1.0897 -1.8368
  113CHL1  H11B14584   1.236   4.847   6.011  0.5702  2.9517  0.2528
  113CHL1    C914585   1.041   4.919   6.079  0.0582 -0.7109  0.8013
  113CHL1    H914586   1.085   5.009   6.127 -1.2108  0.6700 -0.5046
  113CHL1   C1014587   1.013   4.821   6.195 -0.2523 -0.2387 -0.2086
  113CHL1   C1914588   0.960   4.685   6.140  0.0553  0.2080 -0.3847
  113CHL1  H19A14589   0.892   4.690   6.052 -2.2341 -0.4109  1.2305
  113CHL1  H19B14590   1.041   4.613   6.117 -1.0579 -0.9221 -0.9401
  113CHL1  H19C14591   0.886   4.637   6.208 -0.1108  2.3167  1.0191
  113CHL1    C114592   1.145   4.811   6.273 -0.3713  0.6949 -0.8740
  113CHL1   H1A14593   1.217   4.748   6.217  1.3732  0.2214  1.6890
  113CHL1   H1B14594   1.191   4.911   6.292  0.7386  0.2480 -1.1546
  113CHL1    C214595   1.127   4.729   6.408 -0.2103  0.9564 -0.3802
  113CHL1   H2A14596   1.220   4.726   6.468 -0.6188 -0.0493  0.2224
  113CHL1   H2B14597   1.105   4.625   6.377 -0.4825  1.3693 -1.6571
  113CHL1   C2014598   1.019   4.989   5.516 -0.1542  0.4332  0.3295
  113CHL1   H2014599   0.950   4.902   5.504  1.6229 -0.8987 -0.6630
  113CHL1   C2114600   1.150   4.909   5.496  0.0383  0.0237  0.1235
  113CHL1  H21A14601   1.242   4.970   5.509  0.0210 -0.0979  0.8705
  113CHL1  H21B14602   1.162   4.868   5.394 -0.9744 -2.5493  0.9627
  113CHL1  H21C14603   1.147   4.819   5.562  0.8070 -0.3083 -0.2834
  113CHL1   C2214604   0.992   5.089   5.402 -0.6484 -0.6832 -0.1797
  113CHL1  H22A14605   0.899   5.150   5.412  0.6492  1.1890  1.1661
  113CHL1  H22B14606   1.075   5.162   5.398 -1.6981  0.5241 -0.5003
  113CHL1   C2314607   0.966   5.013   5.268  0.0632 -0.4303  0.6016
  113CHL1  H23A14608   1.059   4.956   5.244 -0.5620 -1.4221  0.5122
  113CHL1  H23B14609   0.882   4.946   5.292 -0.9577 -0.3749 -2.3399
  113CHL1   C2414610   0.927   5.093   5.150  0.1098  0.0968 -0.1870
  113CHL1  H24A14611   0.831   5.144   5.175 -0.9116 -1.0116 -1.7095
  113CHL1  H24B14612   1.000   5.177   5.145 -0.6417  0.7714 -0.1893
  113CHL1   C2514613   0.916   5.001   5.022 -0.3315 -0.0745  0.8908
  113CHL1   H2514614   0.852   4.917   5.056  1.1204 -1.0956  1.1788
  113CHL1   C2614615   0.853   5.074   4.908 -0.2651 -0.5427  0.0200
  113CHL1  H26A14616   0.844   5.010   4.818  0.0179 -0.4585 -0.0692
  113CHL1  H26B14617   0.751   5.108   4.937 -0.3258  0.5333 -1.3556
  113CHL1  H26C14618   0.920   5.154   4.871  0.3486 -0.3658  1.4520
  113CHL1   C2714619   1.051   4.948   4.973  0.0337 -0.3027 -0.0598
  113CHL1  H27A14620   1.030   4.889   4.881  3.0189 -1.6646  0.0042
  113CHL1  H27B14621   1.124   5.023   4.937  2.2950 -1.9796  0.8146
  113CHL1  H27C14622   1.109   4.886   5.045 -0.2365  0.4862  0.8521
  114CHL1    C314623   5.144   0.566   6.657  0.3949 -0.5239  0.0752
  114CHL1    H314624   5.105   0.463   6.648  1.1602 -0.7138 -1.2250
  114CHL1    O314625   5.154   0.595   6.798 -0.2180 -0.3287 -0.3224
  114CHL1   H3'14626   5.187   0.515   6.840 -0.6565 -0.4735 -0.2507
  114CHL1    C414627   5.282   0.583   6.594 -0.6950 -0.2971 -0.0714
  114CHL1   H4A14628   5.325   0.680   6.626 -0.3734 -1.2142  2.5184
  114CHL1   H4B14629   5.356   0.515   6.641 -0.8822 -0.7379 -0.4041
  114CHL1    C514630   5.283   0.574   6.446  1.0701  0.1517 -0.0651
  114CHL1    C614631   5.365   0.494   6.385  0.4348  0.6432 -0.5152
  114CHL1    H614632   5.441   0.450   6.451 -2.4791  0.1450  2.7777
  114CHL1    C714633   5.377   0.470   6.238  0.0045  0.0944  0.2627
  114CHL1   H7A14634   5.483   0.480   6.204  0.4846 -2.4599  0.8087
  114CHL1   H7B14635   5.335   0.373   6.204  0.6052 -0.5282  1.2380
  114CHL1    C814636   5.296   0.577   6.163 -0.0530  0.2343 -0.0500
  114CHL1    H814637   5.348   0.675   6.163  0.4842 -0.0348  0.8371
  114CHL1   C1414638   5.267   0.530   6.017 -0.2445 -0.3214 -0.6617
  114CHL1   H1414639   5.200   0.441   6.015  0.3834 -0.7965 -2.3698
  114CHL1   C1514640   5.389   0.508   5.940 -0.2662 -0.3539  0.5775
  114CHL1  H15A14641   5.457   0.594   5.961 -0.8935  0.4091 -0.4344
  114CHL1  H15B14642   5.442   0.411   5.952 -0.3377 -0.2717  1.6835
  114CHL1   C1614643   5.343   0.527   5.794 -0.8404 -0.0126  0.5380
  114CHL1  H16A14644   5.418   0.586   5.737 -0.8192 -0.6249 -0.0875
  114CHL1  H16B14645   5.337   0.425   5.749 -1.5101  0.7367 -1.1580
  114CHL1   C1714646   5.198   0.573   5.798  0.0420  0.2958 -0.0238
  114CHL1   H1714647   5.132   0.483   5.806  1.2742 -0.5627  0.8041
  114CHL1   C1314648   5.195   0.641   5.939  0.2653 -1.2820  0.1199
  114CHL1   C1814649   5.262   0.782   5.930  0.3212  0.0531 -0.5954
  114CHL1  H18A14650   5.187   0.861   5.908  0.2616 -0.2102 -1.3448
  114CHL1  H18B14651   5.293   0.805   6.035 -0.2549 -2.2868  0.1409
  114CHL1  H18C14652   5.347   0.786   5.859  0.1820 -1.8498 -0.8957
  114CHL1   C1214653   5.049   0.648   5.999 -0.3913  0.2593  0.9730
  114CHL1  H12A14654   4.975   0.710   5.945 -0.1024 -0.8809 -0.7818
  114CHL1  H12B14655   5.004   0.547   5.993 -0.4630  0.2166  1.9445
  114CHL1   C1114656   5.051   0.684   6.147  0.2503  0.0544  0.0525
  114CHL1  H11A14657   5.065   0.794   6.155 -0.0518  0.1714 -0.9194
  114CHL1  H11B14658   4.949   0.654   6.179 -1.0768  2.3380 -1.7707
  114CHL1    C914659   5.159   0.597   6.228 -0.1971 -0.2226 -0.3792
  114CHL1    H914660   5.119   0.493   6.231  3.2521 -1.6909 -0.3613
  114CHL1   C1014661   5.167   0.650   6.374 -0.4242  0.0647 -0.2972
  114CHL1   C1914662   5.219   0.800   6.384 -0.2417  0.7543 -0.0102
  114CHL1  H19A14663   5.150   0.871   6.334 -0.1248  0.7902 -0.1175
  114CHL1  H19B14664   5.234   0.839   6.487 -0.4687  2.2413 -0.5237
  114CHL1  H19C14665   5.316   0.800   6.331 -0.4497 -2.7059 -0.6191
  114CHL1    C114666   5.030   0.631   6.447  0.2495  0.2643  0.2124
  114CHL1   H1A14667   4.953   0.707   6.420 -0.9147 -0.9155  0.1314
  114CHL1   H1B14668   4.989   0.530   6.430  2.0449 -0.4602  0.0205
  114CHL1    C214669   5.037   0.663   6.597 -0.7138  0.2067  0.1941
  114CHL1   H2A14670   4.935   0.636   6.631 -0.5388 -0.5759  0.1168
  114CHL1   H2B14671   5.062   0.770   6.611  1.1407  0.1158 -1.7803
  114CHL1   C2014672   5.166   0.661   5.670  0.5880  0.6425 -0.6767
  114CHL1   H2014673   5.247   0.736   5.653  1.0245  0.4840  0.6036
  114CHL1   C2114674   5.028   0.731   5.684  0.1282  0.4710  0.3219
  114CHL1  H21A14675   5.005   0.794   5.594  2.1480  0.8019 -0.0207
  114CHL1  H21B14676   5.031   0.797   5.773 -0.6093  0.0735  0.6404
  114CHL1  H21C14677   4.941   0.664   5.696  0.7770 -0.1325  1.8605
  114CHL1   C2214678   5.191   0.584   5.544  0.7629 -0.2570 -0.0343
  114CHL1  H22A14679   5.159   0.664   5.474  1.3511  0.7107  0.7714
  114CHL1  H22B14680   5.298   0.566   5.519  0.3917 -2.8240 -0.0596
  114CHL1   C2314681   5.094   0.469   5.522 -0.0217  0.3042 -0.1799
  114CHL1  H23A14682   5.091   0.396   5.606 -2.6579  1.3789  0.7807
  114CHL1  H23B14683   4.994   0.517   5.528 -1.1464 -1.8334 -0.7204
  114CHL1   C2414684   5.124   0.386   5.395 -0.0506 -1.1580 -0.0377
  114CHL1  H24A14685   5.109   0.456   5.310  0.3121 -0.8884  0.1176
  114CHL1  H24B14686   5.231   0.357   5.388  0.2049 -0.1333 -0.7065
  114CHL1   C2514687   5.033   0.263   5.369 -0.0297 -0.6041  0.5997
  114CHL1   H2514688   5.068   0.181   5.435  0.4448 -1.1704 -0.3324
  114CHL1   C2614689   4.879   0.298   5.380 -0.1405 -0.3335  0.0362
  114CHL1  H26A14690   4.850   0.325   5.484  0.6442  0.4762  0.0545
  114CHL1  H26B14691   4.840   0.374   5.308 -1.0554 -0.7071  0.1295
  114CHL1  H26C14692   4.817   0.207   5.364 -2.1461  0.7334  1.3112
  114CHL1   C2714693   5.053   0.212   5.220  0.4442 -0.3866 -0.2444
  114CHL1  H27A14694   4.981   0.127   5.219 -0.5087  0.3528  1.6113
  114CHL1  H27B14695   5.025   0.294   5.151 -0.2122 -1.9054 -1.8867
  114CHL1  H27C14696   5.159   0.179   5.205  0.4127 -0.3313 -0.5991
  115CHL1    C314697   1.765   7.630   6.377 -0.5924  0.9592  0.2731
  115CHL1    H314698   1.655   7.646   6.379 -1.4190 -2.7010 -2.8070
  115CHL1    O314699   1.819   7.593   6.507  0.2964  0.1197  0.1648
  115CHL1   H3'14700   1.913   7.590   6.492 -0.0535  0.9914 -2.8387
  115CHL1    C414701   1.770   7.503   6.294  0.2075  0.2885 -0.4675
  115CHL1   H4A14702   1.875   7.468   6.287  0.9640  2.1877  0.7742
  115CHL1   H4B14703   1.719   7.419   6.345 -0.2055  1.6264  1.4012
  115CHL1    C514704   1.713   7.522   6.153  0.5695  0.0735  0.2041
  115CHL1    C614705   1.624   7.445   6.094  0.1732  0.0707 -0.3937
  115CHL1    H614706   1.579   7.367   6.156 -0.0613  2.1402  2.2081
  115CHL1    C714707   1.569   7.463   5.952 -0.2168  0.0911 -0.6370
  115CHL1   H7A14708   1.549   7.370   5.895  0.2163 -0.7002  0.4733
  115CHL1   H7B14709   1.464   7.499   5.965 -1.5282 -3.3399 -0.7580
  115CHL1    C814710   1.655   7.564   5.866 -0.4522  0.3498  0.1563
  115CHL1    H814711   1.743   7.508   5.827 -1.5380 -0.8192 -0.7129
  115CHL1   C1414712   1.582   7.608   5.743  0.3028  0.0353 -0.2840
  115CHL1   H1414713   1.498   7.671   5.781 -0.2632  0.4196 -2.1116
  115CHL1   C1514714   1.506   7.500   5.644  0.2270  0.3669 -0.3569
  115CHL1  H15A14715   1.567   7.408   5.633 -2.4751 -1.3709 -2.0001
  115CHL1  H15B14716   1.404   7.471   5.675  0.0794 -1.3917 -2.2318
  115CHL1   C1614717   1.481   7.590   5.518 -0.0844  0.7120  0.5078
  115CHL1  H16A14718   1.521   7.555   5.421 -2.4526  0.6782 -0.5163
  115CHL1  H16B14719   1.370   7.597   5.511 -0.4704 -1.5896  2.5412
  115CHL1   C1714720   1.534   7.735   5.545 -0.7817 -0.3451 -0.5406
  115CHL1   H1714721   1.458   7.794   5.601  1.3395 -0.8907  3.2690
  115CHL1   C1314722   1.651   7.709   5.649 -0.5526 -0.2099 -0.5422
  115CHL1   C1814723   1.772   7.651   5.563  0.1328 -0.3908 -0.0206
  115CHL1  H18A14724   1.851   7.615   5.633 -0.2223 -1.6474 -0.2494
  115CHL1  H18B14725   1.734   7.566   5.503  0.3849 -0.6180  0.1396
  115CHL1  H18C14726   1.815   7.725   5.492  0.8027 -0.9613 -0.2263
  115CHL1   C1214727   1.685   7.836   5.737  0.0664  0.4695  0.5238
  115CHL1  H12A14728   1.753   7.898   5.674  1.5176 -1.1889  0.3602
  115CHL1  H12B14729   1.585   7.878   5.761  0.5247  1.0345  1.4993
  115CHL1   C1114730   1.767   7.791   5.860  0.2257  0.2713  1.0050
  115CHL1  H11A14731   1.860   7.751   5.814 -0.5025 -1.0325  0.5820
  115CHL1  H11B14732   1.798   7.880   5.917  0.0614  0.3051  1.0437
  115CHL1    C914733   1.699   7.683   5.951  0.0133 -0.4157  0.1479
  115CHL1    H914734   1.605   7.726   5.993  0.7066  2.0941 -0.6842
  115CHL1   C1014735   1.783   7.638   6.078 -0.0110 -0.3064  0.2421
  115CHL1   C1914736   1.926   7.598   6.040  0.2814 -0.0285  0.4478
  115CHL1  H19A14737   1.971   7.684   5.986 -1.1443  1.9340  2.2377
  115CHL1  H19B14738   1.996   7.575   6.124  0.4924 -0.2198  0.2207
  115CHL1  H19C14739   1.928   7.508   5.975  1.4017  0.2046  0.1321
  115CHL1    C114740   1.806   7.775   6.172 -0.5967  0.6124 -0.3210
  115CHL1   H1A14741   1.870   7.845   6.115  0.3343  0.2737  0.2926
  115CHL1   H1B14742   1.709   7.828   6.181 -1.1270 -0.3539 -0.0994
  115CHL1    C214743   1.847   7.746   6.316 -0.3907 -0.1245 -0.2603
  115CHL1   H2A14744   1.829   7.842   6.369  0.7186 -0.3300  0.5293
  115CHL1   H2B14745   1.955   7.720   6.312 -0.1746  0.7862 -0.7557
  115CHL1   C2014746   1.554   7.810   5.411  0.3146  0.2727 -0.5202
  115CHL1   H2014747   1.632   7.761   5.348 -0.5385 -1.1377 -0.5360
  115CHL1   C2114748   1.603   7.956   5.446  0.4743 -0.5229  0.1296
  115CHL1  H21A14749   1.612   8.006   5.347 -0.2536 -0.1923  0.2223
  115CHL1  H21B14750   1.699   7.958   5.501  1.4077 -0.3142 -1.4566
  115CHL1  H21C14751   1.522   8.016   5.493 -1.1694 -0.2255 -2.8339
  115CHL1   C2214752   1.420   7.819   5.320  0.0323 -0.1798  0.3245
  115CHL1  H22A14753   1.362   7.725   5.306  1.0962 -0.7832 -0.1518
  115CHL1  H22B14754   1.354   7.892   5.372  0.5360 -1.3706  2.7336
  115CHL1   C2314755   1.462   7.863   5.180  1.1083  0.0770 -0.1831
  115CHL1  H23A14756   1.380   7.928   5.142  1.5374  2.1203  2.1537
  115CHL1  H23B14757   1.557   7.920   5.186  0.1654  2.0188 -2.2430
  115CHL1   C2414758   1.481   7.738   5.087  0.2968 -0.3413 -0.6840
  115CHL1  H24A14759   1.555   7.667   5.131 -0.4692 -0.8794 -0.2406
  115CHL1  H24B14760   1.383   7.686   5.084  0.0963 -0.0250  0.1949
  115CHL1   C2514761   1.514   7.770   4.940  0.4253 -0.1450  0.2303
  115CHL1   H2514762   1.598   7.843   4.943 -0.2970  0.6977  0.2839
  115CHL1   C2614763   1.567   7.650   4.868  0.0824  0.5738  0.3470
  115CHL1  H26A14764   1.611   7.680   4.770  0.0630  2.0430  0.7702
  115CHL1  H26B14765   1.658   7.614   4.922  0.7944 -3.4883 -3.0203
  115CHL1  H26C14766   1.494   7.566   4.867  1.9974 -1.1970 -0.4097
  115CHL1   C2714767   1.398   7.832   4.864 -0.2687 -0.6201  0.4774
  115CHL1  H27A14768   1.303   7.782   4.893 -1.0512  1.0153  0.9129
  115CHL1  H27B14769   1.392   7.941   4.888  0.6173 -0.7618  1.4129
  115CHL1  H27C14770   1.410   7.826   4.754 -4.3955 -0.7789 -0.1314
  116CHL1    C314771   2.528   7.377   6.406  0.2597 -0.1353  0.1624
  116CHL1    H314772   2.621   7.323   6.375 -0.4821 -1.1893 -0.2846
  116CHL1    O314773   2.521   7.380   6.551 -0.5194  0.5743 -0.0921
  116CHL1   H3'14774   2.447   7.438   6.571 -0.9299 -0.3736  1.3618
  116CHL1    C414775   2.530   7.520   6.353 -0.0323 -0.3515  0.5818
  116CHL1   H4A14776   2.449   7.572   6.408  0.8111 -1.0309  2.5506
  116CHL1   H4B14777   2.630   7.555   6.387  0.0838 -1.2516  1.2087
  116CHL1    C514778   2.500   7.517   6.200 -0.4604  0.6403  0.0954
  116CHL1    C614779   2.595   7.556   6.109  0.1346  0.5093 -0.3986
  116CHL1    H614780   2.682   7.609   6.150  0.7052 -0.3692 -0.4273
  116CHL1    C714781   2.566   7.571   5.958  0.6360  0.2098 -0.0162
  116CHL1   H7A14782   2.589   7.675   5.927  1.9569 -0.0593 -0.0098
  116CHL1   H7B14783   2.619   7.494   5.898  1.6133  1.0008 -0.1877
  116CHL1    C814784   2.412   7.553   5.924 -0.2050  0.4602 -0.4982
  116CHL1    H814785   2.358   7.645   5.952  0.3996  0.9781 -0.9925
  116CHL1   C1414786   2.394   7.529   5.777  1.1012 -0.2074  0.1192
  116CHL1   H1414787   2.463   7.446   5.752  1.2384 -0.0683  0.0398
  116CHL1   C1514788   2.452   7.645   5.690  0.0654 -0.0485 -0.6189
  116CHL1  H15A14789   2.434   7.744   5.737 -1.1703 -0.5333 -0.0532
  116CHL1  H15B14790   2.562   7.626   5.683  0.2414  1.0639 -1.1727
  116CHL1   C1614791   2.382   7.627   5.557 -0.4068  0.9293  0.4640
  116CHL1  H16A14792   2.331   7.719   5.522  0.9204  1.3244 -0.5059
  116CHL1  H16B14793   2.456   7.598   5.479 -1.2436  0.1837 -0.0825
  116CHL1   C1714794   2.283   7.505   5.575 -0.4600  0.0052 -0.0250
  116CHL1   H1714795   2.332   7.408   5.549 -0.3994 -0.6060  2.1967
  116CHL1   C1314796   2.252   7.494   5.727  0.3927 -1.0696 -0.0555
  116CHL1   C1814797   2.159   7.609   5.773 -0.5548 -0.0515  0.4431
  116CHL1  H18A14798   2.210   7.705   5.750  3.2106 -1.4150  2.3786
  116CHL1  H18B14799   2.059   7.607   5.723 -0.7827 -0.4496  0.9016
  116CHL1  H18C14800   2.151   7.600   5.884  1.2767  1.4452  0.7484
  116CHL1   C1214801   2.223   7.351   5.791 -0.1690  0.1092 -0.0899
  116CHL1  H12A14802   2.128   7.311   5.750  0.2794 -1.4321  0.2932
  116CHL1  H12B14803   2.308   7.286   5.761  0.0528 -0.4642  1.6665
  116CHL1   C1114804   2.229   7.358   5.943  0.3541 -0.4770 -0.0386
  116CHL1  H11A14805   2.147   7.419   5.989  1.2342  0.9196 -0.2547
  116CHL1  H11B14806   2.211   7.255   5.981 -2.0432 -0.7715 -1.6903
  116CHL1    C914807   2.365   7.424   5.995 -0.5027 -0.0409  0.5743
  116CHL1    H914808   2.439   7.347   5.967 -0.5929  0.0981 -0.0674
  116CHL1   C1014809   2.383   7.440   6.152 -0.1264 -0.1093  0.4413
  116CHL1   C1914810   2.256   7.508   6.215 -0.7916 -0.3392 -0.7382
  116CHL1  H19A14811   2.162   7.459   6.182 -1.3068 -0.1655  0.4352
  116CHL1  H19B14812   2.266   7.506   6.325  0.0210  1.1537 -0.7598
  116CHL1  H19C14813   2.258   7.617   6.193 -1.0946 -0.4707 -1.4407
  116CHL1    C114814   2.390   7.296   6.207  0.4625  0.3475  0.1611
  116CHL1   H1A14815   2.288   7.256   6.188  0.7562 -0.3469  0.0053
  116CHL1   H1B14816   2.469   7.234   6.158  0.2212 -0.0228  0.2359
  116CHL1    C214817   2.408   7.292   6.367  0.0370 -0.1528 -0.3119
  116CHL1   H2A14818   2.430   7.187   6.396 -2.0653 -0.9241 -1.2887
  116CHL1   H2B14819   2.306   7.307   6.409 -1.2420 -0.4354 -3.0527
  116CHL1   C2014820   2.163   7.525   5.480 -0.4873 -0.0477 -0.2890
  116CHL1   H2014821   2.115   7.623   5.500  0.6471 -0.0678  3.1891
  116CHL1   C2114822   2.065   7.402   5.514  0.1699  0.3090  0.6920
  116CHL1  H21A14823   1.985   7.393   5.437 -0.2537  0.4217  1.1131
  116CHL1  H21B14824   2.003   7.415   5.605 -1.0108  0.8748 -0.1686
  116CHL1  H21C14825   2.124   7.309   5.529  0.7991  0.8215  1.4852
  116CHL1   C2214826   2.223   7.525   5.336  0.1001  0.7631 -0.4792
  116CHL1  H22A14827   2.295   7.609   5.328  1.2837 -0.1536  0.1551
  116CHL1  H22B14828   2.276   7.428   5.322 -0.8730  0.4427 -2.2803
  116CHL1   C2314829   2.126   7.532   5.224 -0.1348  0.1527 -0.2007
  116CHL1  H23A14830   2.185   7.508   5.133 -1.3865  0.3811 -1.0971
  116CHL1  H23B14831   2.052   7.448   5.227 -0.5855  0.3273 -3.4632
  116CHL1   C2414832   2.060   7.670   5.223  0.1618  0.4881 -0.3879
  116CHL1  H24A14833   2.012   7.701   5.318 -0.1901 -1.2873  0.0521
  116CHL1  H24B14834   2.140   7.741   5.192 -0.2530  1.5726  0.9123
  116CHL1   C2514835   1.939   7.674   5.124  0.8837  0.4044 -0.3407
  116CHL1   H2514836   1.948   7.625   5.024 -0.4833 -2.1613  0.6834
  116CHL1   C2614837   1.827   7.590   5.192  0.1479 -0.0886  0.0938
  116CHL1  H26A14838   1.807   7.645   5.287  3.8847 -1.7386  2.0610
  116CHL1  H26B14839   1.734   7.578   5.131  0.5284 -3.4438  0.0063
  116CHL1  H26C14840   1.863   7.496   5.238 -2.1221 -0.0386  2.2156
  116CHL1   C2714841   1.891   7.820   5.103  0.3572  1.0316 -0.6145
  116CHL1  H27A14842   1.832   7.843   5.194 -0.9966 -2.3882 -0.4955
  116CHL1  H27B14843   1.982   7.882   5.092  0.6038  1.2265  2.0263
  116CHL1  H27C14844   1.825   7.816   5.013 -0.9932 -2.1183  0.3836
  117CHL1    C314845   5.562   0.915   6.569  0.2654 -0.9279 -0.4758
  117CHL1    H314846   5.472   0.859   6.534 -0.6597 -1.7728  2.9342
  117CHL1    O314847   5.543   0.919   6.719  0.0050 -0.5843 -0.1625
  117CHL1   H3'14848   5.479   0.860   6.760 -0.6106  0.1970  0.0174
  117CHL1    C414849   5.696   0.842   6.540  0.3269 -0.0410 -0.4320
  117CHL1   H4A14850   5.774   0.911   6.576  0.8899  0.8339 -3.1516
  117CHL1   H4B14851   5.689   0.750   6.604 -2.0760  0.4687  0.1554
  117CHL1    C514852   5.720   0.818   6.392  0.7919 -0.0672 -0.6375
  117CHL1    C614853   5.728   0.693   6.332 -0.1086  0.1827 -0.6658
  117CHL1    H614854   5.713   0.605   6.396 -1.5621 -0.2965 -1.6288
  117CHL1    C714855   5.736   0.674   6.184  0.5764 -0.5907  0.7374
  117CHL1   H7A14856   5.828   0.616   6.161  0.5415  0.2174 -1.6476
  117CHL1   H7B14857   5.658   0.604   6.147  1.4278 -0.8304 -0.6578
  117CHL1    C814858   5.751   0.810   6.100 -0.3859 -0.1621 -1.0641
  117CHL1    H814859   5.861   0.821   6.102 -0.2330 -1.5316 -0.0066
  117CHL1   C1414860   5.705   0.793   5.961 -0.2062  0.3167 -0.2080
  117CHL1   H1414861   5.595   0.783   5.961 -0.4376  2.2383  1.5576
  117CHL1   C1514862   5.757   0.670   5.879 -0.4368 -1.0320  0.3529
  117CHL1  H15A14863   5.862   0.652   5.910  0.6065  2.1134 -1.0081
  117CHL1  H15B14864   5.708   0.573   5.904  0.1800 -0.7700  2.8192
  117CHL1   C1614865   5.743   0.712   5.732  0.0787  0.0015 -0.3274
  117CHL1  H16A14866   5.846   0.711   5.690  0.3585 -1.7377  0.3058
  117CHL1  H16B14867   5.680   0.644   5.671 -2.5081  0.0340  2.0928
  117CHL1   C1714868   5.693   0.861   5.734  0.5789  0.4711  0.0687
  117CHL1   H1714869   5.582   0.864   5.734  0.5803  3.2589 -0.2650
  117CHL1   C1314870   5.730   0.921   5.871  0.9214  0.2103 -0.3008
  117CHL1   C1814871   5.875   0.966   5.862 -0.4928  0.4623 -0.3969
  117CHL1  H18A14872   5.935   0.880   5.825 -2.1313 -1.5395  1.3405
  117CHL1  H18B14873   5.891   1.056   5.799  0.6595  2.4628  2.5410
  117CHL1  H18C14874   5.909   0.987   5.966  2.3648 -0.4065 -1.0611
  117CHL1   C1214875   5.639   1.030   5.930  0.4886 -0.5900  0.0367
  117CHL1  H12A14876   5.644   1.125   5.872 -3.2903  0.1505  0.6644
  117CHL1  H12B14877   5.534   0.996   5.926  0.8538 -1.7180 -2.9264
  117CHL1   C1114878   5.674   1.063   6.080 -0.0671  0.4206 -0.2151
  117CHL1  H11A14879   5.768   1.122   6.076  0.6885 -0.6944  0.3569
  117CHL1  H11B14880   5.596   1.126   6.127 -0.4179 -0.8643  0.9953
  117CHL1    C914881   5.676   0.930   6.166 -0.1394 -0.1393  0.2104
  117CHL1    H914882   5.571   0.894   6.166 -0.9725  2.0788 -0.0317
  117CHL1   C1014883   5.714   0.952   6.310  0.3906  0.4008 -0.1410
  117CHL1   C1914884   5.853   1.022   6.303  0.1547 -0.3754  0.0970
  117CHL1  H19A14885   5.916   0.949   6.247 -0.5558 -2.0874  1.4329
  117CHL1  H19B14886   5.855   1.121   6.253  4.1620  1.0611  2.6425
  117CHL1  H19C14887   5.882   1.029   6.410 -3.3919  0.7911  1.1303
  117CHL1    C114888   5.599   1.049   6.363 -0.1125  0.3307 -0.8119
  117CHL1   H1A14889   5.626   1.153   6.338  1.0727  0.3226  0.3564
  117CHL1   H1B14890   5.502   1.019   6.316 -2.1516  2.0053  2.0768
  117CHL1    C214891   5.579   1.062   6.516 -0.1459  0.0730 -0.5729
  117CHL1   H2A14892   5.486   1.118   6.537 -1.1895 -1.3560 -1.2824
  117CHL1   H2B14893   5.664   1.108   6.571 -0.2049 -0.3840 -0.1024
  117CHL1   C2014894   5.740   0.931   5.608  0.1482  0.2088 -0.4979
  117CHL1   H2014895   5.849   0.953   5.610 -0.2884  2.8946  3.1145
  117CHL1   C2114896   5.666   1.069   5.597  0.7008 -0.2054  0.6044
  117CHL1  H21A14897   5.559   1.046   5.618 -0.0586  2.7410  0.4270
  117CHL1  H21B14898   5.677   1.108   5.493 -0.6301 -0.9528  0.1490
  117CHL1  H21C14899   5.705   1.149   5.664  3.0042 -2.3211  1.9553
  117CHL1   C2214900   5.723   0.847   5.476 -0.7655 -0.7194  0.0770
  117CHL1  H22A14901   5.782   0.911   5.407 -0.0462 -2.5430 -1.0797
  117CHL1  H22B14902   5.781   0.752   5.481  1.2758  0.5359  3.0021
  117CHL1   C2314903   5.591   0.837   5.416  0.7907  0.4561  0.4426
  117CHL1  H23A14904   5.525   0.782   5.487  1.3159  0.6156  1.0572
  117CHL1  H23B14905   5.544   0.937   5.405 -0.2847  0.0919  1.5265
  117CHL1   C2414906   5.604   0.789   5.262 -0.7645 -0.2039  0.7177
  117CHL1  H24A14907   5.677   0.846   5.200 -1.1450 -1.5194 -1.0134
  117CHL1  H24B14908   5.643   0.685   5.257  0.6422  0.2523  1.6857
  117CHL1   C2514909   5.474   0.814   5.186  0.1609  0.5033 -0.3082
  117CHL1   H2514910   5.448   0.917   5.221  1.9171  0.1860  2.1378
  117CHL1   C2614911   5.497   0.799   5.034  0.3557  1.0653  0.4894
  117CHL1  H26A14912   5.589   0.853   5.001  3.0723 -2.8239  0.9541
  117CHL1  H26B14913   5.526   0.692   5.022  0.5108  1.2799 -1.3719
  117CHL1  H26C14914   5.409   0.814   4.968  0.5305 -2.1361 -0.6695
  117CHL1   C2714915   5.364   0.725   5.237  0.0258  0.5194 -0.4501
  117CHL1  H27A14916   5.381   0.617   5.217  0.9019  0.3756  0.9207
  117CHL1  H27B14917   5.343   0.738   5.346 -0.4853  0.3236 -0.5205
  117CHL1  H27C14918   5.272   0.770   5.195  1.1429  3.8525  0.3738
  118CHL1    C314919   0.568   1.618   6.651  0.2862  0.0890 -0.0384
  118CHL1    H314920   0.492   1.543   6.681  0.2576  0.3812  0.6485
  118CHL1    O314921   0.642   1.658   6.766  0.3471  0.0590 -0.2314
  118CHL1   H3'14922   0.638   1.753   6.751  1.2499  0.2037  0.3881
  118CHL1    C414923   0.664   1.553   6.556 -0.2864  0.2851  0.6844
  118CHL1   H4A14924   0.760   1.608   6.545  0.5593 -0.5329  3.3061
  118CHL1   H4B14925   0.691   1.462   6.613 -0.2485 -0.3079 -0.2587
  118CHL1    C514926   0.598   1.516   6.419 -0.3697  0.3727 -0.2831
  118CHL1    C614927   0.591   1.387   6.376 -0.2166  0.3174  0.4052
  118CHL1    H614928   0.656   1.308   6.417  2.3852  2.1504  0.0971
  118CHL1    C714929   0.511   1.336   6.259  0.0653 -0.1808  0.4683
  118CHL1   H7A14930   0.573   1.262   6.203 -2.5132 -0.7425 -1.8391
  118CHL1   H7B14931   0.422   1.274   6.284  2.1854 -3.0333  1.5999
  118CHL1    C814932   0.473   1.450   6.163 -0.0543  0.0463  0.0638
  118CHL1    H814933   0.568   1.476   6.113  0.3930  0.4318  1.0905
  118CHL1   C1414934   0.369   1.394   6.069  0.2100  0.4987  0.7453
  118CHL1   H1414935   0.289   1.358   6.137  0.6124 -0.8398  0.5472
  118CHL1   C1514936   0.402   1.268   5.993  0.2746  0.1049  0.4973
  118CHL1  H15A14937   0.510   1.257   5.970  0.5306  0.2642  1.6103
  118CHL1  H15B14938   0.369   1.178   6.050  0.5729  0.1704  0.7692
  118CHL1   C1614939   0.304   1.272   5.874  0.3701  0.2714  0.3889
  118CHL1  H16A14940   0.370   1.282   5.785 -1.1436 -0.0005 -0.8053
  118CHL1  H16B14941   0.245   1.178   5.861 -1.9395  1.6544  0.2482
  118CHL1   C1714942   0.214   1.395   5.888 -0.5920 -0.3494  0.0281
  118CHL1   H1714943   0.133   1.366   5.958 -1.0802  2.6125  0.8257
  118CHL1   C1314944   0.304   1.489   5.967  0.2803 -0.9064 -0.2116
  118CHL1   C1814945   0.411   1.553   5.873 -0.6511  0.2067 -0.9641
  118CHL1  H18A14946   0.488   1.605   5.934 -1.0477 -1.3524  0.9802
  118CHL1  H18B14947   0.466   1.470   5.824  1.2917  1.4002 -0.9155
  118CHL1  H18C14948   0.359   1.615   5.798 -0.0566  0.9941 -0.7356
  118CHL1   C1214949   0.239   1.606   6.047 -0.4532 -0.6100  0.4460
  118CHL1  H12A14950   0.205   1.693   5.988  1.2426 -0.6532 -0.6620
  118CHL1  H12B14951   0.160   1.569   6.116 -1.1225 -0.0888 -0.0326
  118CHL1   C1114952   0.340   1.666   6.150 -0.2228 -0.7866 -0.4676
  118CHL1  H11A14953   0.419   1.717   6.092 -0.5041 -0.5557 -0.6481
  118CHL1  H11B14954   0.286   1.743   6.209 -0.1857 -0.6273 -0.6412
  118CHL1    C914955   0.409   1.560   6.248 -0.1978  0.0139  0.3777
  118CHL1    H914956   0.320   1.514   6.298 -0.6695 -1.2133 -1.4853
  118CHL1   C1014957   0.505   1.619   6.351  0.1459 -0.0294  0.1332
  118CHL1   C1914958   0.603   1.717   6.278  0.3499 -0.1699  0.2292
  118CHL1  H19A14959   0.681   1.764   6.342  1.7533  0.7629 -2.0388
  118CHL1  H19B14960   0.655   1.666   6.194  0.7039 -1.1106  1.0055
  118CHL1  H19C14961   0.541   1.795   6.230  1.5724  2.4689  2.6390
  118CHL1    C114962   0.419   1.682   6.463 -0.1175 -0.7536 -0.9372
  118CHL1   H1A14963   0.362   1.766   6.418  1.7166  0.2430 -1.5021
  118CHL1   H1B14964   0.336   1.615   6.496 -0.5274  0.5390  0.8770
  118CHL1    C214965   0.494   1.735   6.587 -0.1779  0.0809  0.4580
  118CHL1   H2A14966   0.412   1.764   6.656  1.1835  0.2798  2.0693
  118CHL1   H2B14967   0.559   1.816   6.549 -1.8046  0.8875 -0.7054
  118CHL1   C2014968   0.150   1.438   5.755  0.1339  0.3072 -0.1613
  118CHL1   H2014969   0.223   1.486   5.686  0.2339  1.7787  0.9272
  118CHL1   C2114970   0.032   1.532   5.784 -0.1710 -0.6709  0.4340
  118CHL1  H21A14971  -0.010   1.571   5.688  2.7888  2.1599  0.1294
  118CHL1  H21B14972   0.069   1.625   5.832  0.2229 -1.0354  0.8460
  118CHL1  H21C14973  -0.041   1.472   5.842 -0.6144  0.1285  0.7243
  118CHL1   C2214974   0.096   1.311   5.675  0.1304  0.0259  0.6478
  118CHL1  H22A14975   0.183   1.247   5.650 -0.4759 -0.1120 -1.2329
  118CHL1  H22B14976   0.014   1.255   5.726  0.0935  0.1328  0.7060
  118CHL1   C2314977   0.035   1.358   5.541 -0.0398 -0.2014  0.0007
  118CHL1  H23A14978  -0.060   1.415   5.551 -0.9475 -1.8240  0.9798
  118CHL1  H23B14979   0.107   1.428   5.493 -1.3334  0.4253 -1.0937
  118CHL1   C2414980   0.003   1.247   5.442 -0.0266  0.1177  0.0802
  118CHL1  H24A14981   0.099   1.191   5.438 -0.5652 -0.8765  0.7844
  118CHL1  H24B14982  -0.084   1.189   5.480 -0.7717  1.0912 -0.1080
  118CHL1   C2514983  -0.032   1.297   5.295  0.3011  0.1776 -0.3403
  118CHL1   H2514984   0.056   1.361   5.269  0.1580  0.7071  0.4342
  118CHL1   C2614985  -0.039   1.179   5.194  0.1004 -0.3910 -0.1664
  118CHL1  H26A14986   0.035   1.100   5.215 -0.9613 -1.4504 -0.2891
  118CHL1  H26B14987  -0.131   1.121   5.217  1.0582 -1.2672  1.6847
  118CHL1  H26C14988  -0.039   1.218   5.090 -0.7479 -1.4296 -0.5689
  118CHL1   C2714989  -0.149   1.397   5.279  0.5404  0.2330  0.1279
  118CHL1  H27A14990  -0.245   1.355   5.316  0.4410 -0.1469 -0.5383
  118CHL1  H27B14991  -0.142   1.486   5.345 -1.1807 -1.4870  2.8273
  118CHL1  H27C14992  -0.147   1.429   5.173  1.1516  0.1147  0.0981
  119CHL1    C314993   1.389   0.239   6.592 -0.1345 -0.6581  0.6126
  119CHL1    H314994   1.338   0.335   6.612  2.8870  1.0554  0.7278
  119CHL1    O314995   1.448   0.192   6.712 -0.3484 -0.1132 -0.0363
  119CHL1   H3'14996   1.486   0.111   6.678 -1.3715 -0.1681 -1.0865
  119CHL1    C414997   1.288   0.141   6.534 -0.3026  0.2587  0.4557
  119CHL1   H4A14998   1.345   0.046   6.535  0.6675  0.7237 -2.3068
  119CHL1   H4B14999   1.208   0.133   6.611  0.3620  1.0676  1.2494
  119CHL1    C515000   1.229   0.168   6.392 -0.3571 -0.5702 -0.3117
  119CHL1    C615001   1.094   0.157   6.364 -0.5253 -0.3434 -0.7276
  119CHL1    H615002   1.020   0.134   6.442 -0.7720  1.2268 -0.4671
  119CHL1    C715003   1.032   0.188   6.235 -0.5164  0.1533  0.0104
  119CHL1   H7A15004   0.946   0.118   6.229  0.6502 -1.3039 -0.5261
  119CHL1   H7B15005   0.990   0.290   6.240  0.1440  0.5232 -1.4576
  119CHL1    C815006   1.131   0.186   6.114 -0.2542  0.1469  0.0729
  119CHL1    H815007   1.157   0.082   6.086 -0.0922  0.8735 -2.7889
  119CHL1   C1415008   1.069   0.244   5.992  0.2212  0.4356  0.2467
  119CHL1   H1415009   1.054   0.352   6.011 -0.5740 -0.1741  3.5896
  119CHL1   C1515010   0.935   0.193   5.940 -0.4961  0.2473  0.2382
  119CHL1  H15A15011   0.922   0.083   5.926  2.2673  0.0736 -1.6903
  119CHL1  H15B15012   0.857   0.231   6.009 -0.0297 -0.4960  1.1916
  119CHL1   C1615013   0.935   0.253   5.799 -0.1258  0.2093  0.1559
  119CHL1  H16A15014   0.913   0.171   5.728 -1.4953  1.0216 -0.4123
  119CHL1  H16B15015   0.869   0.341   5.781  3.0185  2.6593 -0.3588
  119CHL1   C1715016   1.076   0.310   5.759 -0.3686  0.5335 -0.0095
  119CHL1   H1715017   1.066   0.419   5.782 -0.7427  0.9826 -2.0728
  119CHL1   C1315018   1.165   0.249   5.870  0.1991  0.0321 -0.0206
  119CHL1   C1815019   1.206   0.100   5.822  0.2744 -1.2100  0.4795
  119CHL1  H18A15020   1.116   0.045   5.786 -0.8550  2.2239 -2.5541
  119CHL1  H18B15021   1.273   0.108   5.734 -2.2218  1.0129 -1.4131
  119CHL1  H18C15022   1.267   0.054   5.902  2.1632  1.7051  0.8527
  119CHL1   C1215023   1.287   0.330   5.910 -0.0411 -0.4174  0.0985
  119CHL1  H12A15024   1.364   0.310   5.832 -0.8029 -1.6304 -0.3726
  119CHL1  H12B15025   1.268   0.439   5.926  3.2226 -0.0712  2.8633
  119CHL1   C1115026   1.353   0.273   6.034 -0.2497  0.1318  1.1785
  119CHL1  H11A15027   1.388   0.171   6.008  0.9757  1.2276 -1.9804
  119CHL1  H11B15028   1.445   0.330   6.057 -0.4219  0.5698  0.8054
  119CHL1    C915029   1.263   0.261   6.153 -0.2203 -0.3723 -0.0198
  119CHL1    H915030   1.226   0.362   6.180 -0.8937 -0.9428  1.2756
  119CHL1   C1015031   1.338   0.202   6.286  0.9787  0.0518  0.7628
  119CHL1   C1915032   1.412   0.071   6.244  0.1081 -0.9512 -0.4925
  119CHL1  H19A15033   1.498   0.095   6.178  0.1596 -2.5838 -1.0729
  119CHL1  H19B15034   1.444   0.010   6.332  0.4405  0.6824  0.5509
  119CHL1  H19C15035   1.353   0.000   6.181  1.3097 -1.7043 -0.7938
  119CHL1    C115036   1.427   0.311   6.353  0.7044 -0.4412 -0.2570
  119CHL1   H1A15037   1.505   0.332   6.277  1.2575 -0.1236  0.3827
  119CHL1   H1B15038   1.372   0.407   6.364  0.2503 -0.7723  0.4032
  119CHL1    C215039   1.497   0.271   6.487 -0.0840 -0.8692  0.0934
  119CHL1   H2A15040   1.565   0.349   6.528 -3.1931  0.9875  2.0226
  119CHL1   H2B15041   1.558   0.180   6.464 -2.8661 -3.0289  0.7781
  119CHL1   C2015042   1.117   0.294   5.614  0.3759 -0.2086 -0.2364
  119CHL1   H2015043   1.128   0.186   5.593 -1.1669 -0.4747  0.1564
  119CHL1   C2115044   1.247   0.369   5.595 -0.4162  0.4794 -0.0916
  119CHL1  H21A15045   1.344   0.327   5.629  0.1095 -1.8191 -3.8246
  119CHL1  H21B15046   1.243   0.472   5.636 -0.2857  0.6441 -0.4882
  119CHL1  H21C15047   1.268   0.380   5.486 -0.7587 -1.3362 -0.3809
  119CHL1   C2215048   1.015   0.349   5.510 -1.0225  0.1827  0.4564
  119CHL1  H22A15049   0.910   0.339   5.544 -0.7649  1.7778  1.8912
  119CHL1  H22B15050   1.024   0.460   5.514 -1.8784  0.2105  2.7159
  119CHL1   C2315051   1.029   0.285   5.372  0.7221 -0.3869 -0.1127
  119CHL1  H23A15052   1.137   0.286   5.346  0.5271 -2.3598 -1.1604
  119CHL1  H23B15053   0.982   0.185   5.379 -0.9970  0.3601 -0.4249
  119CHL1   C2415054   0.951   0.361   5.271 -0.2299  0.5974 -0.5862
  119CHL1  H24A15055   0.847   0.371   5.310 -0.2682 -0.8008 -0.2969
  119CHL1  H24B15056   0.978   0.468   5.259 -1.7649  0.8528 -2.0354
  119CHL1   C2515057   0.958   0.292   5.131  0.1062 -0.0322  0.4780
  119CHL1   H2515058   0.965   0.182   5.142  0.3251 -0.1517 -0.7206
  119CHL1   C2615059   0.847   0.334   5.035  0.2137 -0.1147  0.2259
  119CHL1  H26A15060   0.848   0.300   4.930  1.7432  2.6786 -0.7600
  119CHL1  H26B15061   0.747   0.309   5.077  0.3777  0.4694  0.9798
  119CHL1  H26C15062   0.840   0.445   5.041 -2.4971 -0.1940  0.0625
  119CHL1   C2715063   1.090   0.336   5.069 -0.7615  0.1686  0.3184
  119CHL1  H27A15064   1.121   0.290   4.973 -0.6502 -1.4884  1.1259
  119CHL1  H27B15065   1.095   0.447   5.057  0.3455  0.3679  2.1467
  119CHL1  H27C15066   1.177   0.307   5.132 -2.2538 -1.5369  1.7157
  120CHL1    C315067   0.567   0.175   6.457  0.1539 -0.6336 -0.5729
  120CHL1    H315068   0.592   0.283   6.458  0.0466 -0.6090  0.6931
  120CHL1    O315069   0.575   0.129   6.590  0.2552  0.7205 -0.5109
  120CHL1   H3'15070   0.519   0.052   6.600 -0.2027  0.8071 -2.1188
  120CHL1    C415071   0.425   0.152   6.396 -0.2681  0.1611 -0.3274
  120CHL1   H4A15072   0.409   0.043   6.413  0.4101 -0.1713 -1.6462
  120CHL1   H4B15073   0.365   0.210   6.469  0.0228 -1.2525  1.1054
  120CHL1    C515074   0.407   0.181   6.255  0.3563 -0.0932  0.1610
  120CHL1    C615075   0.309   0.262   6.219 -0.2879  0.3380  0.4715
  120CHL1    H615076   0.243   0.303   6.297  1.7341  2.0842  1.3775
  120CHL1    C715077   0.269   0.286   6.073  0.1495 -0.2972 -0.0934
  120CHL1   H7A15078   0.158   0.286   6.064  0.1601 -1.4678 -0.4017
  120CHL1   H7B15079   0.282   0.395   6.055  0.3715  0.1393  2.3002
  120CHL1    C815080   0.355   0.202   5.971  0.0731  0.0422  0.1180
  120CHL1    H815081   0.303   0.104   5.963  1.7835 -0.8368 -0.5532
  120CHL1   C1415082   0.356   0.270   5.838 -0.0819  0.0388 -0.2360
  120CHL1   H1415083   0.414   0.364   5.846  0.4531 -0.3502  0.5810
  120CHL1   C1515084   0.222   0.302   5.777  0.6178 -0.6695  0.0940
  120CHL1  H15A15085   0.143   0.225   5.793 -0.3042  0.1275 -0.4979
  120CHL1  H15B15086   0.183   0.396   5.820  3.0547  0.3226  0.2523
  120CHL1   C1615087   0.239   0.306   5.617  0.6439 -0.1432  0.2898
  120CHL1  H16A15088   0.169   0.235   5.568 -0.6360  1.1854  0.1282
  120CHL1  H16B15089   0.213   0.407   5.578  0.3180 -0.3351  0.0089
  120CHL1   C1715090   0.398   0.278   5.604 -0.4547  0.2611 -0.2438
  120CHL1   H1715091   0.449   0.376   5.614  0.9938 -0.5444  0.5869
  120CHL1   C1315092   0.436   0.192   5.726 -0.3186 -0.4034  0.1643
  120CHL1   C1815093   0.382   0.046   5.715  0.0145 -0.1327  0.0650
  120CHL1  H18A15094   0.446  -0.011   5.644  1.0421  1.6835 -0.5537
  120CHL1  H18B15095   0.373  -0.000   5.816 -3.3861  1.4214  0.6175
  120CHL1  H18C15096   0.277   0.047   5.680  0.0692  0.3828 -0.0905
  120CHL1   C1215097   0.580   0.182   5.768 -0.5109 -0.4929 -0.4797
  120CHL1  H12A15098   0.653   0.131   5.702  1.1850  1.4146 -0.1754
  120CHL1  H12B15099   0.631   0.281   5.768  1.1877 -1.1632  3.9235
  120CHL1   C1115100   0.591   0.113   5.904  0.2273 -0.2842 -0.8991
  120CHL1  H11A15101   0.569   0.006   5.883  3.1132 -0.6882 -2.3225
  120CHL1  H11B15102   0.696   0.104   5.938  1.8141  1.7853 -4.6785
  120CHL1    C915103   0.500   0.178   6.017  0.7292 -0.3858 -0.3697
  120CHL1    H915104   0.531   0.284   6.028 -0.3323 -0.2624  1.9452
  120CHL1   C1015105   0.512   0.119   6.162 -0.0416 -0.2755  0.4629
  120CHL1   C1915106   0.499  -0.032   6.158  0.2137  0.6765  0.5426
  120CHL1  H19A15107   0.403  -0.059   6.108  0.9592 -1.7405  0.2666
  120CHL1  H19B15108   0.578  -0.073   6.091  1.6309 -0.1917  2.6512
  120CHL1  H19C15109   0.502  -0.102   6.244 -3.3823  1.2290  1.2918
  120CHL1    C115110   0.656   0.155   6.219  0.4773  0.2224  0.8041
  120CHL1   H1A15111   0.730   0.110   6.150 -0.9454 -1.6666  0.4231
  120CHL1   H1B15112   0.658   0.266   6.217  1.1028  0.2177 -1.0936
  120CHL1    C215113   0.672   0.115   6.368  0.3691  0.1919 -0.2615
  120CHL1   H2A15114   0.777   0.136   6.396  0.4828 -0.6573 -0.0503
  120CHL1   H2B15115   0.655   0.006   6.379  1.1734  0.0070 -0.7919
  120CHL1   C2015116   0.426   0.221   5.462 -0.0293 -0.0731 -0.5479
  120CHL1   H2015117   0.374   0.125   5.442 -0.4310  0.2497 -1.0768
  120CHL1   C2115118   0.583   0.197   5.453 -1.0334  0.3644  0.1699
  120CHL1  H21A15119   0.620   0.168   5.352 -2.0998  1.1430 -0.4732
  120CHL1  H21B15120   0.603   0.102   5.507 -0.8734 -0.6350 -1.5443
  120CHL1  H21C15121   0.632   0.286   5.496 -0.0496 -0.5062  0.9077
  120CHL1   C2215122   0.391   0.326   5.356  0.6395 -1.1045  0.7234
  120CHL1  H22A15123   0.282   0.344   5.373  0.5216 -0.4100 -0.5968
  120CHL1  H22B15124   0.443   0.418   5.388 -1.9725  0.1009  1.7801
  120CHL1   C2315125   0.406   0.287   5.210 -0.7457 -0.2685 -0.6784
  120CHL1  H23A15126   0.508   0.319   5.178 -0.2835 -0.8563  0.1636
  120CHL1  H23B15127   0.399   0.176   5.208  0.7662 -0.4778  1.7274
  120CHL1   C2415128   0.300   0.339   5.115 -0.1682 -0.2137  0.4016
  120CHL1  H24A15129   0.324   0.446   5.093 -0.2686 -0.0414  1.1066
  120CHL1  H24B15130   0.311   0.290   5.016  2.2433  0.2070  0.3984
  120CHL1   C2515131   0.157   0.330   5.157 -0.5749  0.3404 -0.1379
  120CHL1   H2515132   0.142   0.392   5.248 -1.8687 -0.9530  0.5648
  120CHL1   C2615133   0.072   0.376   5.040  0.5210 -0.0146  0.5694
  120CHL1  H26A15134  -0.031   0.356   5.076  0.8403 -0.2486  1.3756
  120CHL1  H26B15135   0.078   0.484   5.016  4.0824 -0.3349 -0.6199
  120CHL1  H26C15136   0.087   0.313   4.949 -0.4244  1.3214 -0.5581
  120CHL1   C2715137   0.118   0.185   5.203  0.7797 -0.1856 -0.4194
  120CHL1  H27A15138   0.140   0.112   5.122 -2.0393 -0.9995 -0.5559
  120CHL1  H27B15139   0.175   0.153   5.293  0.4255  2.9793  1.0923
  120CHL1  H27C15140   0.009   0.185   5.226  0.9903  0.3654  0.6573
  121CHL1    C315141   4.648   4.705   3.065 -0.3930  0.8213  0.3835
  121CHL1    H315142   4.755   4.729   3.084 -0.0332  2.0170 -2.6829
  121CHL1    O315143   4.613   4.716   2.925  0.1782 -0.2074  0.0583
  121CHL1   H3'15144   4.517   4.726   2.925  0.0837 -0.7474  2.1390
  121CHL1    C415145   4.615   4.566   3.121  0.7423  0.2413 -0.4328
  121CHL1   H4A15146   4.507   4.547   3.103  0.6672 -0.5002  0.7245
  121CHL1   H4B15147   4.677   4.494   3.064  0.6680  0.7717 -1.2083
  121CHL1    C515148   4.649   4.560   3.271  0.4300 -0.4591  0.0806
  121CHL1    C615149   4.726   4.468   3.318 -0.9179  0.4498  0.3931
  121CHL1    H615150   4.773   4.395   3.250 -0.8566  2.4163 -1.7940
  121CHL1    C715151   4.768   4.451   3.464 -0.0286  0.3693  0.5120
  121CHL1   H7A15152   4.766   4.342   3.487 -1.2892  0.2912  0.0801
  121CHL1   H7B15153   4.876   4.473   3.479  0.2966 -0.3228 -0.7015
  121CHL1    C815154   4.674   4.524   3.559 -0.1018 -0.3101 -0.3710
  121CHL1    H815155   4.570   4.485   3.566  0.4955 -1.8402  0.5426
  121CHL1   C1415156   4.733   4.526   3.695  0.0133 -0.1233  0.3104
  121CHL1   H1415157   4.830   4.579   3.686  0.4735 -0.6959  1.6860
  121CHL1   C1515158   4.770   4.396   3.750  0.0852 -0.3252 -0.0299
  121CHL1  H15A15159   4.688   4.322   3.741 -0.2049 -0.7033  4.0280
  121CHL1  H15B15160   4.860   4.350   3.702 -0.0384 -1.4112  0.7417
  121CHL1   C1615161   4.786   4.426   3.899  0.7265  0.5696  0.4634
  121CHL1  H16A15162   4.709   4.366   3.952 -0.8079  2.1933  0.1755
  121CHL1  H16B15163   4.889   4.415   3.939  0.8699 -1.5806 -0.3563
  121CHL1   C1715164   4.737   4.576   3.920 -0.4970  0.2465 -0.2820
  121CHL1   H1715165   4.835   4.628   3.913  0.2298 -0.6612  2.2050
  121CHL1   C1315166   4.654   4.611   3.798 -0.5929 -0.4252 -0.0314
  121CHL1   C1815167   4.504   4.567   3.815  0.4976  0.3086 -0.2291
  121CHL1  H18A15168   4.443   4.570   3.722 -2.0243  0.5919  1.3429
  121CHL1  H18B15169   4.514   4.462   3.848 -1.3825 -0.2998 -1.4212
  121CHL1  H18C15170   4.460   4.638   3.889  2.4557  2.1701 -0.7572
  121CHL1   C1215171   4.657   4.755   3.749 -0.2541 -0.0161 -0.3509
  121CHL1  H12A15172   4.593   4.823   3.809  0.0931  1.4817 -1.6323
  121CHL1  H12B15173   4.761   4.793   3.746 -0.7479  1.3905 -0.4554
  121CHL1   C1115174   4.602   4.769   3.603  0.7719  0.2391 -0.3462
  121CHL1  H11A15175   4.493   4.748   3.613  0.4596  2.2099  0.9783
  121CHL1  H11B15176   4.614   4.875   3.574 -0.4436  0.5827  0.3448
  121CHL1    C915177   4.663   4.672   3.501 -0.4903  0.6174 -0.6190
  121CHL1    H915178   4.765   4.710   3.480 -1.4234  3.2002 -0.8693
  121CHL1   C1015179   4.595   4.676   3.360 -0.5247  0.3851  0.8002
  121CHL1   C1915180   4.443   4.644   3.375 -0.7080  0.2215 -0.3720
  121CHL1  H19A15181   4.410   4.620   3.272  0.8884 -0.4383 -0.7539
  121CHL1  H19B15182   4.431   4.553   3.437  1.2919  1.0904  1.4083
  121CHL1  H19C15183   4.385   4.726   3.422  0.6150  1.2855 -0.5329
  121CHL1    C115184   4.623   4.815   3.293  0.4496 -0.1130  0.5713
  121CHL1   H1A15185   4.557   4.891   3.341  1.1837 -0.1475  1.6847
  121CHL1   H1B15186   4.729   4.839   3.318  1.3419 -2.7876 -0.3815
  121CHL1    C215187   4.581   4.818   3.144 -0.4813  0.1406 -0.6711
  121CHL1   H2A15188   4.600   4.919   3.101  0.5248  0.4068  0.3281
  121CHL1   H2B15189   4.473   4.798   3.133 -0.0411 -3.6433  0.5054
  121CHL1   C2015190   4.680   4.604   4.062 -0.0399  0.4452  0.5426
  121CHL1   H2015191   4.583   4.551   4.076  0.6131 -0.4392  2.0428
  121CHL1   C2115192   4.651   4.752   4.080  0.5405 -0.0487 -0.0725
  121CHL1  H21A15193   4.744   4.805   4.052  1.8274 -1.6570  0.9785
  121CHL1  H21B15194   4.624   4.772   4.185  1.3265 -0.4988  0.2252
  121CHL1  H21C15195   4.574   4.796   4.013  0.8603  1.3284  0.4319
  121CHL1   C2215196   4.758   4.550   4.181 -0.2142 -0.4579 -0.4729
  121CHL1  H22A15197   4.821   4.467   4.144  0.5485  0.5600 -1.5617
  121CHL1  H22B15198   4.834   4.626   4.210  0.3323 -0.9940 -0.4902
  121CHL1   C2315199   4.681   4.516   4.305  0.5419 -0.4112 -0.5837
  121CHL1  H23A15200   4.620   4.605   4.332  1.5905  0.1990 -0.1415
  121CHL1  H23B15201   4.605   4.436   4.294  0.3339 -0.4973  1.1484
  121CHL1   C2415202   4.759   4.480   4.437 -0.4270  0.1674 -0.4919
  121CHL1  H24A15203   4.684   4.455   4.514 -0.5146 -0.2713 -0.7160
  121CHL1  H24B15204   4.825   4.392   4.427 -1.0940 -0.3866 -0.0909
  121CHL1   C2515205   4.862   4.588   4.484 -0.2844 -0.3680 -1.2241
  121CHL1   H2515206   4.930   4.588   4.396 -0.2422 -2.7807 -1.2682
  121CHL1   C2615207   4.794   4.715   4.530 -0.2313 -0.5958  0.4217
  121CHL1  H26A15208   4.855   4.793   4.581  0.0182 -0.7881  0.4205
  121CHL1  H26B15209   4.751   4.760   4.438 -2.4016  4.1949  3.3528
  121CHL1  H26C15210   4.704   4.702   4.595 -1.7226  2.3485 -0.8454
  121CHL1   C2715211   4.930   4.529   4.607  0.4463 -0.1180 -0.4334
  121CHL1  H27A15212   4.969   4.430   4.575  2.6267  0.3568  0.5337
  121CHL1  H27B15213   5.018   4.592   4.632  0.7364 -0.5406 -0.3766
  121CHL1  H27C15214   4.862   4.506   4.692 -0.6616  0.2287 -1.2019
  122CHL1    C315215   3.502   5.914   3.444 -0.1028 -0.0349 -0.7655
  122CHL1    H315216   3.464   6.002   3.500 -0.1504 -0.4696 -0.1029
  122CHL1    O315217   3.565   5.959   3.325  0.4714 -0.2373 -0.6073
  122CHL1   H3'15218   3.575   5.877   3.276  0.6619 -1.8471  1.9896
  122CHL1    C415219   3.609   5.844   3.536  0.0146  0.2442  0.3083
  122CHL1   H4A15220   3.670   5.773   3.476 -0.0266  0.9268 -0.5687
  122CHL1   H4B15221   3.680   5.919   3.575  0.2387  0.4185 -0.4146
  122CHL1    C515222   3.549   5.781   3.660  0.3190 -0.1859 -0.2670
  122CHL1    C615223   3.590   5.817   3.781  0.5735  0.5996 -0.9518
  122CHL1    H615224   3.668   5.892   3.798  2.0158 -0.7721 -1.2379
  122CHL1    C715225   3.531   5.754   3.908  0.2090 -0.3074 -0.0856
  122CHL1   H7A15226   3.616   5.733   3.977  1.4052  1.7943 -0.8586
  122CHL1   H7B15227   3.480   5.840   3.957  0.3423 -0.1308 -0.2594
  122CHL1    C815228   3.441   5.619   3.884  0.1917  0.2393 -0.5174
  122CHL1    H815229   3.509   5.535   3.859 -0.8218 -1.0603  0.8228
  122CHL1   C1415230   3.353   5.588   4.001 -0.0578  0.0929  0.0247
  122CHL1   H1415231   3.284   5.675   4.011  0.0541 -0.0294  2.5567
  122CHL1   C1515232   3.429   5.580   4.136  0.6555  0.0659 -0.9173
  122CHL1  H15A15233   3.520   5.516   4.140  0.7545  0.1525 -1.6037
  122CHL1  H15B15234   3.451   5.681   4.176 -0.8908  0.1317 -0.1458
  122CHL1   C1615235   3.339   5.494   4.224  0.0666 -0.0322 -0.2450
  122CHL1  H16A15236   3.397   5.402   4.245 -0.8396 -0.5293  0.1061
  122CHL1  H16B15237   3.307   5.549   4.315  1.4735  1.5018 -0.6407
  122CHL1   C1715238   3.220   5.440   4.135  0.0992 -0.3974  0.2498
  122CHL1   H1715239   3.134   5.509   4.143  0.2950 -0.0429 -0.5799
  122CHL1   C1315240   3.268   5.460   3.990 -0.7554 -0.1848  0.1716
  122CHL1   C1815241   3.357   5.329   3.959  0.2882 -0.8234  0.3173
  122CHL1  H18A15242   3.278   5.257   3.930  0.4094 -0.3595 -1.3059
  122CHL1  H18B15243   3.415   5.355   3.867  1.7396  1.7740  1.8392
  122CHL1  H18C15244   3.429   5.311   4.042  1.3124  3.7596  0.6883
  122CHL1   C1215245   3.167   5.497   3.884  0.5222  0.1332  0.6105
  122CHL1  H12A15246   3.094   5.417   3.862 -2.4638  2.6735  0.5581
  122CHL1  H12B15247   3.111   5.589   3.912 -0.2859 -0.0705 -0.2953
  122CHL1   C1115248   3.238   5.536   3.752  0.1039  0.0815 -0.0946
  122CHL1  H11A15249   3.283   5.442   3.715  1.8837  0.2640  1.4394
  122CHL1  H11B15250   3.161   5.574   3.681  0.0961  1.2283  0.4899
  122CHL1    C915251   3.356   5.639   3.763  0.0704 -0.0234 -0.3405
  122CHL1    H915252   3.298   5.728   3.793 -1.9554 -0.6586 -2.1152
  122CHL1   C1015253   3.433   5.675   3.634 -0.2313 -1.1043  0.3492
  122CHL1   C1915254   3.485   5.551   3.567 -0.0132  0.4713 -0.0671
  122CHL1  H19A15255   3.537   5.565   3.470  1.1748 -2.7314 -0.0235
  122CHL1  H19B15256   3.560   5.508   3.637  1.2284  0.3845 -1.4294
  122CHL1  H19C15257   3.413   5.473   3.535  0.7675 -0.4883  0.4681
  122CHL1    C115258   3.329   5.745   3.537  0.1697  0.1213  0.0424
  122CHL1   H1A15259   3.249   5.673   3.510  2.1618 -2.5447  0.7893
  122CHL1   H1B15260   3.290   5.837   3.586 -2.7090  0.1626 -2.0756
  122CHL1    C215261   3.394   5.813   3.409  0.9144  0.0420  0.0329
  122CHL1   H2A15262   3.316   5.866   3.351  0.1247  1.0550  1.9433
  122CHL1   H2B15263   3.435   5.729   3.348 -2.8278 -1.4710 -0.6750
  122CHL1   C2015264   3.181   5.298   4.188 -0.3952 -0.6018 -0.3943
  122CHL1   H2015265   3.265   5.230   4.164 -0.4748 -0.9406  0.2692
  122CHL1   C2115266   3.061   5.246   4.113 -0.0368  0.2943 -0.1451
  122CHL1  H21A15267   3.046   5.140   4.141  0.7355 -0.5911 -2.7309
  122CHL1  H21B15268   3.079   5.241   4.003 -0.3429  1.4087 -0.2545
  122CHL1  H21C15269   2.969   5.304   4.136 -0.2949  0.2304 -0.9650
  122CHL1   C2215270   3.161   5.290   4.343  0.2194 -0.2534  0.1940
  122CHL1  H22A15271   3.257   5.324   4.388  0.7198  0.3737 -1.2749
  122CHL1  H22B15272   3.072   5.355   4.352 -2.2135 -3.2677 -0.4180
  122CHL1   C2315273   3.131   5.145   4.393 -0.7874  0.0083 -0.1810
  122CHL1  H23A15274   3.034   5.110   4.352 -0.2795 -0.1370 -1.2927
  122CHL1  H23B15275   3.198   5.067   4.350 -0.1447 -0.5074  1.6647
  122CHL1   C2415276   3.117   5.133   4.547 -0.2097  0.4677 -0.1955
  122CHL1  H24A15277   3.042   5.205   4.587  0.5430  0.1559  1.9028
  122CHL1  H24B15278   3.078   5.036   4.582 -1.9093  1.1045 -0.2304
  122CHL1   C2515279   3.251   5.165   4.621 -0.1203 -0.0133  0.3161
  122CHL1   H2515280   3.262   5.275   4.622 -1.4182  0.1299  0.8869
  122CHL1   C2615281   3.245   5.119   4.770  0.2053 -0.4047  0.2123
  122CHL1  H26A15282   3.157   5.164   4.821  0.8612  1.6758 -0.3841
  122CHL1  H26B15283   3.234   5.009   4.777 -1.6363 -0.2491  0.4498
  122CHL1  H26C15284   3.339   5.160   4.813  0.7677 -0.2349 -1.1428
  122CHL1   C2715285   3.383   5.113   4.561  0.0510 -0.1378  0.2374
  122CHL1  H27A15286   3.400   5.004   4.577 -0.9270 -0.1412  1.4098
  122CHL1  H27B15287   3.391   5.133   4.452  1.2209 -0.5238  0.2404
  122CHL1  H27C15288   3.468   5.155   4.619 -1.0043  0.3490  1.4720
  123CHL1    C315289   6.279   4.563   3.428  0.3930  0.8599  0.0047
  123CHL1    H315290   6.360   4.629   3.391  0.3085  0.3011 -1.2377
  123CHL1    O315291   6.238   4.475   3.320 -0.2684 -0.2333  0.3600
  123CHL1   H3'15292   6.185   4.406   3.360  0.1562  0.8974  3.0858
  123CHL1    C415293   6.348   4.465   3.532 -0.3981 -0.8492  0.4802
  123CHL1   H4A15294   6.276   4.381   3.543  1.6902 -2.6116  1.4009
  123CHL1   H4B15295   6.445   4.430   3.492  0.4762 -2.2156  3.5023
  123CHL1    C515296   6.367   4.528   3.670 -0.6706  0.1361  0.2756
  123CHL1    C615297   6.482   4.503   3.731 -0.1847  0.3848 -0.3189
  123CHL1    H615298   6.566   4.445   3.690  1.9888  2.6220  0.7332
  123CHL1    C715299   6.505   4.566   3.865  0.2897 -0.9986 -1.3237
  123CHL1   H7A15300   6.551   4.498   3.941 -0.3794  0.9653  0.9824
  123CHL1   H7B15301   6.574   4.652   3.847 -1.3945  1.1643  1.6038
  123CHL1    C815302   6.388   4.643   3.935  0.7000  0.0435  0.3706
  123CHL1    H815303   6.333   4.557   3.979  0.2450  0.0154 -0.2387
  123CHL1   C1415304   6.437   4.736   4.046  0.4807 -0.0283  0.1161
  123CHL1   H1415305   6.491   4.811   3.984  0.6437 -1.3913 -1.4500
  123CHL1   C1515306   6.547   4.684   4.143  0.0946  0.1116 -0.1605
  123CHL1  H15A15307   6.524   4.579   4.171  1.7149 -1.1587 -3.1361
  123CHL1  H15B15308   6.652   4.693   4.109  0.0565  0.7257 -0.1418
  123CHL1   C1615309   6.519   4.776   4.263 -0.7368  0.6421 -0.0986
  123CHL1  H16A15310   6.495   4.716   4.353 -0.2124  0.3041 -0.1772
  123CHL1  H16B15311   6.610   4.837   4.283  0.0607 -0.4877 -0.1616
  123CHL1   C1715312   6.399   4.870   4.237 -0.0169  0.2382  0.8498
  123CHL1   H1715313   6.440   4.964   4.195  0.5631 -0.0498  0.7510
  123CHL1   C1315314   6.320   4.808   4.120  0.3638  0.2450  0.6962
  123CHL1   C1815315   6.227   4.702   4.186 -0.1974 -0.4150  0.0614
  123CHL1  H18A15316   6.279   4.631   4.254 -1.2068 -1.3889 -0.1544
  123CHL1  H18B15317   6.157   4.737   4.265 -0.9708 -0.6042 -0.5306
  123CHL1  H18C15318   6.176   4.638   4.112 -1.0976  1.0150 -0.5837
  123CHL1   C1215319   6.241   4.892   4.018  0.5950 -0.7834  0.5366
  123CHL1  H12A15320   6.149   4.929   4.068 -1.2378 -1.3607 -2.1975
  123CHL1  H12B15321   6.308   4.971   3.979 -0.6405  0.9675  1.8031
  123CHL1   C1115322   6.190   4.811   3.900 -0.3373  0.5023 -0.1344
  123CHL1  H11A15323   6.111   4.747   3.944 -0.8592  1.7044  0.7502
  123CHL1  H11B15324   6.142   4.878   3.825 -0.8377  0.2164 -0.0775
  123CHL1    C915325   6.299   4.725   3.837  0.4139  1.1782  0.4201
  123CHL1    H915326   6.371   4.797   3.794  0.9022  0.2852 -0.2887
  123CHL1   C1015327   6.255   4.625   3.724  0.4801 -0.7159 -0.1841
  123CHL1   C1915328   6.130   4.543   3.773  0.4229  0.2818  0.7228
  123CHL1  H19A15329   6.048   4.611   3.803  1.2636  1.1114  1.1894
  123CHL1  H19B15330   6.090   4.461   3.709 -0.6291 -0.1280  1.8766
  123CHL1  H19C15331   6.157   4.476   3.857 -0.3240  1.0182  1.5595
  123CHL1    C115332   6.215   4.717   3.606 -0.0891  0.8525 -0.0474
  123CHL1   H1A15333   6.126   4.777   3.637 -2.2435 -2.0076 -0.2188
  123CHL1   H1B15334   6.300   4.782   3.576 -0.2603  0.8473 -0.5408
  123CHL1    C215335   6.166   4.640   3.485  0.6626  0.0955 -0.1209
  123CHL1   H2A15336   6.133   4.711   3.407  0.6831  0.4725  0.2134
  123CHL1   H2B15337   6.078   4.575   3.503  0.0107  1.2752  1.0842
  123CHL1   C2015338   6.331   4.905   4.369  0.1612 -0.2138 -0.3833
  123CHL1   H2015339   6.279   4.812   4.403 -1.1237  0.1535 -1.2740
  123CHL1   C2115340   6.230   5.020   4.343 -0.8419 -0.2607  0.1351
  123CHL1  H21A15341   6.154   4.996   4.265 -0.7399 -0.1104 -0.0132
  123CHL1  H21B15342   6.285   5.111   4.308 -1.2400  0.1416  0.5387
  123CHL1  H21C15343   6.174   5.055   4.432 -0.9674  2.1490 -0.8097
  123CHL1   C2215344   6.434   4.946   4.476 -0.3306 -0.7700  0.4204
  123CHL1  H22A15345   6.519   4.877   4.497 -0.1509 -0.1901  1.6513
  123CHL1  H22B15346   6.483   5.041   4.447 -1.2010 -0.7446 -1.0709
  123CHL1   C2315347   6.384   4.962   4.621  0.4551  0.8253 -0.1058
  123CHL1  H23A15348   6.295   5.028   4.626  0.3607  0.7028 -0.1370
  123CHL1  H23B15349   6.367   4.857   4.655  0.5048  0.3672 -1.4152
  123CHL1   C2415350   6.497   5.018   4.709  0.0707  0.0267 -0.6077
  123CHL1  H24A15351   6.587   4.953   4.708 -0.9076 -1.3764 -0.6849
  123CHL1  H24B15352   6.525   5.121   4.677 -1.3754  0.2950 -1.1054
  123CHL1   C2515353   6.454   5.026   4.863 -0.3188 -0.2993  0.0176
  123CHL1   H2515354   6.423   4.925   4.897  0.5302 -0.2809  0.8762
  123CHL1   C2615355   6.577   5.064   4.947 -0.1897 -0.0294  0.0281
  123CHL1  H26A15356   6.666   5.012   4.905  0.6239  0.1494  1.4900
  123CHL1  H26B15357   6.597   5.171   4.927 -1.0201 -0.2363 -2.1872
  123CHL1  H26C15358   6.575   5.041   5.055  0.3810 -0.7249 -0.1006
  123CHL1   C2715359   6.356   5.133   4.890  0.2088 -0.5401  0.0550
  123CHL1  H27A15360   6.276   5.141   4.813 -2.5939 -1.3825  2.6732
  123CHL1  H27B15361   6.303   5.137   4.988 -4.8494  0.8157 -2.4135
  123CHL1  H27C15362   6.395   5.238   4.892  0.1999 -0.5278  1.7086
  124CHL1    C315363   4.603   5.700   3.370 -0.4119  0.0848  0.0882
  124CHL1    H315364   4.495   5.702   3.346 -0.5611  0.4446  0.7612
  124CHL1    O315365   4.698   5.720   3.266 -0.5615 -0.0259 -0.0103
  124CHL1   H3'15366   4.662   5.657   3.202 -0.2211 -0.2806  0.0435
  124CHL1    C415367   4.624   5.810   3.479 -0.6482  0.0495 -0.2619
  124CHL1   H4A15368   4.734   5.812   3.498 -0.8409  2.8143  0.9576
  124CHL1   H4B15369   4.598   5.906   3.429  2.6985 -0.2148 -2.8921
  124CHL1    C515370   4.548   5.779   3.614  0.3538  0.0791  0.2349
  124CHL1    C615371   4.471   5.871   3.676 -0.1424  0.1992  0.4418
  124CHL1    H615372   4.467   5.971   3.630  1.2030 -0.8751 -2.1856
  124CHL1    C715373   4.410   5.853   3.810 -0.4429 -0.2800 -0.7163
  124CHL1   H7A15374   4.431   5.935   3.882  0.7126 -2.0531  1.0723
  124CHL1   H7B15375   4.300   5.848   3.794 -0.5116  0.2468 -0.4510
  124CHL1    C815376   4.453   5.726   3.886 -0.6026  0.0003 -0.2437
  124CHL1    H815377   4.558   5.732   3.921 -0.5859 -0.1061 -0.2739
  124CHL1   C1415378   4.359   5.702   4.002  0.0540  0.0115 -0.2111
  124CHL1   H1415379   4.265   5.677   3.947 -0.4071 -1.8517  1.3189
  124CHL1   C1515380   4.321   5.814   4.092  0.1448 -0.0588 -0.1975
  124CHL1  H15A15381   4.408   5.869   4.135 -1.5993  1.6014  1.3888
  124CHL1  H15B15382   4.247   5.875   4.035  0.8623 -0.4898 -1.6356
  124CHL1   C1615383   4.255   5.741   4.214  0.1800  0.6615  0.2620
  124CHL1  H16A15384   4.322   5.760   4.301  1.7230  1.8447 -1.1204
  124CHL1  H16B15385   4.154   5.783   4.230  0.7307  1.5218  1.6053
  124CHL1   C1715386   4.254   5.590   4.179 -0.2439  0.1203  0.1795
  124CHL1   H1715387   4.169   5.575   4.110 -0.9640  1.4503  0.7506
  124CHL1   C1315388   4.376   5.573   4.083  0.0077  0.0411 -0.6914
  124CHL1   C1815389   4.501   5.571   4.170  0.3795 -0.8866 -0.4064
  124CHL1  H18A15390   4.512   5.669   4.223 -1.2207 -0.5277 -0.6682
  124CHL1  H18B15391   4.520   5.480   4.231 -0.4010  0.4820  2.0260
  124CHL1  H18C15392   4.590   5.569   4.104  0.2368 -0.0880 -0.6367
  124CHL1   C1215393   4.378   5.451   3.985  0.2649  0.1929 -0.3650
  124CHL1  H12A15394   4.387   5.360   4.048  0.4367 -0.7821 -1.7381
  124CHL1  H12B15395   4.276   5.447   3.941 -0.4744 -0.8749  1.3542
  124CHL1   C1115396   4.479   5.469   3.869 -0.0139 -0.4916 -0.3139
  124CHL1  H11A15397   4.574   5.490   3.923  0.0002  2.5989 -1.3583
  124CHL1  H11B15398   4.486   5.387   3.795 -0.1675 -1.5478  0.8079
  124CHL1    C915399   4.459   5.605   3.791 -0.1173  0.6728 -0.4823
  124CHL1    H915400   4.357   5.593   3.750 -0.7509  0.5883  1.0479
  124CHL1   C1015401   4.560   5.635   3.671 -0.3192  0.3263  0.2012
  124CHL1   C1915402   4.702   5.622   3.728  0.0520  0.3514 -0.1987
  124CHL1  H19A15403   4.711   5.668   3.829  0.4889  1.7472 -0.8494
  124CHL1  H19B15404   4.736   5.516   3.733 -2.3553 -0.4461  1.1596
  124CHL1  H19C15405   4.775   5.676   3.663  0.7963 -0.2263  0.1438
  124CHL1    C115406   4.540   5.538   3.547  0.6612 -0.4504  0.0035
  124CHL1   H1A15407   4.567   5.438   3.587  1.7622 -0.2130 -0.0974
  124CHL1   H1B15408   4.437   5.545   3.505  1.0698 -0.8750 -1.1215
  124CHL1    C215409   4.633   5.558   3.423 -0.1426 -0.2385  0.4528
  124CHL1   H2A15410   4.601   5.484   3.347 -0.6911  2.0559 -1.6811
  124CHL1   H2B15411   4.740   5.559   3.453  0.7870 -2.7002 -2.2956
  124CHL1   C2015412   4.244   5.499   4.310  0.4650 -0.0096  0.0699
  124CHL1   H2015413   4.331   5.532   4.371  1.2753 -0.8831 -0.5874
  124CHL1   C2115414   4.251   5.344   4.276  0.9078  0.1571 -0.4339
  124CHL1  H21A15415   4.183   5.311   4.195  0.3926 -0.3406  0.1902
  124CHL1  H21B15416   4.220   5.289   4.367 -1.6572  1.2398 -0.5619
  124CHL1  H21C15417   4.355   5.311   4.254  0.3167 -0.4568 -2.5381
  124CHL1   C2215418   4.115   5.519   4.383  0.1493 -0.4301 -0.5501
  124CHL1  H22A15419   4.092   5.628   4.380 -0.3054 -0.4533  1.1601
  124CHL1  H22B15420   4.028   5.469   4.336 -0.0987  1.5336 -2.3685
  124CHL1   C2315421   4.134   5.490   4.535  0.0686  0.0461 -0.3796
  124CHL1  H23A15422   4.152   5.380   4.540  2.2368  0.4168  3.1194
  124CHL1  H23B15423   4.227   5.539   4.571 -0.3716 -0.0891  1.0092
  124CHL1   C2415424   4.023   5.534   4.627  0.2883  0.1517  0.3790
  124CHL1  H24A15425   4.022   5.645   4.620 -1.5743  0.0665 -1.9390
  124CHL1  H24B15426   3.921   5.507   4.593  0.2211  0.3797  0.3971
  124CHL1   C2515427   4.057   5.501   4.779  0.9239 -0.2930 -0.0157
  124CHL1   H2515428   4.066   5.390   4.783  0.6207 -0.3705 -0.9962
  124CHL1   C2615429   4.186   5.565   4.831 -0.0759  0.2143 -0.1795
  124CHL1  H26A15430   4.278   5.528   4.781 -0.4231 -0.2770 -0.4642
  124CHL1  H26B15431   4.172   5.674   4.820 -0.5335  0.1774 -0.0061
  124CHL1  H26C15432   4.196   5.551   4.941  0.2814  2.0374  0.0411
  124CHL1   C2715433   3.929   5.524   4.860 -0.0361  0.0785 -0.1997
  124CHL1  H27A15434   3.839   5.478   4.814 -0.2805  1.3450 -1.0268
  124CHL1  H27B15435   3.941   5.494   4.967 -1.1150  0.9135  0.1819
  124CHL1  H27C15436   3.901   5.632   4.859 -3.3080 -0.6450  0.8787
  125CHL1    C315437   5.042   5.914   3.523 -0.0892 -0.6291  0.0758
  125CHL1    H315438   4.983   5.820   3.530  0.2862 -1.3336 -4.0883
  125CHL1    O315439   5.091   5.916   3.395 -0.5053 -0.4779  1.0782
  125CHL1   H3'15440   5.159   5.984   3.395  1.0226 -1.8302 -1.8948
  125CHL1    C415441   4.959   6.032   3.548  0.4884 -0.6297 -0.3049
  125CHL1   H4A15442   4.998   6.128   3.508 -0.4370  0.4258  1.2353
  125CHL1   H4B15443   4.873   6.009   3.481  0.4358  0.5603 -0.6719
  125CHL1    C515444   4.924   6.052   3.691 -0.7069  0.0160 -0.5700
  125CHL1    C615445   4.798   6.067   3.734 -0.3825  0.1471  0.3085
  125CHL1    H615446   4.716   6.071   3.660 -0.8440 -1.3547  0.7017
  125CHL1    C715447   4.766   6.080   3.876 -0.6396 -0.0421  0.1456
  125CHL1   H7A15448   4.696   6.165   3.883 -0.1004  0.2434  3.8904
  125CHL1   H7B15449   4.708   5.989   3.902  0.1077 -0.6761 -0.3456
  125CHL1    C815450   4.888   6.090   3.976  0.2678  0.3283  0.0880
  125CHL1    H815451   4.924   6.195   3.975  0.2044  0.3536 -1.8895
  125CHL1   C1415452   4.836   6.036   4.114 -0.5757  0.3044  0.3596
  125CHL1   H1415453   4.829   5.926   4.096  0.2208  0.3985 -0.6179
  125CHL1   C1515454   4.706   6.076   4.172  0.0686  0.6058  0.0602
  125CHL1  H15A15455   4.675   6.181   4.153 -0.1735  0.0749 -3.1356
  125CHL1  H15B15456   4.624   6.008   4.138  0.9680 -0.8888  0.7646
  125CHL1   C1615457   4.724   6.053   4.329  0.0979 -0.1666 -0.1916
  125CHL1  H16A15458   4.727   6.156   4.370  1.2150  1.0610 -3.0873
  125CHL1  H16B15459   4.639   5.996   4.372 -0.7194 -0.1426 -1.6816
  125CHL1   C1715460   4.863   5.989   4.345 -0.4316 -0.2548  0.4875
  125CHL1   H1715461   4.858   5.878   4.339  0.2293 -0.2680  0.0658
  125CHL1   C1315462   4.948   6.043   4.229 -0.6343 -0.1785  0.6302
  125CHL1   C1815463   4.980   6.190   4.252 -0.3340 -0.0650 -0.1630
  125CHL1  H18A15464   5.037   6.239   4.169  0.8930 -0.0829  0.6368
  125CHL1  H18B15465   4.887   6.249   4.268  0.7506  1.3144  1.4710
  125CHL1  H18C15466   5.050   6.210   4.336 -0.7942  0.9683 -0.0074
  125CHL1   C1215467   5.070   5.963   4.180 -0.1847 -0.3813  0.1479
  125CHL1  H12A15468   5.150   5.955   4.256 -0.1974 -0.5134  0.1465
  125CHL1  H12B15469   5.052   5.860   4.144 -3.9031  0.3800 -0.5931
  125CHL1   C1115470   5.124   6.016   4.042  0.0688 -0.2044  0.0798
  125CHL1  H11A15471   5.161   6.119   4.061  0.2178 -0.4691  1.3336
  125CHL1  H11B15472   5.214   5.957   4.014 -0.0865 -1.1730  1.4899
  125CHL1    C915473   5.011   6.008   3.939 -0.6390  0.4126 -0.0466
  125CHL1    H915474   4.969   5.906   3.942  0.1887  0.0783  0.6455
  125CHL1   C1015475   5.046   6.032   3.793 -0.1004 -1.0554  0.2062
  125CHL1   C1915476   5.117   6.169   3.780  0.1053  0.2079  0.0604
  125CHL1  H19A15477   5.217   6.163   3.827 -0.1667 -1.7333  0.4756
  125CHL1  H19B15478   5.141   6.202   3.677 -0.5755  1.2843  0.2371
  125CHL1  H19C15479   5.065   6.248   3.838  2.0745  0.9883  0.8340
  125CHL1    C115480   5.138   5.909   3.756 -0.5675 -0.0070 -0.1011
  125CHL1   H1A15481   5.236   5.914   3.808 -0.0343  0.6052 -1.1322
  125CHL1   H1B15482   5.089   5.820   3.801  0.1914  0.3525  1.5179
  125CHL1    C215483   5.173   5.906   3.610  0.4055  0.6747  0.0659
  125CHL1   H2A15484   5.238   5.820   3.583 -1.0380 -0.3916 -0.1077
  125CHL1   H2B15485   5.231   5.998   3.588  1.0578  0.5663  1.2388
  125CHL1   C2015486   4.908   6.021   4.481 -0.6108 -0.0738 -0.9818
  125CHL1   H2015487   4.922   6.129   4.501 -1.5136 -0.5346  2.8297
  125CHL1   C2115488   5.052   5.964   4.514  0.5532 -0.1320 -0.0510
  125CHL1  H21A15489   5.057   5.857   4.485 -1.1786 -0.4836  0.8314
  125CHL1  H21B15490   5.072   5.977   4.623 -0.2628  0.0572  0.0831
  125CHL1  H21C15491   5.126   6.034   4.470 -1.2962  0.9322 -1.5768
  125CHL1   C2215492   4.818   5.969   4.596  0.4015 -0.2933  0.4453
  125CHL1  H22A15493   4.856   5.991   4.698 -0.9329 -1.3268  1.1966
  125CHL1  H22B15494   4.730   6.036   4.597  1.0455  0.7564 -2.6067
  125CHL1   C2315495   4.774   5.824   4.606 -0.5881  0.6497 -0.4239
  125CHL1  H23A15496   4.728   5.799   4.509 -0.0925  1.1173 -0.7895
  125CHL1  H23B15497   4.864   5.763   4.630  0.0711  1.0656 -1.7126
  125CHL1   C2415498   4.662   5.801   4.711  0.0917 -0.0397 -0.4093
  125CHL1  H24A15499   4.701   5.814   4.815  0.1886  0.9318 -0.5564
  125CHL1  H24B15500   4.580   5.875   4.697 -0.4443 -0.2580  1.2958
  125CHL1   C2515501   4.594   5.664   4.692 -0.1170  0.4536  0.3256
  125CHL1   H2515502   4.508   5.647   4.761 -0.7764  0.5188 -0.4584
  125CHL1   C2615503   4.526   5.648   4.552 -0.4521 -0.3034  0.3801
  125CHL1  H26A15504   4.486   5.747   4.521  0.1979  0.6791  2.4863
  125CHL1  H26B15505   4.609   5.624   4.482  0.8832 -0.8374  2.0555
  125CHL1  H26C15506   4.449   5.568   4.557 -1.6552  0.8768  2.9659
  125CHL1   C2715507   4.695   5.546   4.716 -0.0038 -0.6054 -0.2277
  125CHL1  H27A15508   4.782   5.569   4.651  0.1704 -0.4598  0.0555
  125CHL1  H27B15509   4.726   5.552   4.823 -0.1620  2.5905 -0.2672
  125CHL1  H27C15510   4.663   5.441   4.695  2.2326 -1.7439  1.5467
  126CHL1    C315511   3.985   6.152   3.532  0.0295 -0.6603  0.0117
  126CHL1    H315512   3.891   6.144   3.592 -0.9418 -1.1648 -1.5185
  126CHL1    O315513   3.949   6.128   3.391 -0.0839  0.5556 -0.1789
  126CHL1   H3'15514   4.035   6.120   3.349  0.6614 -0.6960  1.4776
  126CHL1    C415515   4.044   6.293   3.537 -0.3784 -0.4584 -0.1619
  126CHL1   H4A15516   4.135   6.293   3.473  0.7608  0.9880  1.3164
  126CHL1   H4B15517   3.971   6.363   3.491 -1.0266 -0.8853  0.2093
  126CHL1    C515518   4.090   6.335   3.676 -0.1572 -0.1865 -0.2345
  126CHL1    C615519   4.041   6.450   3.728 -0.0261 -0.1115 -0.1461
  126CHL1    H615520   3.983   6.510   3.656  2.4391  1.3524 -1.0254
  126CHL1    C715521   4.070   6.493   3.870  0.4273 -0.4938  0.0898
  126CHL1   H7A15522   4.092   6.602   3.866 -0.7995 -0.2546 -3.2969
  126CHL1   H7B15523   3.977   6.489   3.929  1.2269 -1.7881  1.3123
  126CHL1    C815524   4.187   6.422   3.940 -0.3470 -0.0838  0.6962
  126CHL1    H815525   4.282   6.467   3.902  0.3701 -1.1466  1.2063
  126CHL1   C1415526   4.186   6.439   4.092  0.1974 -0.9979 -0.1233
  126CHL1   H1415527   4.094   6.385   4.123  0.3260 -1.2666 -0.2033
  126CHL1   C1515528   4.165   6.582   4.146 -0.8703 -0.0859  0.2428
  126CHL1  H15A15529   4.247   6.644   4.105  1.9593 -1.3913  3.3349
  126CHL1  H15B15530   4.072   6.635   4.120 -1.9465 -1.0503  1.8860
  126CHL1   C1615531   4.170   6.554   4.298 -0.3598 -0.5829  0.5711
  126CHL1  H16A15532   4.222   6.648   4.327  1.2028 -0.4150 -2.4534
  126CHL1  H16B15533   4.070   6.558   4.346 -0.7280  0.1084 -0.2297
  126CHL1   C1715534   4.251   6.419   4.311 -0.3396 -0.2399 -0.1278
  126CHL1   H1715535   4.171   6.346   4.334 -0.6810 -0.0029 -0.5500
  126CHL1   C1315536   4.303   6.376   4.173  0.4108 -0.5546  0.4626
  126CHL1   C1815537   4.438   6.433   4.139  0.1130  1.0885 -0.0827
  126CHL1  H18A15538   4.434   6.543   4.150  0.0383  1.0123  0.6490
  126CHL1  H18B15539   4.520   6.387   4.198 -0.3859 -0.6290 -0.6589
  126CHL1  H18C15540   4.462   6.406   4.033  0.2408  1.3357 -0.1162
  126CHL1   C1215541   4.303   6.220   4.141 -0.2358  0.4483  0.4032
  126CHL1  H12A15542   4.387   6.165   4.188  0.0254  0.0736 -0.4780
  126CHL1  H12B15543   4.206   6.180   4.177 -1.3881  0.7072 -2.1930
  126CHL1   C1115544   4.307   6.206   3.985  0.2873 -0.2384  0.1291
  126CHL1  H11A15545   4.405   6.241   3.946 -0.7610  1.5927 -0.9915
  126CHL1  H11B15546   4.309   6.096   3.966  1.8954  0.0069 -1.4296
  126CHL1    C915547   4.184   6.276   3.908 -0.0660 -0.0290  0.4876
  126CHL1    H915548   4.092   6.235   3.954 -0.8618  1.0851 -0.0889
  126CHL1   C1015549   4.181   6.245   3.750 -0.0604  0.1609  0.0693
  126CHL1   C1915550   4.330   6.251   3.692  0.6601  0.0743  0.6278
  126CHL1  H19A15551   4.339   6.220   3.586  1.1880 -1.9225  1.2207
  126CHL1  H19B15552   4.364   6.355   3.712  2.2950 -0.1853 -0.6354
  126CHL1  H19C15553   4.403   6.182   3.739  0.8304 -1.3957 -1.6509
  126CHL1    C115554   4.128   6.099   3.726 -0.4636  0.7442  0.3460
  126CHL1   H1A15555   4.187   6.025   3.784 -1.0542  0.4851  0.6321
  126CHL1   H1B15556   4.033   6.101   3.785 -2.6321  0.5070 -2.8658
  126CHL1    C215557   4.090   6.054   3.585  0.0325 -0.0400 -0.3449
  126CHL1   H2A15558   4.051   5.950   3.581  0.1344 -0.0490 -1.6757
  126CHL1   H2B15559   4.180   6.059   3.521  0.7694  0.8600  0.7262
  126CHL1   C2015560   4.350   6.410   4.431  0.7127  0.2925 -0.3960
  126CHL1   H2015561   4.442   6.469   4.409 -0.1376  0.6165 -3.5939
  126CHL1   C2115562   4.394   6.268   4.439  0.1190  0.6141 -0.1209
  126CHL1  H21A15563   4.456   6.237   4.526  1.7514  0.1833 -1.3646
  126CHL1  H21B15564   4.462   6.247   4.353 -0.3200 -1.3436 -0.0403
  126CHL1  H21C15565   4.304   6.204   4.436 -0.8498  1.9601 -1.1875
  126CHL1   C2215566   4.288   6.452   4.566  0.5738 -0.3824  0.1412
  126CHL1  H22A15567   4.251   6.555   4.553 -0.0171 -0.5361  0.5532
  126CHL1  H22B15568   4.207   6.380   4.591  0.5703 -0.3047  0.3555
  126CHL1   C2315569   4.387   6.460   4.686 -0.0914 -0.0379  0.4133
  126CHL1  H23A15570   4.426   6.356   4.692 -1.2961 -0.7409 -2.4188
  126CHL1  H23B15571   4.479   6.517   4.663 -0.9508  1.7827  1.1944
  126CHL1   C2415572   4.325   6.518   4.820 -0.0115  0.4018 -0.0146
  126CHL1  H24A15573   4.278   6.616   4.796  0.3458 -0.0621 -2.9992
  126CHL1  H24B15574   4.249   6.448   4.863 -0.6275 -0.2930 -2.1000
  126CHL1   C2515575   4.440   6.550   4.924  0.2885 -1.0879 -0.1137
  126CHL1   H2515576   4.521   6.594   4.863 -0.5563  1.7902  0.6970
  126CHL1   C2615577   4.392   6.656   5.031 -0.7452  0.2885 -0.2989
  126CHL1  H26A15578   4.357   6.744   4.972 -2.7371  0.0256  0.4019
  126CHL1  H26B15579   4.311   6.629   5.103 -0.3795  1.2018  0.4765
  126CHL1  H26C15580   4.479   6.681   5.096 -0.1829 -0.6471 -0.6674
  126CHL1   C2715581   4.490   6.427   5.002 -0.1454  0.6751 -1.0209
  126CHL1  H27A15582   4.435   6.417   5.099 -0.2482  0.0831 -1.1361
  126CHL1  H27B15583   4.488   6.328   4.952  0.6761 -1.2785  2.4938
  126CHL1  H27C15584   4.597   6.442   5.028 -0.3041  3.4672 -1.6855
  127CHL1    C315585   2.800   0.825   3.756  0.1975 -0.0039 -0.6420
  127CHL1    H315586   2.883   0.899   3.743 -0.1269  0.8236  1.5915
  127CHL1    O315587   2.714   0.822   3.641 -0.1590 -0.0085  0.3718
  127CHL1   H3'15588   2.684   0.913   3.634  1.7362  0.8279  2.0913
  127CHL1    C415589   2.853   0.685   3.790  0.6815  0.2180  1.4750
  127CHL1   H4A15590   2.767   0.616   3.800  1.6871 -1.0490  1.6011
  127CHL1   H4B15591   2.911   0.644   3.704  1.0863 -0.2748  1.9775
  127CHL1    C515592   2.930   0.679   3.914  0.1060 -0.3489 -0.8913
  127CHL1    C615593   3.060   0.649   3.934 -0.1952 -0.3395 -0.0570
  127CHL1    H615594   3.121   0.620   3.847 -0.8129 -0.0419 -0.6012
  127CHL1    C715595   3.123   0.632   4.063  1.0925  0.4540  0.3282
  127CHL1   H7A15596   3.181   0.537   4.061  1.8998  0.9313 -2.4318
  127CHL1   H7B15597   3.198   0.713   4.077  3.2993 -1.7368  2.0411
  127CHL1    C815598   3.032   0.626   4.187  0.0853  0.6399 -0.0006
  127CHL1    H815599   2.980   0.528   4.181 -3.0526  2.1988 -0.3446
  127CHL1   C1415600   3.116   0.638   4.311  0.4001 -0.3336  0.0647
  127CHL1   H1415601   3.157   0.741   4.320  0.8209 -0.6142  1.8628
  127CHL1   C1515602   3.235   0.547   4.326  0.2143  0.3506 -0.5020
  127CHL1  H15A15603   3.192   0.444   4.322  0.8029 -0.1759  3.2184
  127CHL1  H15B15604   3.316   0.568   4.253 -1.3986  0.5648 -2.2958
  127CHL1   C1615605   3.278   0.566   4.476  0.4066 -0.1037 -1.2297
  127CHL1  H16A15606   3.293   0.468   4.525  1.3521  0.3062 -0.6687
  127CHL1  H16B15607   3.374   0.622   4.486  2.3773 -2.9292 -2.6892
  127CHL1   C1715608   3.148   0.644   4.542  0.3300  0.0016 -0.0769
  127CHL1   H1715609   3.182   0.750   4.550 -1.0725  0.4166  0.8538
  127CHL1   C1315610   3.034   0.635   4.438 -0.2567  0.1194 -0.1767
  127CHL1   C1815611   2.961   0.501   4.462 -0.3064  0.3517 -0.0405
  127CHL1  H18A15612   2.892   0.515   4.548 -0.3885  1.3409 -0.2548
  127CHL1  H18B15613   2.891   0.476   4.379 -0.3950 -1.1943  0.4604
  127CHL1  H18C15614   3.024   0.412   4.484  0.3307  1.1949  1.7475
  127CHL1   C1215615   2.932   0.753   4.432  0.2958  0.0699 -0.4135
  127CHL1  H12A15616   2.865   0.743   4.520  1.8849 -1.6371  0.6826
  127CHL1  H12B15617   2.972   0.856   4.436 -0.8066  0.4857  3.9430
  127CHL1   C1115618   2.844   0.745   4.308 -0.3638 -0.2825 -0.0562
  127CHL1  H11A15619   2.771   0.662   4.318 -1.5107  0.7160  0.0597
  127CHL1  H11B15620   2.785   0.838   4.295  1.4309  0.6912 -1.7104
  127CHL1    C915621   2.922   0.726   4.174  0.5645  0.3108  0.0108
  127CHL1    H915622   2.971   0.825   4.162 -1.0849  1.0779 -0.6717
  127CHL1   C1015623   2.843   0.716   4.040 -0.7103 -1.0918  0.0715
  127CHL1   C1915624   2.729   0.606   4.066 -0.0602  0.3981  0.2248
  127CHL1  H19A15625   2.662   0.644   4.146  0.1735 -0.6113  0.9325
  127CHL1  H19B15626   2.672   0.587   3.973  1.7832 -0.7865 -0.7249
  127CHL1  H19C15627   2.770   0.508   4.099 -1.1404 -0.7355 -1.6159
  127CHL1    C115628   2.779   0.858   4.013  0.6193  0.0537 -0.1571
  127CHL1   H1A15629   2.715   0.882   4.101  1.2376 -1.0553  0.6272
  127CHL1   H1B15630   2.863   0.930   4.017 -1.1282  2.1373  2.9246
  127CHL1    C215631   2.711   0.865   3.875 -0.0700  0.4024 -0.1008
  127CHL1   H2A15632   2.662   0.963   3.862 -1.5460 -0.1359  1.0451
  127CHL1   H2B15633   2.629   0.790   3.880 -0.1253  0.4688 -0.0256
  127CHL1   C2015634   3.122   0.607   4.679  0.0605  0.8990  0.4778
  127CHL1   H2015635   3.103   0.498   4.687  2.2014  0.2948 -1.6964
  127CHL1   C2115636   2.995   0.673   4.743 -0.0601 -0.2661 -0.2503
  127CHL1  H21A15637   2.963   0.657   4.849 -0.7141  2.1615 -0.0011
  127CHL1  H21B15638   2.898   0.647   4.694  0.8809 -1.0504 -1.7565
  127CHL1  H21C15639   3.008   0.783   4.730  1.6868 -0.1921  1.5582
  127CHL1   C2215640   3.245   0.647   4.765 -0.6763  0.0404 -0.1463
  127CHL1  H22A15641   3.343   0.629   4.717 -0.5881  0.5951 -0.1802
  127CHL1  H22B15642   3.242   0.756   4.788 -0.2885  0.3513 -1.4976
  127CHL1   C2315643   3.252   0.574   4.898  0.5896  0.5137  0.3019
  127CHL1  H23A15644   3.189   0.630   4.970 -0.2683  0.9985 -0.7864
  127CHL1  H23B15645   3.196   0.478   4.893  2.4095 -0.5658 -0.4739
  127CHL1   C2415646   3.398   0.543   4.932  0.3137 -0.0167  0.1555
  127CHL1  H24A15647   3.437   0.462   4.867  0.3175  0.0538  0.0711
  127CHL1  H24B15648   3.452   0.638   4.914  1.0075 -0.4250  0.0650
  127CHL1   C2515649   3.417   0.494   5.076 -0.5876 -0.3522 -0.0742
  127CHL1   H2515650   3.344   0.413   5.093 -0.4423 -0.3824  0.4437
  127CHL1   C2615651   3.552   0.436   5.109 -0.1031 -0.0372  0.4562
  127CHL1  H26A15652   3.634   0.508   5.089  0.0340 -0.1573  0.5823
  127CHL1  H26B15653   3.567   0.407   5.215  0.5878 -2.0719 -0.1469
  127CHL1  H26C15654   3.582   0.355   5.039 -0.0258  1.4418 -1.2833
  127CHL1   C2715655   3.392   0.607   5.190  0.4984 -0.1244  0.3451
  127CHL1  H27A15656   3.290   0.649   5.176  0.8962  0.5901 -0.5383
  127CHL1  H27B15657   3.394   0.552   5.286  1.8928 -0.9850 -0.1354
  127CHL1  H27C15658   3.468   0.687   5.178  0.2634  0.1406  0.6243
  128CHL1    C315659   1.840   1.702   3.471 -0.7151  0.1215 -0.0496
  128CHL1    H315660   1.935   1.662   3.511  0.6543  0.0750 -3.0246
  128CHL1    O315661   1.836   1.644   3.342  0.2706  0.3689  0.0862
  128CHL1   H3'15662   1.742   1.631   3.326  0.1229 -0.0857  1.2172
  128CHL1    C415663   1.714   1.651   3.538 -0.1022  0.3616 -0.0191
  128CHL1   H4A15664   1.623   1.701   3.498 -0.7713 -1.4321 -0.8883
  128CHL1   H4B15665   1.703   1.541   3.523  2.2276  0.0360  0.3540
  128CHL1    C515666   1.718   1.676   3.691  0.5170 -0.0422  0.4143
  128CHL1    C615667   1.731   1.574   3.774 -0.3497 -0.0257 -0.3747
  128CHL1    H615668   1.714   1.474   3.732 -0.7734 -0.2541  0.3152
  128CHL1    C715669   1.746   1.602   3.919  0.5123  0.2669 -0.2283
  128CHL1   H7A15670   1.672   1.537   3.971  0.2424  0.7373 -0.0231
  128CHL1   H7B15671   1.847   1.567   3.950  0.7083  0.4663 -0.6346
  128CHL1    C815672   1.721   1.745   3.962  0.6228 -0.4506  0.0569
  128CHL1    H815673   1.613   1.763   3.950  0.4609 -1.0715  0.5202
  128CHL1   C1415674   1.740   1.768   4.107 -0.1994  0.0680 -0.0319
  128CHL1   H1415675   1.846   1.741   4.128 -0.0842  0.6506  0.1572
  128CHL1   C1515676   1.660   1.675   4.201  0.0877 -0.4019  0.0928
  128CHL1  H15A15677   1.555   1.680   4.168  0.4132  0.9069 -0.8144
  128CHL1  H15B15678   1.707   1.574   4.207 -0.7355 -0.8516 -0.8710
  128CHL1   C1615679   1.673   1.748   4.340 -0.1272 -0.1542 -0.3424
  128CHL1  H16A15680   1.571   1.776   4.375  0.5270  2.0516 -0.0445
  128CHL1  H16B15681   1.715   1.684   4.421  1.4132  0.3181 -0.7258
  128CHL1   C1715682   1.752   1.875   4.309 -0.2249  0.3318  0.1546
  128CHL1   H1715683   1.857   1.845   4.328 -0.6941  0.4210  3.5651
  128CHL1   C1315684   1.732   1.909   4.155  0.6425  0.0758  0.2322
  128CHL1   C1815685   1.596   1.959   4.128  0.4089 -0.2755  0.1507
  128CHL1  H18A15686   1.606   2.068   4.110  0.3984 -0.5770 -1.8140
  128CHL1  H18B15687   1.534   1.913   4.047 -0.6804 -0.1663  0.8930
  128CHL1  H18C15688   1.533   1.955   4.220  1.2409 -1.4409  0.7072
  128CHL1   C1215689   1.837   1.981   4.075 -0.3054  1.0536 -0.3489
  128CHL1  H12A15690   1.851   2.083   4.117  2.0966  0.9665 -0.7875
  128CHL1  H12B15691   1.935   1.936   4.102 -0.1801  0.3651 -1.8462
  128CHL1   C1115692   1.810   1.985   3.927 -0.3904  0.6942 -0.5574
  128CHL1  H11A15693   1.712   2.032   3.907 -1.2003 -1.1501 -1.1851
  128CHL1  H11B15694   1.895   2.038   3.878 -1.0193  2.1792 -0.0837
  128CHL1    C915695   1.801   1.836   3.865 -0.5770 -0.1116 -0.3393
  128CHL1    H915696   1.904   1.795   3.875 -0.5933  0.0616  0.6054
  128CHL1   C1015697   1.745   1.826   3.717 -0.2271 -0.4485  0.1215
  128CHL1   C1915698   1.617   1.903   3.698  0.4276  0.2618 -0.3518
  128CHL1  H19A15699   1.536   1.878   3.770  1.4241  1.6453  1.3494
  128CHL1  H19B15700   1.640   2.011   3.702  0.8885  0.2537 -2.0490
  128CHL1  H19C15701   1.585   1.888   3.593  0.1242 -1.6369 -0.0333
  128CHL1    C115702   1.858   1.884   3.622  0.1977  0.2945 -0.3647
  128CHL1   H1A15703   1.873   1.994   3.633  0.6026  0.7487 -4.1263
  128CHL1   H1B15704   1.946   1.825   3.656  2.0304  1.3194 -2.9455
  128CHL1    C215705   1.849   1.850   3.471 -0.6042 -0.4051 -0.1717
  128CHL1   H2A15706   1.936   1.894   3.418 -2.8499  1.9609 -2.2117
  128CHL1   H2B15707   1.767   1.905   3.419  1.3720  1.8155 -1.1005
  128CHL1   C2015708   1.726   1.993   4.408  0.4671  0.0891  0.2971
  128CHL1   H2015709   1.623   2.030   4.389  0.1198 -1.2473 -0.5793
  128CHL1   C2115710   1.827   2.108   4.379 -0.3816  0.0158 -0.4293
  128CHL1  H21A15711   1.847   2.163   4.473  0.1091 -0.8538 -0.0111
  128CHL1  H21B15712   1.770   2.168   4.305 -2.3495  0.3835  1.2912
  128CHL1  H21C15713   1.920   2.064   4.336  0.7952  0.3856  1.6252
  128CHL1   C2215714   1.723   1.967   4.554 -0.2493  0.9392 -0.3884
  128CHL1  H22A15715   1.719   2.059   4.615  1.5156  0.6883  0.1818
  128CHL1  H22B15716   1.639   1.899   4.577  1.2496 -0.6189  0.7076
  128CHL1   C2315717   1.843   1.885   4.609 -0.4718 -0.5951  0.2011
  128CHL1  H23A15718   1.857   1.797   4.541  1.5401  0.9798 -1.5796
  128CHL1  H23B15719   1.934   1.947   4.595 -0.9344  0.0784  0.1628
  128CHL1   C2415720   1.842   1.839   4.759  0.1899  0.2153 -0.1462
  128CHL1  H24A15721   1.888   1.918   4.823  0.8856 -0.7165  0.5448
  128CHL1  H24B15722   1.736   1.813   4.780  0.0465  0.3487 -0.6995
  128CHL1   C2515723   1.923   1.715   4.787  0.2170  0.0683 -0.3465
  128CHL1   H2515724   2.027   1.740   4.756 -0.3454  1.0302 -1.5033
  128CHL1   C2615725   1.935   1.683   4.938  0.5476 -0.3039 -0.0392
  128CHL1  H26A15726   1.837   1.685   4.991  2.7457 -1.8403  4.5057
  128CHL1  H26B15727   1.993   1.593   4.966 -0.1984 -0.4648  1.0424
  128CHL1  H26C15728   1.987   1.768   4.988 -1.5374 -0.4729  2.6411
  128CHL1   C2715729   1.879   1.592   4.717 -0.4740 -1.0135  0.9563
  128CHL1  H27A15730   1.883   1.598   4.606  0.3542 -1.5325  0.9542
  128CHL1  H27B15731   1.946   1.511   4.751 -1.1140 -0.6695  3.1512
  128CHL1  H27C15732   1.773   1.574   4.747 -0.3167 -1.1276  1.4395
  129CHL1    C315733   5.639   7.620   4.045 -0.9672  0.4971  0.6736
  129CHL1    H315734   5.552   7.552   4.029  0.7124 -1.2208 -1.9314
  129CHL1    O315735   5.731   7.586   3.939  0.4919  0.2530  0.4405
  129CHL1   H3'15736   5.719   7.644   3.864  1.0823  0.5676  0.5818
  129CHL1    C415737   5.605   7.768   4.016  0.0326  0.5225 -0.2588
  129CHL1   H4A15738   5.696   7.832   4.010 -0.7282  2.0940  2.7220
  129CHL1   H4B15739   5.544   7.768   3.923 -2.5600  1.4326  1.3343
  129CHL1    C515740   5.533   7.825   4.133  0.1355  0.1122 -0.3068
  129CHL1    C615741   5.414   7.877   4.115  0.3922 -0.4689 -0.0504
  129CHL1    H615742   5.365   7.880   4.016 -0.4410 -4.1830  0.1111
  129CHL1    C715743   5.345   7.961   4.219 -0.0995  0.1094 -0.6631
  129CHL1   H7A15744   5.325   8.062   4.176 -0.5350  1.0875  1.6902
  129CHL1   H7B15745   5.245   7.914   4.233 -0.1928 -0.3970 -2.7245
  129CHL1    C815746   5.416   7.983   4.353 -0.0458 -0.0291 -0.0256
  129CHL1    H815747   5.492   8.064   4.338 -0.1276 -0.0724 -0.6976
  129CHL1   C1415748   5.325   8.023   4.469 -0.1377 -0.2283  0.9382
  129CHL1   H1415749   5.267   7.929   4.481  2.0440 -2.2369 -2.5347
  129CHL1   C1515750   5.232   8.141   4.446 -1.2183 -0.5252 -0.1742
  129CHL1  H15A15751   5.293   8.229   4.415 -0.4901 -1.0681 -0.3304
  129CHL1  H15B15752   5.152   8.127   4.370 -0.2685 -1.1253 -1.1105
  129CHL1   C1615753   5.171   8.168   4.583 -0.0903 -0.3858 -0.1811
  129CHL1  H16A15754   5.177   8.276   4.609  0.9566 -0.8785  1.8088
  129CHL1  H16B15755   5.063   8.144   4.580  0.0697 -1.5776  1.9024
  129CHL1   C1715756   5.262   8.088   4.685 -0.1025 -0.3122  0.3489
  129CHL1   H1715757   5.207   7.993   4.702 -0.8866  0.4574  2.4420
  129CHL1   C1315758   5.389   8.046   4.605 -0.3017 -0.3762 -0.4989
  129CHL1   C1815759   5.480   8.166   4.603 -0.4826  0.1705  0.0678
  129CHL1  H18A15760   5.558   8.151   4.525 -1.2141  0.4143 -0.7234
  129CHL1  H18B15761   5.418   8.254   4.576 -2.7219 -1.3817 -0.0938
  129CHL1  H18C15762   5.537   8.181   4.697  0.9764 -2.7067 -0.2562
  129CHL1   C1215763   5.472   7.919   4.643  0.3468  0.2327 -0.0141
  129CHL1  H12A15764   5.516   7.927   4.744  0.5346 -0.2410 -0.0522
  129CHL1  H12B15765   5.400   7.840   4.672  0.5391  0.8329  2.2513
  129CHL1   C1115766   5.574   7.871   4.527  0.7474  0.2678 -0.5011
  129CHL1  H11A15767   5.647   7.955   4.525 -1.1399  1.9741 -1.0140
  129CHL1  H11B15768   5.613   7.771   4.556 -0.6687 -0.5567 -1.3346
  129CHL1    C915769   5.502   7.860   4.391 -0.4513  0.5538 -0.4573
  129CHL1    H915770   5.431   7.775   4.396  2.0631 -1.6272  1.4691
  129CHL1   C1015771   5.601   7.811   4.270  0.2446 -0.2890  0.5666
  129CHL1   C1915772   5.726   7.896   4.278  0.1187  0.1235 -0.5561
  129CHL1  H19A15773   5.779   7.871   4.373 -0.0172 -1.4091 -0.8574
  129CHL1  H19B15774   5.785   7.885   4.185  0.4419  0.1259 -0.3517
  129CHL1  H19C15775   5.711   8.005   4.293  0.0287 -0.1877  2.0998
  129CHL1    C115776   5.621   7.662   4.284 -0.1450 -0.1294 -0.0567
  129CHL1   H1A15777   5.666   7.630   4.381  1.0237 -0.2400 -0.6191
  129CHL1   H1B15778   5.523   7.609   4.278 -1.0677  1.5229  0.0558
  129CHL1    C215779   5.706   7.601   4.177 -0.6240  0.2660  0.4018
  129CHL1   H2A15780   5.713   7.493   4.205 -1.2028  0.5682  1.8490
  129CHL1   H2B15781   5.805   7.647   4.198 -0.3596 -0.1051 -0.0101
  129CHL1   C2015782   5.274   8.149   4.823  0.0277  0.1193  0.2249
  129CHL1   H2015783   5.317   8.251   4.812 -1.7256  0.9742  0.9013
  129CHL1   C2115784   5.374   8.080   4.915 -0.4164  0.0217  0.4982
  129CHL1  H21A15785   5.338   7.979   4.947  0.2851 -0.5041 -0.3224
  129CHL1  H21B15786   5.379   8.130   5.014  0.1165 -1.1231  1.0763
  129CHL1  H21C15787   5.475   8.074   4.869 -0.4135  0.0565  0.4996
  129CHL1   C2215788   5.129   8.169   4.895 -0.0828  0.1205  0.3837
  129CHL1  H22A15789   5.061   8.195   4.811  1.0033 -0.9156 -0.8550
  129CHL1  H22B15790   5.103   8.068   4.934 -1.4398  0.4147  0.2826
  129CHL1   C2315791   5.129   8.272   5.007  0.3298 -0.2992 -0.4545
  129CHL1  H23A15792   5.188   8.237   5.095 -0.4371  0.2450  0.2976
  129CHL1  H23B15793   5.170   8.368   4.969 -1.6578  1.3443  1.3160
  129CHL1   C2415794   4.994   8.288   5.071 -0.6474  0.7577  0.0438
  129CHL1  H24A15795   4.976   8.189   5.117 -0.7982  0.4095 -0.7551
  129CHL1  H24B15796   4.996   8.371   5.146 -1.3525 -1.4330  2.6250
  129CHL1   C2515797   4.878   8.311   4.975  0.1947 -0.2113  1.0939
  129CHL1   H2515798   4.852   8.221   4.914  3.1454 -0.6041  0.2611
  129CHL1   C2615799   4.745   8.339   5.047 -0.0827  0.5151  0.0652
  129CHL1  H26A15800   4.729   8.267   5.131 -1.5730  0.6534 -0.0745
  129CHL1  H26B15801   4.744   8.442   5.087 -1.9392 -0.0215  1.6045
  129CHL1  H26C15802   4.663   8.329   4.973 -1.8027  0.0334  1.9275
  129CHL1   C2715803   4.909   8.427   4.869  0.1344  0.4532 -0.5326
  129CHL1  H27A15804   4.997   8.399   4.807  0.3817 -0.9983  0.4345
  129CHL1  H27B15805   4.820   8.435   4.802 -0.5286 -0.0822  0.2610
  129CHL1  H27C15806   4.924   8.524   4.922 -3.9995  1.3044 -0.5429
  130CHL1    C315807   3.761   6.794   3.227 -0.0732 -0.5300  0.3111
  130CHL1    H315808   3.658   6.822   3.259 -0.1059 -0.5975  0.2643
  130CHL1    O315809   3.770   6.756   3.094 -0.0353  0.1507  0.0850
  130CHL1   H3'15810   3.864   6.741   3.080  0.1084 -1.2474  2.1937
  130CHL1    C415811   3.845   6.921   3.250 -0.4746 -0.3887  0.1719
  130CHL1   H4A15812   3.948   6.888   3.225  0.5257  0.5356  2.6922
  130CHL1   H4B15813   3.810   6.996   3.177 -0.5132 -0.5462  0.0284
  130CHL1    C515814   3.852   6.973   3.392 -0.0149 -0.1735  0.2490
  130CHL1    C615815   3.813   7.096   3.428  0.5242 -0.0815  0.5588
  130CHL1    H615816   3.786   7.173   3.354 -0.7222  0.7184  1.7990
  130CHL1    C715817   3.805   7.147   3.566  0.3741  0.3256  0.2218
  130CHL1   H7A15818   3.848   7.248   3.577 -1.7994  1.1767  1.7210
  130CHL1   H7B15819   3.701   7.158   3.605  0.7891  0.0328  1.4453
  130CHL1    C815820   3.869   7.049   3.669 -0.5128  0.2113 -0.0894
  130CHL1    H815821   3.979   7.053   3.658 -0.5123  0.5852  0.0536
  130CHL1   C1415822   3.836   7.074   3.817  0.2756  0.1097 -0.1450
  130CHL1   H1415823   3.726   7.060   3.829  0.1075  1.7032  0.4532
  130CHL1   C1515824   3.877   7.218   3.860 -0.1182 -0.3196  0.7128
  130CHL1  H15A15825   3.977   7.228   3.812 -0.7475 -2.6529 -1.3008
  130CHL1  H15B15826   3.817   7.299   3.813  0.2214 -0.7124 -0.4333
  130CHL1   C1615827   3.876   7.211   4.010 -0.2887 -0.1798 -0.2254
  130CHL1  H16A15828   3.975   7.238   4.051  0.3331 -2.7458  0.1014
  130CHL1  H16B15829   3.799   7.274   4.060 -2.5393 -4.2259  1.9400
  130CHL1   C1715830   3.852   7.058   4.045 -0.0563 -0.4083  0.9845
  130CHL1   H1715831   3.743   7.039   4.048  0.1029 -1.2501  1.8991
  130CHL1   C1315832   3.904   6.983   3.920  0.5070  0.5737  0.1174
  130CHL1   C1815833   4.061   6.988   3.920 -0.0669  1.3208  0.3976
  130CHL1  H18A15834   4.089   6.914   3.999  0.6814  0.6053 -0.5121
  130CHL1  H18B15835   4.095   6.967   3.817 -0.2745 -1.7066  0.8279
  130CHL1  H18C15836   4.097   7.089   3.948 -0.6915  1.4974  0.5751
  130CHL1   C1215837   3.858   6.839   3.890 -0.3854 -0.1748  0.5186
  130CHL1  H12A15838   3.909   6.769   3.960  0.3846 -0.7728 -0.6087
  130CHL1  H12B15839   3.748   6.825   3.905 -1.0307  0.2429 -3.1031
  130CHL1   C1115840   3.881   6.802   3.745 -0.0613 -0.0370  0.2008
  130CHL1  H11A15841   3.991   6.790   3.742  0.3943  3.2303  0.9617
  130CHL1  H11B15842   3.845   6.701   3.716 -0.2607  0.2254 -0.4849
  130CHL1    C915843   3.834   6.905   3.637  0.0159 -0.5380  0.3670
  130CHL1    H915844   3.724   6.897   3.647  0.0239  1.1946  2.7036
  130CHL1   C1015845   3.878   6.857   3.496 -0.4368 -0.3235  0.0541
  130CHL1   C1915846   4.029   6.821   3.487 -0.3947  0.2771 -0.4628
  130CHL1  H19A15847   4.098   6.899   3.527 -0.2589 -0.6015  1.1222
  130CHL1  H19B15848   4.050   6.724   3.537 -0.4153 -0.2193 -1.4083
  130CHL1  H19C15849   4.071   6.815   3.384 -0.3352 -0.0803 -0.4174
  130CHL1    C115850   3.806   6.725   3.463 -0.0921  0.1376 -0.2909
  130CHL1   H1A15851   3.837   6.636   3.521  1.9545  0.3585 -0.9844
  130CHL1   H1B15852   3.697   6.742   3.480  0.1488  1.0770  0.4111
  130CHL1    C215853   3.819   6.686   3.317 -0.2358  0.4829  0.7920
  130CHL1   H2A15854   3.766   6.589   3.300  0.5048  0.1652  0.2443
  130CHL1   H2B15855   3.924   6.675   3.281  0.2749 -0.0854  2.3381
  130CHL1   C2015856   3.900   7.027   4.186 -0.0741  0.1085  0.3965
  130CHL1   H2015857   4.010   7.033   4.199  0.2628 -0.5219 -1.7671
  130CHL1   C2115858   3.885   6.880   4.223  0.1101  0.1966 -0.4117
  130CHL1  H21A15859   3.900   6.846   4.327 -2.6076  1.0449  0.3375
  130CHL1  H21B15860   3.956   6.825   4.158 -1.4084 -1.9974 -0.3013
  130CHL1  H21C15861   3.781   6.846   4.203  0.0945  0.6717 -1.2315
  130CHL1   C2215862   3.834   7.111   4.299  0.3951  0.0282 -0.3951
  130CHL1  H22A15863   3.847   7.221   4.295 -0.1968  0.1495  0.6967
  130CHL1  H22B15864   3.726   7.084   4.297  0.7660 -1.5929 -0.6846
  130CHL1   C2315865   3.878   7.071   4.447 -0.5151  0.0248  0.1778
  130CHL1  H23A15866   3.822   6.981   4.478 -1.0315 -0.0422 -0.9109
  130CHL1  H23B15867   3.988   7.058   4.450 -0.4970  0.2378  0.6593
  130CHL1   C2415868   3.833   7.188   4.539 -0.7785  0.0952 -0.6305
  130CHL1  H24A15869   3.853   7.290   4.501 -3.4871  1.3356  0.9415
  130CHL1  H24B15870   3.722   7.181   4.540 -1.0567  1.3358  4.5197
  130CHL1   C2515871   3.876   7.181   4.684 -0.0384 -0.5432 -0.1646
  130CHL1   H2515872   3.987   7.184   4.688 -0.0840  1.6045  0.5030
  130CHL1   C2615873   3.824   7.300   4.770  0.4282  0.1847 -0.1019
  130CHL1  H26A15874   3.867   7.393   4.728 -0.8002 -0.3107 -2.6275
  130CHL1  H26B15875   3.714   7.304   4.761  0.3667  1.4014  0.9172
  130CHL1  H26C15876   3.837   7.280   4.879  0.1901 -0.6377 -0.2172
  130CHL1   C2715877   3.828   7.055   4.751 -0.2956 -0.5729 -0.0472
  130CHL1  H27A15878   3.839   7.062   4.862 -1.9555  0.7547  0.0731
  130CHL1  H27B15879   3.719   7.033   4.754 -0.3799 -0.0921  1.1472
  130CHL1  H27C15880   3.890   6.977   4.702 -0.2471 -0.7819  0.3392
  131CHL1    C315881   2.012   4.502   3.638 -0.7430 -0.4292  0.1624
  131CHL1    H315882   1.945   4.415   3.628  1.3681 -2.6481  3.3300
  131CHL1    O315883   2.108   4.498   3.529  0.0666  0.0665  0.4036
  131CHL1   H3'15884   2.164   4.574   3.546 -1.2044  1.0645  0.2515
  131CHL1    C415885   1.932   4.636   3.637 -0.0551 -0.5962 -0.4206
  131CHL1   H4A15886   2.006   4.719   3.647  1.0768 -1.4436 -1.3860
  131CHL1   H4B15887   1.876   4.621   3.542  0.3764  1.1508 -1.0037
  131CHL1    C515888   1.845   4.653   3.760 -0.2479  0.0896  0.1554
  131CHL1    C615889   1.714   4.662   3.747  0.0360 -0.5600  0.0965
  131CHL1    H615890   1.668   4.671   3.648 -1.0305  1.7884  0.7260
  131CHL1    C715891   1.623   4.688   3.873  0.5497  0.4252  0.5416
  131CHL1   H7A15892   1.562   4.781   3.862  2.5892  1.6671 -1.1976
  131CHL1   H7B15893   1.551   4.605   3.889 -1.4519  2.1341  0.8839
  131CHL1    C815894   1.706   4.719   4.003  0.0125 -0.3542 -0.6421
  131CHL1    H815895   1.740   4.825   3.993  0.5339  0.0140  3.2586
  131CHL1   C1415896   1.611   4.704   4.120  0.0580 -0.2826 -0.2900
  131CHL1   H1415897   1.581   4.598   4.134  2.1777 -0.9270 -0.2239
  131CHL1   C1515898   1.483   4.793   4.105 -0.1430 -0.4126 -0.8498
  131CHL1  H15A15899   1.508   4.897   4.076 -0.6792 -0.2640 -0.7778
  131CHL1  H15B15900   1.417   4.738   4.035  0.3727 -1.2504 -0.7055
  131CHL1   C1615901   1.433   4.805   4.250 -0.1921 -0.2547 -0.5072
  131CHL1  H16A15902   1.411   4.911   4.275  0.1103 -0.0722 -1.0143
  131CHL1  H16B15903   1.334   4.762   4.277 -0.3411  0.9551  1.0994
  131CHL1   C1715904   1.555   4.761   4.349 -0.1965  0.2223 -0.0217
  131CHL1   H1715905   1.530   4.655   4.372  0.1834  0.4805  1.7488
  131CHL1   C1315906   1.678   4.750   4.254  0.1403  0.0382  0.3300
  131CHL1   C1815907   1.742   4.890   4.251  0.0303  0.2739 -0.6169
  131CHL1  H18A15908   1.666   4.972   4.248  0.8349  1.0204 -1.1277
  131CHL1  H18B15909   1.814   4.906   4.334  1.6650 -0.6189 -1.8173
  131CHL1  H18C15910   1.800   4.890   4.156 -1.2239 -1.1724 -1.4291
  131CHL1   C1215911   1.791   4.658   4.277 -0.7554  0.3653 -0.1936
  131CHL1  H12A15912   1.842   4.682   4.372  1.3818 -0.0188 -1.1623
  131CHL1  H12B15913   1.742   4.558   4.279  0.6455 -0.6321 -4.1039
  131CHL1   C1115914   1.891   4.649   4.160  0.0939  0.0956 -0.6828
  131CHL1  H11A15915   1.934   4.752   4.158 -2.0815  1.2011  2.1052
  131CHL1  H11B15916   1.965   4.572   4.189  0.3631  1.1009  1.5021
  131CHL1    C915917   1.826   4.629   4.014  0.8109  0.0876 -0.6905
  131CHL1    H915918   1.784   4.526   4.005  0.5687  0.1144  0.0427
  131CHL1   C1015919   1.921   4.643   3.899 -0.2973 -0.0872  1.6116
  131CHL1   C1915920   2.005   4.768   3.917 -0.5257 -0.3615  0.2633
  131CHL1  H19A15921   2.092   4.763   3.848 -0.0334  0.2187  0.8216
  131CHL1  H19B15922   1.958   4.865   3.892 -1.0582 -0.7428 -0.2437
  131CHL1  H19C15923   2.057   4.768   4.016  2.1264 -2.3353 -0.9789
  131CHL1    C115924   2.012   4.516   3.895  0.3495  0.4722 -0.2158
  131CHL1   H1A15925   2.071   4.517   3.990  0.2086  3.5740 -0.0732
  131CHL1   H1B15926   1.955   4.421   3.898  2.4748 -0.9484 -1.6372
  131CHL1    C215927   2.093   4.497   3.764 -0.1796 -0.2112 -0.5269
  131CHL1   H2A15928   2.164   4.412   3.777 -1.8895 -1.5566  0.4217
  131CHL1   H2B15929   2.159   4.586   3.754  2.4509 -1.7086  1.9362
  131CHL1   C2015930   1.549   4.832   4.489  0.0789  0.0377  0.2913
  131CHL1   H2015931   1.588   4.935   4.478  0.7326 -0.1470  0.8078
  131CHL1   C2115932   1.649   4.764   4.585 -0.1364  0.5829  0.1727
  131CHL1  H21A15933   1.752   4.743   4.549 -0.4095 -2.2033  0.8518
  131CHL1  H21B15934   1.597   4.671   4.613  0.0743  0.7413  1.1183
  131CHL1  H21C15935   1.657   4.814   4.684  1.2862 -1.6655  1.2766
  131CHL1   C2215936   1.408   4.847   4.548  0.4160  0.3076  0.7190
  131CHL1  H22A15937   1.415   4.888   4.651 -2.0557 -0.7089  1.3685
  131CHL1  H22B15938   1.345   4.909   4.481  0.6939 -3.2916 -3.3050
  131CHL1   C2315939   1.323   4.716   4.571  0.7378  0.6294 -0.0916
  131CHL1  H23A15940   1.329   4.647   4.485  0.3963 -0.9391  1.0960
  131CHL1  H23B15941   1.382   4.665   4.651  3.5588 -0.4757 -2.6950
  131CHL1   C2415942   1.176   4.736   4.606 -0.1124 -0.7319 -0.0443
  131CHL1  H24A15943   1.170   4.824   4.673  1.0685 -0.1417 -0.6793
  131CHL1  H24B15944   1.114   4.774   4.523  0.4563  1.6658  0.5649
  131CHL1   C2515945   1.111   4.612   4.668  0.5275  0.0489 -0.3444
  131CHL1   H2515946   1.151   4.523   4.615  0.5578 -0.3432  0.3174
  131CHL1   C2615947   1.157   4.593   4.815  0.6333  0.0822 -0.1350
  131CHL1  H26A15948   1.114   4.501   4.862  0.4227 -0.8991 -2.1597
  131CHL1  H26B15949   1.267   4.584   4.813  0.8584  2.3211  0.0702
  131CHL1  H26C15950   1.131   4.677   4.883  0.6192 -0.5841  0.7169
  131CHL1   C2715951   0.957   4.614   4.662 -0.3821 -0.4319 -0.3034
  131CHL1  H27A15952   0.913   4.696   4.721 -1.5824 -1.9929  1.0669
  131CHL1  H27B15953   0.931   4.632   4.555 -0.1955 -0.1758 -0.3066
  131CHL1  H27C15954   0.910   4.525   4.708 -0.8556 -0.3377 -0.5982
  132CHL1    C315955   3.185   1.240   3.928 -0.0781  0.6640  0.0711
  132CHL1    H315956   3.273   1.173   3.939  0.8826  1.5617 -1.6305
  132CHL1    O315957   3.145   1.259   3.795 -0.1141  0.4024  0.4516
  132CHL1   H3'15958   3.051   1.276   3.795 -0.0947  0.5646  1.4422
  132CHL1    C415959   3.071   1.175   4.014 -0.6728 -0.3988  0.4621
  132CHL1   H4A15960   2.980   1.233   3.988 -0.6125 -0.6715 -0.3989
  132CHL1   H4B15961   3.039   1.075   3.977  0.8305 -0.6559 -0.2022
  132CHL1    C515962   3.114   1.177   4.158 -0.0630 -0.1748  0.1315
  132CHL1    C615963   3.136   1.065   4.217  0.7073 -0.4309  0.1503
  132CHL1    H615964   3.103   0.982   4.152 -0.6986  0.5657 -0.4712
  132CHL1    C715965   3.185   1.047   4.360 -0.0860 -0.1029 -0.2180
  132CHL1   H7A15966   3.132   0.963   4.410 -1.0251 -0.7329 -2.1878
  132CHL1   H7B15967   3.295   1.030   4.369 -0.3985 -1.4618  1.7178
  132CHL1    C815968   3.151   1.173   4.443 -0.4155 -0.2242 -0.5150
  132CHL1    H815969   3.041   1.164   4.454 -0.4173  0.3546 -0.0097
  132CHL1   C1415970   3.222   1.172   4.584  0.2745  0.5085 -0.2671
  132CHL1   H1415971   3.329   1.194   4.566 -0.7917  3.2380 -4.9137
  132CHL1   C1515972   3.227   1.049   4.674  1.0056  0.6183  0.2013
  132CHL1  H15A15973   3.130   0.994   4.673  1.0315  0.4826 -2.3318
  132CHL1  H15B15974   3.304   0.977   4.639 -0.8466 -1.3644 -0.0397
  132CHL1   C1615975   3.272   1.102   4.810  0.2111  0.6508  0.1089
  132CHL1  H16A15976   3.188   1.087   4.881 -0.3018  0.1401 -0.5954
  132CHL1  H16B15977   3.364   1.060   4.857 -0.2645  1.2833  1.6872
  132CHL1   C1715978   3.287   1.253   4.794  0.0563 -0.1078  0.0710
  132CHL1   H1715979   3.389   1.277   4.759 -0.0615 -0.0231 -0.2193
  132CHL1   C1315980   3.196   1.292   4.671  0.3886 -0.1090 -0.1110
  132CHL1   C1815981   3.045   1.295   4.708  0.3913  0.6763 -0.3023
  132CHL1  H18A15982   3.028   1.195   4.754  1.4191  0.2183 -0.8663
  132CHL1  H18B15983   3.029   1.372   4.786 -0.4235  0.3574 -0.1475
  132CHL1  H18C15984   2.980   1.303   4.618 -1.6373 -0.4731  0.9801
  132CHL1   C1215985   3.237   1.421   4.594 -0.5316  0.8845 -0.3102
  132CHL1  H12A15986   3.192   1.509   4.645  0.1205  1.3545 -0.5147
  132CHL1  H12B15987   3.347   1.441   4.588 -0.1449 -1.3579 -2.4143
  132CHL1   C1115988   3.179   1.422   4.458  0.5575 -0.7131 -0.3888
  132CHL1  H11A15989   3.072   1.445   4.473  1.0513  0.3333  2.0925
  132CHL1  H11B15990   3.215   1.509   4.399 -1.0587  0.0064 -0.3635
  132CHL1    C915991   3.198   1.297   4.374 -0.2335 -0.2732 -0.0400
  132CHL1    H915992   3.308   1.303   4.363 -0.1098 -0.2763  1.1578
  132CHL1   C1015993   3.139   1.314   4.225 -0.1274 -0.6706  0.4275
  132CHL1   C1915994   2.998   1.382   4.237 -0.3519  0.0464  0.1571
  132CHL1  H19A15995   2.940   1.329   4.315  0.4884 -1.0126  0.0711
  132CHL1  H19B15996   3.014   1.490   4.260 -2.0882  0.3891 -0.1024
  132CHL1  H19C15997   2.931   1.387   4.148 -2.7844  3.0318  1.9332
  132CHL1    C115998   3.240   1.390   4.135 -0.6269  0.3584 -0.1463
  132CHL1   H1A15999   3.248   1.494   4.171 -3.1007  0.9513 -1.0655
  132CHL1   H1B16000   3.338   1.340   4.150 -1.0780 -0.5756 -0.1925
  132CHL1    C216001   3.205   1.384   3.982 -0.1477  0.5097  0.1126
  132CHL1   H2A16002   3.288   1.422   3.919  0.2753  0.5368  0.6751
  132CHL1   H2B16003   3.112   1.442   3.963 -1.3383 -1.0167  1.0135
  132CHL1   C2016004   3.267   1.351   4.915 -0.5134  0.4594  0.1632
  132CHL1   H2016005   3.256   1.451   4.868  1.0273  0.4877 -0.1879
  132CHL1   C2116006   3.400   1.381   4.989  0.9747  0.2984 -0.0259
  132CHL1  H21A16007   3.470   1.418   4.911  1.2020  1.7141  0.8187
  132CHL1  H21B16008   3.434   1.282   5.026 -0.8119 -0.1235  0.5837
  132CHL1  H21C16009   3.388   1.459   5.066 -1.7631 -0.9547  0.9752
  132CHL1   C2216010   3.153   1.328   5.015 -0.1478  0.1477 -0.2533
  132CHL1  H22A16011   3.079   1.258   4.971  2.0792 -1.5931 -1.4028
  132CHL1  H22B16012   3.193   1.273   5.103  1.4882  0.6332 -0.6578
  132CHL1   C2316013   3.089   1.455   5.081  0.2218 -0.6950 -0.1875
  132CHL1  H23A16014   3.164   1.511   5.141 -0.8417 -1.7309  2.2835
  132CHL1  H23B16015   3.053   1.523   5.002 -3.3308  0.5116  2.2080
  132CHL1   C2416016   2.976   1.423   5.178 -0.1406  0.1831 -0.0747
  132CHL1  H24A16017   2.895   1.365   5.129 -0.6269  0.1236  0.7732
  132CHL1  H24B16018   3.022   1.364   5.260 -0.8354  0.3596  0.4506
  132CHL1   C2516019   2.904   1.540   5.253 -0.2055 -0.3462 -0.0318
  132CHL1   H2516020   2.843   1.497   5.335 -0.6162  1.0054  0.3976
  132CHL1   C2616021   3.005   1.634   5.316 -0.0122  0.1048  0.4987
  132CHL1  H26A16022   3.054   1.683   5.229  1.3597 -1.4433  0.3485
  132CHL1  H26B16023   2.954   1.711   5.378  0.7452  0.6529  0.4610
  132CHL1  H26C16024   3.084   1.587   5.378  0.2923  1.7391  1.4082
  132CHL1   C2716025   2.803   1.606   5.167 -0.6288 -0.8404  0.2475
  132CHL1  H27A16026   2.843   1.651   5.074 -1.8139  1.0512  0.6008
  132CHL1  H27B16027   2.723   1.531   5.146 -1.9228 -0.3533  2.9576
  132CHL1  H27C16028   2.755   1.691   5.220  0.0822 -2.3124  3.5058
  133CHL1    C316029   1.423   2.267   3.643 -0.0918  0.3822  0.2001
  133CHL1    H316030   1.448   2.159   3.638 -4.3079 -0.7706 -4.5330
  133CHL1    O316031   1.412   2.308   3.508  0.4873 -0.5658  0.0058
  133CHL1   H3'16032   1.400   2.403   3.511  1.7058 -0.4227  0.9834
  133CHL1    C416033   1.285   2.274   3.716  0.8260 -0.9232  0.2417
  133CHL1   H4A16034   1.231   2.370   3.697  0.9205 -0.9366 -0.0939
  133CHL1   H4B16035   1.227   2.195   3.664 -2.2529  0.7404  0.9135
  133CHL1    C516036   1.285   2.267   3.867 -0.7722 -0.4423 -0.2586
  133CHL1    C616037   1.192   2.198   3.937  0.1575 -0.7383  0.5144
  133CHL1    H616038   1.112   2.150   3.878 -0.1757  0.8580 -0.3900
  133CHL1    C716039   1.181   2.192   4.083  0.1585 -0.6910 -0.6326
  133CHL1   H7A16040   1.086   2.220   4.133  2.2315  2.5124  1.9196
  133CHL1   H7B16041   1.217   2.092   4.113 -1.5164 -1.3802 -0.8016
  133CHL1    C816042   1.274   2.300   4.157 -0.6149 -0.3444  0.9440
  133CHL1    H816043   1.229   2.401   4.156 -0.0103 -0.0305  2.4162
  133CHL1   C1416044   1.294   2.263   4.303 -0.8369  0.4627  0.1892
  133CHL1   H1416045   1.354   2.171   4.294 -0.4518  0.8338 -1.1550
  133CHL1   C1516046   1.175   2.235   4.391  0.3451  0.4774 -0.9260
  133CHL1  H15A16047   1.105   2.318   4.365  1.7307  1.4189 -1.8327
  133CHL1  H15B16048   1.130   2.139   4.358  0.4445 -0.5975  1.7838
  133CHL1   C1616049   1.227   2.243   4.534  0.0003  0.0883  0.4389
  133CHL1  H16A16050   1.152   2.303   4.589 -0.5754 -0.6091  0.4382
  133CHL1  H16B16051   1.240   2.145   4.586 -1.6717  0.6538  2.0296
  133CHL1   C1716052   1.376   2.301   4.528 -0.4086 -0.5784  0.4396
  133CHL1   H1716053   1.440   2.210   4.516 -0.3683 -0.2793 -2.5129
  133CHL1   C1316054   1.382   2.362   4.386 -0.3411  0.3809  0.1057
  133CHL1   C1816055   1.317   2.503   4.395  0.3747  0.2857  0.4312
  133CHL1  H18A16056   1.375   2.576   4.454  1.8805 -0.5064 -0.0178
  133CHL1  H18B16057   1.291   2.538   4.293 -1.3766 -2.0594 -0.0143
  133CHL1  H18C16058   1.214   2.507   4.437 -0.5563  0.9950 -1.7761
  133CHL1   C1216059   1.522   2.381   4.313 -0.0275 -0.0652  0.2600
  133CHL1  H12A16060   1.561   2.465   4.375  2.3569 -0.8989 -0.0086
  133CHL1  H12B16061   1.570   2.282   4.326  0.6928  0.4410  1.6353
  133CHL1   C1116062   1.496   2.419   4.162 -1.2250 -0.7041  0.2843
  133CHL1  H11A16063   1.459   2.524   4.159 -0.3955 -0.3287  1.9025
  133CHL1  H11B16064   1.592   2.415   4.107 -0.8357 -0.7025  0.9497
  133CHL1    C916065   1.414   2.317   4.084  0.4152 -0.0092  0.0268
  133CHL1    H916066   1.460   2.216   4.079 -2.4743 -1.4338 -0.0094
  133CHL1   C1016067   1.396   2.353   3.925 -0.1569 -0.5260  0.4453
  133CHL1   C1916068   1.352   2.500   3.898 -0.1412 -0.1181  0.2908
  133CHL1  H19A16069   1.429   2.572   3.932 -0.4714 -0.3693  1.6350
  133CHL1  H19B16070   1.335   2.526   3.791 -0.3460 -0.4429  0.2418
  133CHL1  H19C16071   1.278   2.533   3.974  2.3551  0.2187  2.7000
  133CHL1    C116072   1.535   2.324   3.856 -0.5468  0.0334 -0.9674
  133CHL1   H1A16073   1.604   2.400   3.897 -0.9327 -0.2653  0.2696
  133CHL1   H1B16074   1.561   2.220   3.885 -0.3160 -0.0589 -1.4945
  133CHL1    C216075   1.532   2.344   3.711 -0.0054  0.0717 -0.2937
  133CHL1   H2A16076   1.630   2.314   3.666 -0.2808 -0.1405 -0.7627
  133CHL1   H2B16077   1.524   2.451   3.685  1.5595  0.3396  0.1975
  133CHL1   C2016078   1.418   2.385   4.654  0.0451  0.2064 -0.2500
  133CHL1   H2016079   1.371   2.484   4.669  3.2551  1.5163  2.2149
  133CHL1   C2116080   1.568   2.416   4.638 -0.4465  0.1007  0.1800
  133CHL1  H21A16081   1.609   2.324   4.590 -2.2584 -1.6636  1.8557
  133CHL1  H21B16082   1.619   2.422   4.736  0.6350 -0.6021 -0.3193
  133CHL1  H21C16083   1.583   2.502   4.569 -1.7438 -0.9511 -1.5061
  133CHL1   C2216084   1.387   2.311   4.788 -0.6358 -0.0665  0.2984
  133CHL1  H22A16085   1.417   2.374   4.874 -2.5957  2.7476 -0.9274
  133CHL1  H22B16086   1.278   2.291   4.799 -0.5870 -0.0777  0.7504
  133CHL1   C2316087   1.470   2.187   4.813  0.3530  0.4628 -0.8131
  133CHL1  H23A16088   1.467   2.116   4.729 -0.3699  0.8501 -1.1259
  133CHL1  H23B16089   1.578   2.214   4.816  0.1605  1.2260  0.9354
  133CHL1   C2416090   1.408   2.122   4.943 -0.1056  0.2851  0.3969
  133CHL1  H24A16091   1.418   2.179   5.038  0.3638  1.1796 -0.1754
  133CHL1  H24B16092   1.299   2.120   4.923 -0.5178  1.5221  2.2617
  133CHL1   C2516093   1.471   1.984   4.972  0.5006 -0.0438  0.5362
  133CHL1   H2516094   1.426   1.938   5.062  0.5517 -1.2499 -0.0324
  133CHL1   C2616095   1.444   1.880   4.866 -0.0265 -0.5609 -0.1792
  133CHL1  H26A16096   1.334   1.879   4.847 -0.6863  2.2462  2.6796
  133CHL1  H26B16097   1.508   1.893   4.776 -0.7449 -2.0889 -0.9502
  133CHL1  H26C16098   1.460   1.776   4.902 -1.1687 -0.5787  0.3341
  133CHL1   C2716099   1.621   1.989   4.997 -0.2045 -0.7489 -0.0619
  133CHL1  H27A16100   1.633   2.058   5.084 -1.7428  0.4496 -0.7497
  133CHL1  H27B16101   1.652   1.889   5.034 -1.3516 -0.7914  0.8869
  133CHL1  H27C16102   1.679   2.023   4.909 -0.2337 -0.0444  0.1845
  134CHL1    C316103   6.910   1.360   3.781  0.0142 -0.0904 -0.2161
  134CHL1    H316104   6.818   1.306   3.810 -0.1874  0.0638 -0.5704
  134CHL1    O316105   6.907   1.352   3.642 -0.3867 -0.8057  0.3119
  134CHL1   H3'16106   6.970   1.418   3.613  0.5519 -2.4131 -1.5458
  134CHL1    C416107   6.909   1.510   3.818  0.3530  0.0198 -0.3727
  134CHL1   H4A16108   6.995   1.563   3.772  0.9110 -0.7132 -0.1982
  134CHL1   H4B16109   6.820   1.550   3.764 -1.6763  0.7020  3.1450
  134CHL1    C516110   6.907   1.528   3.964 -0.2818 -0.6539  0.0894
  134CHL1    C616111   6.807   1.595   4.022  0.3401  0.2974 -0.5358
  134CHL1    H616112   6.728   1.638   3.958 -0.0292 -0.0148 -0.2982
  134CHL1    C716113   6.794   1.599   4.170  0.4087 -0.2152 -0.9117
  134CHL1   H7A16114   6.751   1.695   4.206 -0.1422 -0.9309  0.3965
  134CHL1   H7B16115   6.729   1.517   4.206 -0.0528  0.0078 -1.2169
  134CHL1    C816116   6.924   1.573   4.244 -0.1651 -0.3401  0.3482
  134CHL1    H816117   6.990   1.658   4.219  0.0099  0.3456  2.8797
  134CHL1   C1416118   6.901   1.557   4.395 -0.6750  0.0267 -0.1556
  134CHL1   H1416119   6.839   1.470   4.423 -0.3102  0.4221  2.0831
  134CHL1   C1516120   6.829   1.665   4.469  0.3843  0.2401 -0.3936
  134CHL1  H15A16121   6.872   1.766   4.454 -1.3393  1.2910  1.2075
  134CHL1  H15B16122   6.720   1.682   4.453  0.5710  1.6935 -0.2313
  134CHL1   C1616123   6.848   1.630   4.615  0.2000 -0.1295 -1.0145
  134CHL1  H16A16124   6.874   1.721   4.675  0.4325  0.2615 -1.7006
  134CHL1  H16B16125   6.757   1.584   4.659  1.9573 -1.0725  1.9095
  134CHL1   C1716126   6.952   1.513   4.621 -0.1799 -0.2389 -0.4156
  134CHL1   H1716127   6.899   1.416   4.608 -0.0238 -0.0880 -2.7262
  134CHL1   C1316128   7.020   1.525   4.481  0.0526  1.2318 -0.2324
  134CHL1   C1816129   7.117   1.645   4.482  0.2992 -0.2312  0.0477
  134CHL1  H18A16130   7.212   1.629   4.537 -0.8011 -1.5728  1.6750
  134CHL1  H18B16131   7.132   1.680   4.377  0.3437 -1.0654 -0.2330
  134CHL1  H18C16132   7.075   1.724   4.547 -0.9996 -1.2256  0.4677
  134CHL1   C1216133   7.077   1.396   4.428  0.3848  0.3718  0.0093
  134CHL1  H12A16134   7.170   1.372   4.484  0.3983  0.4964  0.0404
  134CHL1  H12B16135   7.004   1.313   4.439  0.5059  0.3238  0.4482
  134CHL1   C1116136   7.120   1.404   4.280  0.1361  0.1283  0.5448
  134CHL1  H11A16137   7.219   1.453   4.274  0.6199 -0.5182  2.3203
  134CHL1  H11B16138   7.140   1.301   4.244  1.1121  1.7282 -4.0349
  134CHL1    C916139   6.994   1.443   4.192 -0.1308 -0.4118 -0.0423
  134CHL1    H916140   6.920   1.363   4.214  0.0152 -0.9166 -1.3211
  134CHL1   C1016141   7.023   1.457   4.038 -0.1408  0.4476 -0.4255
  134CHL1   C1916142   7.158   1.536   4.006  0.2628  0.8776  0.0928
  134CHL1  H19A16143   7.156   1.643   4.036 -1.7036  0.5788  1.2680
  134CHL1  H19B16144   7.244   1.491   4.060 -0.2591  2.1604  2.0968
  134CHL1  H19C16145   7.183   1.536   3.898 -2.1347 -0.8920 -0.5559
  134CHL1    C116146   7.028   1.314   3.988 -0.5043 -0.8753  0.1340
  134CHL1   H1A16147   7.117   1.277   4.042  0.4898 -1.1357 -1.6098
  134CHL1   H1B16148   6.938   1.265   4.031 -1.4948  2.6178  2.4542
  134CHL1    C216149   7.029   1.289   3.842 -0.0186  0.3820 -0.1726
  134CHL1   H2A16150   7.028   1.182   3.812  3.2414  0.7845 -2.2712
  134CHL1   H2B16151   7.119   1.340   3.800 -0.3676  1.6409  0.5336
  134CHL1   C2016152   7.037   1.523   4.755 -0.5806  0.2452  0.5089
  134CHL1   H2016153   7.107   1.609   4.757 -1.0428  0.6136  0.7711
  134CHL1   C2116154   7.128   1.396   4.768 -0.4775  0.0941  0.7565
  134CHL1  H21A16155   7.073   1.300   4.754  1.7013 -1.1570  0.3489
  134CHL1  H21B16156   7.154   1.387   4.876  1.8973 -2.1906  0.0965
  134CHL1  H21C16157   7.224   1.396   4.712  0.7644 -1.6421  2.7283
  134CHL1   C2216158   6.952   1.540   4.882 -0.0859  0.3395 -0.0875
  134CHL1  H22A16159   7.015   1.555   4.972  0.7652  0.0190 -0.6194
  134CHL1  H22B16160   6.907   1.640   4.861  1.1933  1.2538  1.3126
  134CHL1   C2316161   6.839   1.439   4.907  0.1779  0.4200  0.2360
  134CHL1  H23A16162   6.782   1.416   4.815 -1.1101  0.7920  0.9068
  134CHL1  H23B16163   6.883   1.342   4.937 -0.4612  0.0463 -0.0200
  134CHL1   C2416164   6.732   1.481   5.011  0.1652  0.5561  0.6462
  134CHL1  H24A16165   6.679   1.575   4.984 -0.0000 -0.0865 -1.4944
  134CHL1  H24B16166   6.651   1.404   5.009 -1.0241  1.7782 -1.1477
  134CHL1   C2516167   6.788   1.488   5.156  0.2822  0.1909 -0.4703
  134CHL1   H2516168   6.895   1.460   5.161  0.0731 -0.8354 -1.2679
  134CHL1   C2616169   6.770   1.628   5.218 -0.6977 -0.4805 -0.5178
  134CHL1  H26A16170   6.673   1.681   5.216  0.6978  2.2397  0.0453
  134CHL1  H26B16171   6.797   1.625   5.325  0.2761  1.9240 -0.6419
  134CHL1  H26C16172   6.842   1.701   5.175 -0.9584 -0.4979 -0.9942
  134CHL1   C2716173   6.711   1.394   5.252 -0.0353 -0.3003 -0.0830
  134CHL1  H27A16174   6.604   1.424   5.259  0.0650 -0.4295  3.7199
  134CHL1  H27B16175   6.720   1.289   5.217 -0.0264  0.0690 -1.2536
  134CHL1  H27C16176   6.756   1.411   5.352  2.6823  0.8580 -1.3999
  135CHL1    C316177   7.309   2.007   3.505  0.0510 -0.1690 -0.7856
  135CHL1    H316178   7.268   2.102   3.465 -2.3748 -0.7222  0.2226
  135CHL1    O316179   7.401   1.968   3.401 -0.1054 -0.2925 -0.3945
  135CHL1   H3'16180   7.416   1.874   3.414  2.4840  0.4200  2.9525
  135CHL1    C416181   7.375   2.032   3.637  0.0451  0.9113  0.1755
  135CHL1   H4A16182   7.422   1.936   3.668 -0.4327  0.6565  0.1128
  135CHL1   H4B16183   7.461   2.097   3.611  0.5497 -0.0220 -0.5311
  135CHL1    C516184   7.280   2.070   3.752  0.1940  0.1116  0.0828
  135CHL1    C616185   7.302   2.177   3.830  0.2872 -0.3060 -0.1689
  135CHL1    H616186   7.387   2.244   3.812 -1.2362  1.3613 -1.3534
  135CHL1    C716187   7.214   2.214   3.948 -0.0158  0.0590 -0.3432
  135CHL1   H7A16188   7.274   2.248   4.035 -1.5182  1.1747  0.3169
  135CHL1   H7B16189   7.141   2.294   3.920 -2.9094 -2.3487 -0.1470
  135CHL1    C816190   7.117   2.099   3.982 -0.2733 -0.4780  0.0459
  135CHL1    H816191   7.178   2.019   4.029  1.6907 -0.0375 -1.6057
  135CHL1   C1416192   7.012   2.150   4.079  0.1163  0.1344 -0.1743
  135CHL1   H1416193   6.954   2.225   4.020  0.1874 -1.9842 -3.1894
  135CHL1   C1516194   7.066   2.223   4.206 -0.0137  0.2536 -0.1770
  135CHL1  H15A16195   7.141   2.147   4.239  0.6262  0.5074 -1.0117
  135CHL1  H15B16196   7.126   2.314   4.187  0.2015  0.3234  0.7870
  135CHL1   C1616197   6.949   2.224   4.303 -0.1052  0.8272 -0.1409
  135CHL1  H16A16198   6.976   2.184   4.402 -1.1950 -1.2947 -0.6547
  135CHL1  H16B16199   6.916   2.329   4.321  0.2010  0.8411  0.3488
  135CHL1   C1716200   6.835   2.133   4.241 -0.0001  0.0286 -0.2791
  135CHL1   H1716201   6.776   2.206   4.182  0.7863  1.1225  0.2685
  135CHL1   C1316202   6.909   2.051   4.133 -0.0196  0.2105  0.2399
  135CHL1   C1816203   6.978   1.928   4.211  0.7436  0.2069 -0.4781
  135CHL1  H18A16204   6.896   1.864   4.248  1.4261  0.2504  1.1790
  135CHL1  H18B16205   7.037   1.864   4.142 -2.4110 -0.4749 -2.7621
  135CHL1  H18C16206   7.035   1.965   4.299 -1.4802  2.2060  0.2235
  135CHL1   C1216207   6.832   2.012   4.003 -0.1327 -0.4921 -0.5987
  135CHL1  H12A16208   6.745   1.946   4.022 -0.7589  0.4827 -0.0204
  135CHL1  H12B16209   6.779   2.099   3.958 -0.1998 -0.2136  0.0118
  135CHL1   C1116210   6.930   1.947   3.900  0.8720  0.2684 -0.0325
  135CHL1  H11A16211   6.974   1.859   3.952  0.8729  0.3959  0.1831
  135CHL1  H11B16212   6.860   1.918   3.819  2.6083 -0.8196 -1.2244
  135CHL1    C916213   7.047   2.045   3.854 -0.2989 -0.0272  0.0862
  135CHL1    H916214   6.992   2.130   3.809 -3.2641 -1.9900 -0.3236
  135CHL1   C1016215   7.152   1.982   3.755  0.2501 -0.1665  0.2347
  135CHL1   C1916216   7.195   1.834   3.807  0.1185 -0.1241  0.3833
  135CHL1  H19A16217   7.107   1.767   3.819  0.9981 -1.2133  1.0050
  135CHL1  H19B16218   7.279   1.793   3.747  0.2961 -1.3945  1.4460
  135CHL1  H19C16219   7.237   1.850   3.908 -1.9742 -1.6090  1.5845
  135CHL1    C116220   7.091   1.973   3.617 -0.6088 -0.0175  0.6802
  135CHL1   H1A16221   7.004   1.905   3.622 -0.2743 -0.7024 -1.7189
  135CHL1   H1B16222   7.055   2.073   3.584  2.5853  0.9644 -0.2134
  135CHL1    C216223   7.187   1.920   3.507 -0.2437  0.4541  0.3394
  135CHL1   H2A16224   7.147   1.918   3.404 -3.1232 -1.3441  1.3705
  135CHL1   H2B16225   7.208   1.813   3.529 -1.4168  0.2533  0.5553
  135CHL1   C2016226   6.757   2.067   4.350 -0.1329  0.7121 -0.0612
  135CHL1   H2016227   6.817   1.993   4.406 -2.5827 -1.0168  0.4383
  135CHL1   C2116228   6.642   1.982   4.293 -1.3745  0.5085  0.4048
  135CHL1  H21A16229   6.668   1.913   4.209 -0.8642  1.0321  0.1259
  135CHL1  H21B16230   6.565   2.055   4.259 -1.2591  0.1523 -0.6842
  135CHL1  H21C16231   6.598   1.924   4.377 -1.8436  0.1585 -0.0745
  135CHL1   C2216232   6.701   2.173   4.447 -0.2733  0.4890 -0.1114
  135CHL1  H22A16233   6.789   2.214   4.500  0.7591  0.7699 -1.9689
  135CHL1  H22B16234   6.652   2.248   4.381 -0.6233  1.2917  1.0123
  135CHL1   C2316235   6.599   2.129   4.554 -0.3281 -0.0912  0.5381
  135CHL1  H23A16236   6.512   2.091   4.497  0.5206  0.4628 -1.1964
  135CHL1  H23B16237   6.638   2.050   4.622  0.7160  0.7416  0.9418
  135CHL1   C2416238   6.544   2.239   4.651 -0.1560 -0.3931  0.5427
  135CHL1  H24A16239   6.463   2.294   4.599 -0.4818 -1.8956 -0.6156
  135CHL1  H24B16240   6.492   2.176   4.727 -1.2170 -2.2285 -1.6013
  135CHL1   C2516241   6.645   2.330   4.726 -0.8694 -0.4336 -0.7920
  135CHL1   H2516242   6.700   2.378   4.642  0.6820  0.0213  0.4293
  135CHL1   C2616243   6.574   2.432   4.816 -0.5665 -0.3050 -0.3249
  135CHL1  H26A16244   6.542   2.382   4.910 -0.3905 -2.0498 -1.1529
  135CHL1  H26B16245   6.641   2.514   4.847 -1.4840 -0.1730  1.4499
  135CHL1  H26C16246   6.486   2.468   4.758 -0.4628 -0.0905 -0.3482
  135CHL1   C2716247   6.743   2.239   4.809 -0.1475  0.8603 -0.1435
  135CHL1  H27A16248   6.695   2.182   4.891  2.1449 -2.8541 -1.1576
  135CHL1  H27B16249   6.783   2.160   4.742 -1.6565 -2.7251  2.8648
  135CHL1  H27C16250   6.825   2.296   4.859 -0.8930  0.3718  1.7223
  136CHL1    C316251   5.825   2.813   3.592 -0.2909  0.1623  0.4261
  136CHL1    H316252   5.911   2.853   3.533  0.2331  2.9298  2.8061
  136CHL1    O316253   5.735   2.749   3.499  0.7237  0.3792  0.0345
  136CHL1   H3'16254   5.650   2.759   3.542 -0.0875  0.6213 -1.5736
  136CHL1    C416255   5.866   2.724   3.710 -0.7232 -0.1624 -0.1482
  136CHL1   H4A16256   5.763   2.687   3.731 -1.6229  2.2980  0.1593
  136CHL1   H4B16257   5.930   2.645   3.666 -0.8110 -0.5324  0.3853
  136CHL1    C516258   5.939   2.802   3.823  0.0082  0.0848 -0.0796
  136CHL1    C616259   6.065   2.770   3.860  0.2347  0.3088 -1.0826
  136CHL1    H616260   6.106   2.679   3.814  0.3236 -1.1275  1.6993
  136CHL1    C716261   6.138   2.843   3.969 -0.1773  0.9018  0.8128
  136CHL1   H7A16262   6.196   2.763   4.020 -1.3283 -0.3069  0.3082
  136CHL1   H7B16263   6.196   2.925   3.922  0.9250  0.1050  0.7302
  136CHL1    C816264   6.035   2.909   4.063  0.3189 -0.0849  0.2897
  136CHL1    H816265   5.976   2.829   4.113  1.7879 -1.1288  0.4409
  136CHL1   C1416266   6.116   2.997   4.163 -0.0154  0.1468  0.1842
  136CHL1   H1416267   6.175   3.070   4.103  0.3126  1.0952  1.5947
  136CHL1   C1516268   6.228   2.930   4.247 -0.1565  0.1830  0.6197
  136CHL1  H15A16269   6.205   2.829   4.287 -2.6598  0.2866 -0.3634
  136CHL1  H15B16270   6.327   2.926   4.195 -0.2573 -2.3110  0.5172
  136CHL1   C1616271   6.235   3.023   4.372  0.6024  0.6165  0.0569
  136CHL1  H16A16272   6.206   2.961   4.460  1.7580  0.7567  0.5453
  136CHL1  H16B16273   6.335   3.069   4.386  1.1086  0.1786 -1.8393
  136CHL1   C1716274   6.138   3.141   4.345 -0.0558 -0.1095 -0.0697
  136CHL1   H1716275   6.195   3.212   4.281  0.9725 -0.5550  0.3195
  136CHL1   C1316276   6.030   3.080   4.255 -0.0253  0.1823  0.9684
  136CHL1   C1816277   5.940   2.997   4.341  0.6288  0.6034 -0.1772
  136CHL1  H18A16278   5.892   3.065   4.415  0.3919  0.4495 -0.1855
  136CHL1  H18B16279   5.872   2.932   4.281  1.8478 -0.9686  0.1046
  136CHL1  H18C16280   5.995   2.914   4.389 -2.4652 -2.7680 -1.9558
  136CHL1   C1216281   5.945   3.184   4.166  0.0975 -0.3418 -0.5848
  136CHL1  H12A16282   5.874   3.254   4.215 -0.0680  0.1748 -1.5367
  136CHL1  H12B16283   6.024   3.241   4.111 -0.4628 -0.7533 -1.8633
  136CHL1   C1116284   5.862   3.107   4.066  0.1627  0.0409  0.5563
  136CHL1  H11A16285   5.786   3.057   4.130 -0.8581  2.4050  1.3214
  136CHL1  H11B16286   5.800   3.178   4.007 -0.3021 -2.5251 -2.2511
  136CHL1    C916287   5.942   3.002   3.980 -0.3810  0.1725 -0.1124
  136CHL1    H916288   6.007   3.069   3.919  0.2062  1.2045  1.5843
  136CHL1   C1016289   5.867   2.918   3.881 -0.3110  0.4266  0.0788
  136CHL1   C1916290   5.751   2.864   3.957 -0.0151  0.3504 -1.0406
  136CHL1  H19A16291   5.684   2.801   3.895 -1.5563  0.5491  0.3567
  136CHL1  H19B16292   5.759   2.811   4.054 -1.9462  1.6398 -0.0979
  136CHL1  H19C16293   5.689   2.954   3.980  2.0197  1.4284  0.6373
  136CHL1    C116294   5.824   3.007   3.764  0.0964  0.5231 -0.4816
  136CHL1   H1A16295   5.779   3.099   3.805 -1.0604 -1.6778  3.7882
  136CHL1   H1B16296   5.912   3.053   3.715 -1.1277  2.3418 -1.0637
  136CHL1    C216297   5.748   2.938   3.648  0.2322 -0.1330  0.0255
  136CHL1   H2A16298   5.746   3.015   3.568 -0.8335 -1.5162 -1.3574
  136CHL1   H2B16299   5.647   2.906   3.681  0.9743 -2.1443  0.4565
  136CHL1   C2016300   6.105   3.222   4.469  0.5215 -0.4305 -0.7086
  136CHL1   H2016301   6.004   3.264   4.450 -0.3214 -1.8031  0.5336
  136CHL1   C2116302   6.204   3.341   4.489 -0.1933 -0.2293 -0.5676
  136CHL1  H21A16303   6.168   3.407   4.571 -0.9760 -0.8720 -0.3716
  136CHL1  H21B16304   6.202   3.386   4.388 -0.7671 -2.2853 -1.5244
  136CHL1  H21C16305   6.301   3.291   4.509 -0.6793 -0.4720  1.4649
  136CHL1   C2216306   6.090   3.142   4.601  0.3239  0.1401 -0.2363
  136CHL1  H22A16307   6.024   3.056   4.573 -1.0026  1.1631 -0.3514
  136CHL1  H22B16308   6.186   3.102   4.639  0.4113  0.1810 -0.4161
  136CHL1   C2316309   6.013   3.215   4.707  0.0915  0.0949 -0.5074
  136CHL1  H23A16310   6.070   3.309   4.724  0.3810 -0.1317 -0.2069
  136CHL1  H23B16311   5.914   3.229   4.660 -0.2745  1.7408  0.6426
  136CHL1   C2416312   6.010   3.141   4.843  0.0003  0.0545  0.6013
  136CHL1  H24A16313   5.949   3.051   4.822  1.4942 -1.2431  1.6120
  136CHL1  H24B16314   6.116   3.113   4.856 -0.2554 -1.0233  0.3987
  136CHL1   C2516315   5.964   3.237   4.963  0.4532 -0.1711 -0.4911
  136CHL1   H2516316   6.016   3.333   4.981 -1.3631  0.9323 -0.8504
  136CHL1   C2616317   5.816   3.284   4.938 -0.4151 -0.0015 -0.1985
  136CHL1  H26A16318   5.801   3.366   4.864 -3.0887 -1.8163 -1.8464
  136CHL1  H26B16319   5.742   3.207   4.907 -1.7424  1.8741 -1.9504
  136CHL1  H26C16320   5.774   3.323   5.034 -0.7202  1.2098 -0.8044
  136CHL1   C2716321   5.974   3.164   5.101  0.4778 -0.1084 -0.1895
  136CHL1  H27A16322   5.888   3.095   5.097  1.4279 -1.2584 -1.8319
  136CHL1  H27B16323   6.060   3.095   5.111  0.7351  0.1275 -0.7843
  136CHL1  H27C16324   5.968   3.232   5.189 -3.2574  1.4225 -1.4384
  137CHL1    C316325   0.275   1.137   3.806  0.1156 -0.2711 -0.2563
  137CHL1    H316326   0.167   1.160   3.813  0.6594  2.4488  0.5650
  137CHL1    O316327   0.303   1.042   3.708  0.4575  0.0955 -0.0769
  137CHL1   H3'16328   0.380   1.075   3.662  1.3692 -1.3319  0.3414
  137CHL1    C416329   0.330   1.270   3.764  0.3259  0.0122 -0.1309
  137CHL1   H4A16330   0.436   1.249   3.740  0.8993  2.3675  0.0889
  137CHL1   H4B16331   0.278   1.302   3.672 -0.4847 -1.6589 -0.2813
  137CHL1    C516332   0.319   1.375   3.876  0.1588  0.0596  0.0227
  137CHL1    C616333   0.260   1.496   3.854 -0.9309  0.3679  0.1939
  137CHL1    H616334   0.219   1.525   3.756  0.4079 -0.5368 -0.6798
  137CHL1    C716335   0.261   1.603   3.955 -0.1642 -0.5281 -0.5318
  137CHL1   H7A16336   0.306   1.697   3.916 -0.5644  0.6247  1.6552
  137CHL1   H7B16337   0.154   1.621   3.976 -0.5724 -1.0340 -2.0280
  137CHL1    C816338   0.342   1.568   4.081 -0.3723  0.4521 -0.2149
  137CHL1    H816339   0.447   1.585   4.051 -0.5092  0.9903 -0.4000
  137CHL1   C1416340   0.301   1.665   4.190 -0.3171  0.8156  0.4619
  137CHL1   H1416341   0.191   1.655   4.205 -1.0672  3.3509 -2.2375
  137CHL1   C1516342   0.314   1.819   4.156 -0.1605  0.0303 -0.2576
  137CHL1  H15A16343   0.415   1.836   4.113 -0.9897  1.6464 -1.6445
  137CHL1  H15B16344   0.237   1.851   4.083  0.6674 -2.7831 -2.5775
  137CHL1   C1616345   0.309   1.880   4.305 -0.3343  0.5970 -0.1409
  137CHL1  H16A16346   0.401   1.937   4.331 -1.5690  1.4217  2.8966
  137CHL1  H16B16347   0.222   1.946   4.324 -0.1094  1.0139 -0.5603
  137CHL1   C1716348   0.311   1.760   4.406 -0.2148 -0.2358  0.3736
  137CHL1   H1716349   0.205   1.744   4.434 -0.7748  2.8311  0.3180
  137CHL1   C1316350   0.371   1.643   4.324 -0.2998  0.1035 -0.4270
  137CHL1   C1816351   0.523   1.660   4.308  0.7269 -0.0168  0.5698
  137CHL1  H18A16352   0.562   1.587   4.234 -1.6262 -1.5022  0.6975
  137CHL1  H18B16353   0.547   1.760   4.266 -0.9594  0.2468  0.1408
  137CHL1  H18C16354   0.583   1.656   4.401  1.1587 -1.1019  0.2529
  137CHL1   C1216355   0.331   1.502   4.365  0.6328  0.9948  0.0116
  137CHL1  H12A16356   0.399   1.478   4.450  0.1423 -0.2119  0.0667
  137CHL1  H12B16357   0.226   1.489   4.399  1.2638  1.2259  2.1949
  137CHL1   C1116358   0.369   1.396   4.263  0.3157  1.0218  0.1069
  137CHL1  H11A16359   0.479   1.383   4.262  0.3290  1.0516  0.7932
  137CHL1  H11B16360   0.316   1.308   4.306 -0.0622  2.0490  1.8160
  137CHL1    C916361   0.317   1.425   4.121 -0.3399 -0.0868 -1.3286
  137CHL1    H916362   0.208   1.405   4.130 -0.0562 -0.5158  3.5532
  137CHL1   C1016363   0.367   1.327   4.010 -0.2815 -0.0350  0.7901
  137CHL1   C1916364   0.518   1.323   4.008  0.3126 -0.7449 -0.3481
  137CHL1  H19A16365   0.549   1.275   4.103  0.6663 -3.5990 -1.7733
  137CHL1  H19B16366   0.557   1.247   3.936 -1.3621 -0.9984 -1.0331
  137CHL1  H19C16367   0.571   1.420   3.994  1.3316 -1.3704 -1.0644
  137CHL1    C116368   0.300   1.187   4.044  0.0676  0.7444  0.1012
  137CHL1   H1A16369   0.326   1.143   4.143  1.1218 -0.6546 -0.7425
  137CHL1   H1B16370   0.189   1.187   4.041  0.0612  0.6118  0.3159
  137CHL1    C216371   0.336   1.080   3.942 -0.2937 -0.6886  0.5012
  137CHL1   H2A16372   0.269   0.993   3.958  0.7646 -1.3073  1.7798
  137CHL1   H2B16373   0.444   1.054   3.931 -0.3699 -0.0509 -2.8922
  137CHL1   C2016374   0.365   1.797   4.548  0.9462  0.2882  1.6337
  137CHL1   H2016375   0.470   1.833   4.541  0.6153  1.0411 -0.0915
  137CHL1   C2116376   0.371   1.670   4.641 -0.8438 -0.1364  0.0729
  137CHL1  H21A16377   0.397   1.701   4.744  0.5732 -0.2705 -0.2315
  137CHL1  H21B16378   0.455   1.600   4.627 -0.0505  0.4227  1.7826
  137CHL1  H21C16379   0.274   1.617   4.635 -1.0615  0.1216  1.0446
  137CHL1   C2216380   0.289   1.918   4.609  0.0422  0.6523  0.5661
  137CHL1  H22A16381   0.288   1.999   4.533  0.0969  1.6626  1.6044
  137CHL1  H22B16382   0.189   1.875   4.633  0.1811 -0.7626 -1.2467
  137CHL1   C2316383   0.353   1.983   4.742 -0.4936 -0.3346  0.3311
  137CHL1  H23A16384   0.320   1.910   4.820  1.0684 -0.9864  0.4209
  137CHL1  H23B16385   0.464   1.990   4.738 -0.5268  0.9507  0.9996
  137CHL1   C2416386   0.303   2.128   4.774 -0.3890  0.1391  0.4102
  137CHL1  H24A16387   0.326   2.186   4.682 -2.6477 -0.9532 -0.9246
  137CHL1  H24B16388   0.192   2.128   4.774 -0.3996 -0.3988 -0.4297
  137CHL1   C2516389   0.364   2.199   4.891  0.3688 -0.0904 -0.1984
  137CHL1   H2516390   0.464   2.167   4.926 -0.0192  0.5854  1.6400
  137CHL1   C2616391   0.389   2.344   4.858  0.0919 -0.0289  0.1395
  137CHL1  H26A16392   0.437   2.393   4.946  2.3926 -0.6851 -0.6807
  137CHL1  H26B16393   0.469   2.356   4.782  1.4208 -0.3195  1.4555
  137CHL1  H26C16394   0.293   2.393   4.830 -0.1814 -1.1572 -1.0007
  137CHL1   C2716395   0.277   2.185   5.018  0.5210  0.3807 -0.1032
  137CHL1  H27A16396   0.183   2.243   5.020 -0.7036 -1.5495  1.1788
  137CHL1  H27B16397   0.248   2.079   5.038  0.4603  0.5020  0.4575
  137CHL1  H27C16398   0.341   2.216   5.104  1.9574 -1.5771 -0.3854
  138CHL1    C316399   0.297   0.499   3.149  0.1318 -0.2854  0.0477
  138CHL1    H316400   0.305   0.610   3.140 -1.1637 -0.1204  0.7286
  138CHL1    O316401   0.326   0.461   3.016  0.3381  0.1838 -0.0644
  138CHL1   H3'16402   0.298   0.369   3.019  1.1305 -0.0991 -0.8592
  138CHL1    C416403   0.401   0.443   3.240 -0.2721 -0.6386  0.1477
  138CHL1   H4A16404   0.408   0.333   3.226 -2.1737 -0.4572 -3.2592
  138CHL1   H4B16405   0.501   0.475   3.204 -1.1437  1.7313 -0.3299
  138CHL1    C516406   0.383   0.469   3.385 -0.3462  0.2715  0.1296
  138CHL1    C616407   0.471   0.530   3.466 -0.6334  0.2027 -0.3889
  138CHL1    H616408   0.571   0.555   3.428  0.1198  0.0967  1.4232
  138CHL1    C716409   0.448   0.558   3.613  1.3271 -0.0509 -0.5225
  138CHL1   H7A16410   0.536   0.540   3.678  0.4207  1.3594  1.1648
  138CHL1   H7B16411   0.400   0.658   3.621  1.1224  0.0267 -2.2311
  138CHL1    C816412   0.329   0.475   3.675  0.1085 -0.0252 -0.7642
  138CHL1    H816413   0.370   0.372   3.678  2.2005  0.7180  2.3264
  138CHL1   C1416414   0.296   0.526   3.811  0.0178 -0.7393 -0.5616
  138CHL1   H1416415   0.267   0.632   3.800  0.8723 -0.5702 -1.3763
  138CHL1   C1516416   0.409   0.536   3.913 -0.4749 -0.5827  0.6674
  138CHL1  H15A16417   0.462   0.439   3.903 -0.9320 -1.3019  4.0264
  138CHL1  H15B16418   0.482   0.615   3.884 -0.0827 -1.7721 -1.8768
  138CHL1   C1616419   0.337   0.547   4.043  0.1261 -0.0506  0.6679
  138CHL1  H16A16420   0.366   0.467   4.114  0.0000  0.3949  1.2326
  138CHL1  H16B16421   0.371   0.641   4.093  0.3602  0.2330 -0.0027
  138CHL1   C1716422   0.182   0.543   4.007 -0.2327 -0.2811 -0.6660
  138CHL1   H1716423   0.156   0.648   3.980  0.5361  0.7123  2.0933
  138CHL1   C1316424   0.175   0.457   3.882 -0.1428  0.1066 -0.1933
  138CHL1   C1816425   0.203   0.307   3.919 -0.8131 -0.0956 -0.1866
  138CHL1  H18A16426   0.119   0.248   3.962 -0.6548 -0.4151 -0.3154
  138CHL1  H18B16427   0.236   0.243   3.835 -1.0034  0.5675 -0.7755
  138CHL1  H18C16428   0.285   0.288   3.992 -1.0029 -0.7833 -0.1484
  138CHL1   C1216429   0.053   0.479   3.792  0.4596 -0.5715 -0.4276
  138CHL1  H12A16430  -0.041   0.435   3.834  0.4600  1.1575  1.5299
  138CHL1  H12B16431   0.035   0.588   3.796 -0.4957 -0.7464  0.6693
  138CHL1   C1116432   0.073   0.424   3.651  0.4046  0.0190 -0.4357
  138CHL1  H11A16433   0.083   0.314   3.655  2.2465  0.1287 -0.9406
  138CHL1  H11B16434  -0.023   0.454   3.603 -0.1849  2.9945  2.2720
  138CHL1    C916435   0.200   0.485   3.579 -0.4198 -0.1519 -0.4273
  138CHL1    H916436   0.183   0.594   3.567  0.3218 -0.0239 -0.3753
  138CHL1   C1016437   0.234   0.435   3.439 -0.0710  0.2806  0.6222
  138CHL1   C1916438   0.232   0.283   3.435  0.3099  0.2813 -0.9397
  138CHL1  H19A16439   0.304   0.250   3.513 -2.1134  0.6550  1.6076
  138CHL1  H19B16440   0.135   0.239   3.466  0.7336 -1.5452 -2.0813
  138CHL1  H19C16441   0.256   0.241   3.335 -1.5584  0.0636 -1.3257
  138CHL1    C116442   0.135   0.500   3.333 -0.5412  0.0882 -0.7609
  138CHL1   H1A16443   0.033   0.477   3.370 -0.1415  1.1535  1.1205
  138CHL1   H1B16444   0.146   0.611   3.332  0.0695  0.0456  0.4497
  138CHL1    C216445   0.159   0.464   3.188  0.2191 -0.4598 -0.3300
  138CHL1   H2A16446   0.075   0.504   3.128  0.1525  1.6569  1.0564
  138CHL1   H2B16447   0.143   0.355   3.175 -1.3278 -0.0567 -2.4140
  138CHL1   C2016448   0.093   0.520   4.134  0.6895 -0.6230 -0.1032
  138CHL1   H2016449   0.118   0.426   4.188 -0.2975 -0.3881  0.7903
  138CHL1   C2116450  -0.056   0.496   4.097 -0.0058 -0.2038 -1.4694
  138CHL1  H21A16451  -0.052   0.393   4.057  2.9203 -2.1670  3.1248
  138CHL1  H21B16452  -0.113   0.572   4.038  1.9782  2.2971 -0.3660
  138CHL1  H21C16453  -0.111   0.472   4.190 -0.5855 -1.2616 -2.0702
  138CHL1   C2216454   0.111   0.638   4.237 -0.2471 -0.5123 -0.5851
  138CHL1  H22A16455   0.215   0.677   4.243 -1.5714  3.8799 -1.9765
  138CHL1  H22B16456   0.044   0.718   4.198 -0.5968 -0.2870  0.4375
  138CHL1   C2316457   0.077   0.606   4.385  0.6799  0.2440  0.2189
  138CHL1  H23A16458   0.077   0.702   4.441  1.9793 -1.2589  2.9817
  138CHL1  H23B16459  -0.030   0.577   4.391  0.9212 -0.6837  0.1607
  138CHL1   C2416460   0.180   0.520   4.449 -0.0803 -0.1335 -0.2395
  138CHL1  H24A16461   0.216   0.439   4.382  1.0079  2.1434 -2.5894
  138CHL1  H24B16462   0.268   0.588   4.445 -0.4972  0.3581 -1.2806
  138CHL1   C2516463   0.165   0.486   4.601 -0.2049  0.0642 -0.2367
  138CHL1   H2516464   0.178   0.577   4.662 -1.2265  0.4851 -0.6288
  138CHL1   C2616465   0.032   0.411   4.625  0.4644 -0.2023  0.0251
  138CHL1  H26A16466  -0.049   0.485   4.608  0.5317 -0.3054 -0.8257
  138CHL1  H26B16467   0.015   0.321   4.561  1.9742 -0.0804 -0.5929
  138CHL1  H26C16468   0.026   0.391   4.734  2.0792  1.1038  0.3970
  138CHL1   C2716469   0.276   0.387   4.645  0.2406 -0.2702 -0.0677
  138CHL1  H27A16470   0.300   0.323   4.557  2.7733 -0.5109  0.7134
  138CHL1  H27B16471   0.363   0.435   4.694 -0.3974 -1.7578  2.7303
  138CHL1  H27C16472   0.247   0.325   4.732  1.5886 -1.2068 -0.2447
  139CHL1    C316473   0.579   6.792   3.518  0.1911 -0.2954 -0.8031
  139CHL1    H316474   0.547   6.895   3.548  0.5688  0.3446 -2.4760
  139CHL1    O316475   0.561   6.776   3.377  0.2862 -0.3587  0.4234
  139CHL1   H3'16476   0.611   6.848   3.337  0.7843 -1.1446 -0.3980
  139CHL1    C416477   0.723   6.757   3.563  0.0498 -0.1323 -0.4299
  139CHL1   H4A16478   0.748   6.659   3.518  0.1657  0.2682 -1.2617
  139CHL1   H4B16479   0.790   6.820   3.501 -0.9084  1.3475 -0.0107
  139CHL1    C516480   0.745   6.770   3.711 -0.2860  0.0017 -0.6670
  139CHL1    C616481   0.845   6.846   3.762 -0.3299 -0.4436 -1.0014
  139CHL1    H616482   0.892   6.921   3.697 -1.8112  0.8258 -0.6703
  139CHL1    C716483   0.870   6.862   3.911 -0.2724 -0.6373  0.5471
  139CHL1   H7A16484   0.977   6.872   3.938 -0.4400  0.7510  0.7377
  139CHL1   H7B16485   0.811   6.946   3.953  0.1783  0.5243 -1.0323
  139CHL1    C816486   0.811   6.737   3.988  0.7239  0.6504  0.0947
  139CHL1    H816487   0.867   6.647   3.954 -0.4785  0.8116 -2.5613
  139CHL1   C1416488   0.832   6.747   4.145 -0.1010  0.1676  0.1483
  139CHL1   H1416489   0.773   6.838   4.168 -2.7488 -1.5570  0.6350
  139CHL1   C1516490   0.976   6.762   4.193  0.4690 -0.3070 -0.2767
  139CHL1  H15A16491   1.036   6.682   4.143  1.6264  1.2067 -1.4220
  139CHL1  H15B16492   1.011   6.862   4.160 -0.8461 -0.2134 -1.4971
  139CHL1   C1616493   0.960   6.750   4.343  0.6664 -0.1382 -0.5602
  139CHL1  H16A16494   1.028   6.677   4.391  0.7867 -0.0322 -0.5702
  139CHL1  H16B16495   0.971   6.849   4.393 -1.5309 -0.0611 -0.1033
  139CHL1   C1716496   0.811   6.696   4.373  0.7168  0.0776 -0.2374
  139CHL1   H1716497   0.748   6.787   4.384 -0.2450 -0.7523  1.5348
  139CHL1   C1316498   0.765   6.640   4.232  0.2645  0.3212 -0.2929
  139CHL1   C1816499   0.839   6.507   4.203  0.0655  0.3462  0.9767
  139CHL1  H18A16500   0.945   6.513   4.234  0.4964  0.6234 -0.4662
  139CHL1  H18B16501   0.796   6.427   4.267 -1.8661 -0.2070 -0.8995
  139CHL1  H18C16502   0.843   6.482   4.095 -2.4109 -2.3849  1.3998
  139CHL1   C1216503   0.617   6.631   4.197  0.1512  0.7642  0.3034
  139CHL1  H12A16504   0.578   6.545   4.256 -1.7251 -0.1207 -2.0464
  139CHL1  H12B16505   0.551   6.710   4.237  0.1610  1.5234 -1.0980
  139CHL1   C1116506   0.588   6.604   4.047 -0.0758 -0.3248 -0.2983
  139CHL1  H11A16507   0.607   6.495   4.033  1.8654 -0.5592  3.0058
  139CHL1  H11B16508   0.478   6.621   4.039  0.0480  0.6033 -0.0427
  139CHL1    C916509   0.663   6.709   3.954 -0.4538  0.4697  0.0108
  139CHL1    H916510   0.603   6.802   3.966 -0.4624  0.7540 -1.9037
  139CHL1   C1016511   0.647   6.686   3.800  0.2465  0.1852  0.1409
  139CHL1   C1916512   0.686   6.536   3.777 -0.5033  0.0901 -0.5091
  139CHL1  H19A16513   0.612   6.475   3.833 -3.4669  1.6887 -2.3751
  139CHL1  H19B16514   0.673   6.520   3.668  1.5755 -0.0291 -0.7775
  139CHL1  H19C16515   0.792   6.521   3.804  0.0494  2.1096 -1.3660
  139CHL1    C116516   0.502   6.719   3.752  0.4741  0.1380 -0.4516
  139CHL1   H1A16517   0.425   6.663   3.810  1.4827 -0.4504  0.3474
  139CHL1   H1B16518   0.475   6.826   3.765 -0.9020 -0.0520 -1.5572
  139CHL1    C216519   0.482   6.699   3.597 -0.4577 -0.7637  0.6095
  139CHL1   H2A16520   0.373   6.706   3.575 -0.7523  0.4001  2.2802
  139CHL1   H2B16521   0.509   6.594   3.573 -0.2598 -0.4908 -0.4067
  139CHL1   C2016522   0.782   6.618   4.497 -0.2164 -0.2322 -0.3564
  139CHL1   H2016523   0.702   6.542   4.488  0.7777 -1.8170  2.6932
  139CHL1   C2116524   0.753   6.712   4.609  0.2673 -1.2400 -0.8391
  139CHL1  H21A16525   0.719   6.663   4.702  1.6769  1.5901  1.3519
  139CHL1  H21B16526   0.673   6.780   4.573  0.4682 -0.3947  0.2702
  139CHL1  H21C16527   0.842   6.772   4.639  0.6584 -2.3124  0.2018
  139CHL1   C2216528   0.902   6.521   4.539  0.0589 -0.3115  0.4420
  139CHL1  H22A16529   0.949   6.462   4.457  0.0953  0.3820 -0.0520
  139CHL1  H22B16530   0.991   6.577   4.575 -0.9499  0.7977  1.2919
  139CHL1   C2316531   0.878   6.417   4.649  0.0666 -0.2392  0.6398
  139CHL1  H23A16532   0.883   6.483   4.738 -0.5100  0.5121  0.1316
  139CHL1  H23B16533   0.771   6.387   4.646 -0.7857  2.6223 -0.0938
  139CHL1   C2416534   0.978   6.310   4.655  0.1083 -0.2982 -0.3534
  139CHL1  H24A16535   1.023   6.261   4.566  3.8699 -0.5251  1.4884
  139CHL1  H24B16536   1.065   6.366   4.694 -0.5993  0.4990  0.1074
  139CHL1   C2516537   0.941   6.195   4.747  1.1132  0.1883  0.1958
  139CHL1   H2516538   0.869   6.228   4.826  0.8165 -0.7801  0.3490
  139CHL1   C2616539   0.873   6.089   4.659 -0.2306 -0.5229  0.8417
  139CHL1  H26A16540   0.820   6.137   4.574  3.5903  1.9625 -0.3920
  139CHL1  H26B16541   0.945   6.014   4.622 -1.2567 -0.7135 -0.8879
  139CHL1  H26C16542   0.799   6.033   4.720 -0.1878  0.0551  1.4423
  139CHL1   C2716543   1.061   6.140   4.812 -0.2764 -0.2193 -0.9162
  139CHL1  H27A16544   1.143   6.117   4.741  2.3150  3.0155  0.7374
  139CHL1  H27B16545   1.106   6.220   4.874 -2.3897  2.3720 -2.4672
  139CHL1  H27C16546   1.046   6.051   4.877  1.2915 -1.2795 -1.9268
  140CHL1    C316547   7.285   0.499   3.393  0.2412  0.1435  0.1576
  140CHL1    H316548   7.338   0.402   3.378  2.2602  1.0705  1.0147
  140CHL1    O316549   7.283   0.556   3.263 -0.0548 -0.3623 -0.2448
  140CHL1   H3'16550   7.211   0.515   3.214 -2.0422  0.8487  1.4851
  140CHL1    C416551   7.141   0.461   3.431  0.8108  0.0382 -0.1320
  140CHL1   H4A16552   7.081   0.554   3.440 -0.1526 -0.6509  0.8100
  140CHL1   H4B16553   7.105   0.392   3.352 -2.0209  1.4609 -0.2076
  140CHL1    C516554   7.136   0.403   3.577  0.6748 -0.5376 -0.2159
  140CHL1    C616555   7.079   0.279   3.595 -0.1504 -0.0399 -0.8462
  140CHL1    H616556   7.034   0.227   3.509 -0.5184 -1.2134  0.0328
  140CHL1    C716557   7.068   0.212   3.733 -0.0472 -0.9061 -0.4332
  140CHL1   H7A16558   6.962   0.183   3.747 -0.1403 -0.1535  0.5296
  140CHL1   H7B16559   7.142   0.131   3.748  2.0230  0.9347 -0.0533
  140CHL1    C816560   7.098   0.318   3.852  0.1723  0.1259 -0.0291
  140CHL1    H816561   7.013   0.386   3.873  0.2242  0.6761 -1.4678
  140CHL1   C1416562   7.123   0.247   3.984 -0.4531  0.0049 -0.3463
  140CHL1   H1416563   7.218   0.191   3.969 -0.5432  0.0716 -1.2040
  140CHL1   C1516564   7.017   0.146   4.038  0.0742  0.2341 -0.7397
  140CHL1  H15A16565   6.921   0.194   4.011  1.1731  2.8350 -0.2615
  140CHL1  H15B16566   7.013   0.045   3.991 -0.5366  0.2969 -0.8341
  140CHL1   C1616567   7.031   0.146   4.191  0.3277  0.7133 -0.6133
  140CHL1  H16A16568   6.949   0.199   4.244  1.5904  1.3062  0.8249
  140CHL1  H16B16569   7.042   0.042   4.228  0.6576  0.7694 -0.5484
  140CHL1   C1716570   7.160   0.233   4.216 -0.3590 -0.5069 -0.4221
  140CHL1   H1716571   7.244   0.164   4.198 -1.2344 -1.4178 -1.1649
  140CHL1   C1316572   7.165   0.333   4.106  0.0775  0.7563 -0.0490
  140CHL1   C1816573   7.059   0.448   4.130  0.1906 -0.1288 -0.0435
  140CHL1  H18A16574   7.047   0.519   4.044  2.0220  1.7675  1.1720
  140CHL1  H18B16575   6.967   0.398   4.166 -0.5731  0.3538 -1.2326
  140CHL1  H18C16576   7.094   0.518   4.209 -2.6505  0.3530  0.9431
  140CHL1   C1216577   7.300   0.401   4.069  0.7922  0.8440 -0.5511
  140CHL1  H12A16578   7.345   0.473   4.140  2.7534 -2.3772  1.7459
  140CHL1  H12B16579   7.374   0.318   4.069 -0.3715 -0.3683  2.9908
  140CHL1   C1116580   7.277   0.484   3.939 -0.0090 -0.0920 -0.1183
  140CHL1  H11A16581   7.226   0.582   3.949  1.8502  1.0355 -1.2550
  140CHL1  H11B16582   7.383   0.508   3.920  0.0698  0.4691  0.9613
  140CHL1    C916583   7.220   0.403   3.823 -0.8115 -0.1925 -0.3688
  140CHL1    H916584   7.304   0.333   3.807 -1.1002 -1.3464  2.5277
  140CHL1   C1016585   7.212   0.482   3.684  0.1054  0.4958 -0.3590
  140CHL1   C1916586   7.129   0.618   3.698 -0.2943  0.3289 -0.1344
  140CHL1  H19A16587   7.041   0.596   3.762 -0.0791  0.2479  0.1366
  140CHL1  H19B16588   7.196   0.684   3.757  0.1422 -0.9265  0.8376
  140CHL1  H19C16589   7.112   0.662   3.598  2.4070  0.8117 -0.4820
  140CHL1    C116590   7.356   0.514   3.639 -0.2405  0.2113  0.0356
  140CHL1   H1A16591   7.402   0.583   3.712 -0.8395 -0.5295  1.1360
  140CHL1   H1B16592   7.425   0.428   3.650  0.9443  0.9154 -1.5145
  140CHL1    C216593   7.355   0.582   3.496  0.3658  0.0264  0.1123
  140CHL1   H2A16594   7.451   0.614   3.451  0.3382 -1.1296 -0.8169
  140CHL1   H2B16595   7.297   0.677   3.494  2.9688  1.6917 -0.9975
  140CHL1   C2016596   7.193   0.296   4.356 -0.2139 -0.1926 -0.3138
  140CHL1   H2016597   7.253   0.388   4.339 -0.0003 -0.0542  1.0359
  140CHL1   C2116598   7.275   0.207   4.439  0.4227  0.6517  0.1015
  140CHL1  H21A16599   7.371   0.182   4.389 -0.0901 -1.8085  0.1882
  140CHL1  H21B16600   7.225   0.109   4.459 -0.5359  1.1695  0.2758
  140CHL1  H21C16601   7.307   0.257   4.533  2.1533 -1.8239  0.9555
  140CHL1   C2216602   7.068   0.322   4.439 -0.1932  0.1888  0.0202
  140CHL1  H22A16603   6.974   0.347   4.385 -0.3342 -1.0286 -0.3369
  140CHL1  H22B16604   7.043   0.230   4.495 -1.5574  2.5309  3.6523
  140CHL1   C2316605   7.083   0.439   4.533  0.1650 -1.1007  0.1807
  140CHL1  H23A16606   7.163   0.415   4.606  0.3678  0.0558  0.3511
  140CHL1  H23B16607   7.116   0.532   4.481 -1.3740  0.4537  1.8664
  140CHL1   C2416608   6.957   0.461   4.612 -0.0956  0.1831 -0.6822
  140CHL1  H24A16609   6.860   0.465   4.559  1.0199 -0.2980 -2.9391
  140CHL1  H24B16610   6.954   0.365   4.668  3.6807  0.1942 -0.1510
  140CHL1   C2516611   6.964   0.570   4.722 -0.4363 -0.2624 -0.0297
  140CHL1   H2516612   6.975   0.663   4.663  1.7191 -0.9335 -0.7840
  140CHL1   C2616613   7.095   0.558   4.809  0.1469  0.3711 -0.0086
  140CHL1  H26A16614   7.102   0.461   4.863 -0.2713  0.3919  0.0842
  140CHL1  H26B16615   7.188   0.566   4.750  0.1080  2.3358  0.1338
  140CHL1  H26C16616   7.101   0.649   4.873  1.3533  0.7748 -0.6718
  140CHL1   C2716617   6.841   0.573   4.810  0.2864 -0.0610  0.2722
  140CHL1  H27A16618   6.752   0.605   4.751 -0.0563  1.7365  1.6563
  140CHL1  H27B16619   6.821   0.481   4.869 -0.0510 -0.7726 -0.9131
  140CHL1  H27C16620   6.868   0.650   4.885  0.0429 -1.4576  1.8598
  141DOPC     N16621   4.320   3.438   7.403 -0.6421 -0.2158  0.3135
  141DOPC   C1216622   4.285   3.297   7.371 -0.1762 -1.1672 -0.4972
  141DOPC  H12A16623   4.183   3.268   7.393  0.0324 -2.1076 -0.7248
  141DOPC  H12B16624   4.329   3.232   7.446  0.0245 -1.0939 -0.5510
  141DOPC   C1316625   4.249   3.536   7.321 -0.1432 -0.2475 -0.0030
  141DOPC  H13A16626   4.284   3.632   7.354 -1.4162  0.2319  0.0106
  141DOPC  H13B16627   4.275   3.518   7.217 -1.0588 -2.5805  0.0936
  141DOPC  H13C16628   4.143   3.525   7.338  0.0032 -1.4807  0.2051
  141DOPC   C1416629   4.465   3.474   7.383 -0.1786 -1.0672 -0.1686
  141DOPC  H14A16630   4.529   3.396   7.421  0.2468 -1.0273 -0.7842
  141DOPC  H14B16631   4.491   3.487   7.279 -0.3992  0.7726 -0.0206
  141DOPC  H14C16632   4.495   3.568   7.426 -1.7134 -0.5284 -0.2056
  141DOPC   C1516633   4.289   3.474   7.540  0.2111  0.4853  0.4897
  141DOPC  H15A16634   4.181   3.478   7.548 -0.1024 -0.2872 -2.3214
  141DOPC  H15B16635   4.329   3.572   7.561 -0.4132  0.9352 -0.3568
  141DOPC  H15C16636   4.338   3.404   7.606 -1.0163 -1.3242 -0.4408
  141DOPC   C1116637   4.322   3.239   7.234  0.2791  0.1116 -0.1781
  141DOPC  H11A16638   4.269   3.142   7.231 -0.3233  0.4101  0.5665
  141DOPC  H11B16639   4.282   3.306   7.155 -2.4576  1.2600  2.0126
  141DOPC     P16640   4.526   3.095   7.284 -0.2740  0.2443  0.1877
  141DOPC   O1316641   4.482   3.071   7.422  0.0865  0.3005 -0.2159
  141DOPC   O1416642   4.674   3.102   7.269 -0.0337 -0.5670  0.3355
  141DOPC   O1216643   4.464   3.223   7.220  0.1124 -0.4768  0.3059
  141DOPC   O1116644   4.470   2.986   7.180  0.8149 -0.1324 -1.0682
  141DOPC    C116645   4.530   2.972   7.047  0.7360 -0.0558  0.3046
  141DOPC    HA16646   4.487   2.876   7.010 -0.1293  0.7200 -0.7581
  141DOPC    HB16647   4.639   2.953   7.054  0.4564 -1.2284  2.0361
  141DOPC    C216648   4.501   3.078   6.938  0.5575 -0.3649  1.0409
  141DOPC    HS16649   4.497   3.179   6.984 -1.8259 -1.8532  4.5381
  141DOPC   O2116650   4.364   3.048   6.887  0.2105  0.2144  0.3653
  141DOPC   C2116651   4.306   3.158   6.837  0.3703  0.6282 -0.3541
  141DOPC   O2216652   4.353   3.269   6.833 -0.1708  0.1116  0.3144
  141DOPC   C2216653   4.170   3.118   6.790  0.4442  0.4382 -0.0756
  141DOPC   H2R16654   4.121   3.206   6.742 -0.4115 -0.0646 -0.1529
  141DOPC   H2S16655   4.105   3.091   6.876  0.7406  1.1125  0.3721
  141DOPC    C316656   4.611   3.065   6.825  0.0722  0.2710  0.8593
  141DOPC    HX16657   4.709   3.083   6.874 -0.8805  0.0587  2.9408
  141DOPC    HY16658   4.591   3.153   6.759  1.6450  0.2815  0.3468
  141DOPC   O3116659   4.628   2.941   6.760  0.6307  0.4940  0.0678
  141DOPC   C3116660   4.567   2.934   6.638 -0.5579  0.1521  0.7762
  141DOPC   O3216661   4.505   3.028   6.592 -0.4989  0.2244  0.1157
  141DOPC   C3216662   4.589   2.798   6.574  0.0870  0.0481 -0.3263
  141DOPC   H2X16663   4.692   2.796   6.533  0.7559 -0.4336  1.2759
  141DOPC   H2Y16664   4.578   2.733   6.664  2.7468  1.0952  0.8658
  141DOPC   C2316665   4.169   2.997   6.687  0.0355 -0.0804 -1.1245
  141DOPC   H3R16666   4.194   2.899   6.733 -0.5423 -0.5117 -1.6855
  141DOPC   H3S16667   4.239   3.022   6.604  1.0060  1.3292  0.0812
  141DOPC   C2416668   4.034   2.976   6.617  0.2015 -0.0702 -0.6652
  141DOPC   H4R16669   3.946   2.988   6.685  0.0741 -1.9138 -0.4506
  141DOPC   H4S16670   4.016   2.871   6.585 -2.5912  0.4284 -1.0509
  141DOPC   C2516671   4.015   3.066   6.492 -0.7775 -0.4217 -0.2988
  141DOPC   H5R16672   4.102   3.055   6.425  0.2621  1.5402  0.6593
  141DOPC   H5S16673   4.016   3.174   6.518 -0.0159 -0.9062  1.9045
  141DOPC   C2616674   3.894   3.039   6.405  0.4310 -0.5342 -0.5063
  141DOPC   H6R16675   3.878   3.129   6.343  0.9827 -0.4173 -0.4871
  141DOPC   H6S16676   3.808   3.019   6.471  1.1622 -0.4042  0.5014
  141DOPC   C2716677   3.903   2.923   6.298  0.4250 -0.6727 -0.4733
  141DOPC   H7R16678   3.806   2.921   6.243 -0.1431  0.9683  0.3953
  141DOPC   H7S16679   3.898   2.828   6.356 -1.4788 -0.8012 -0.7718
  141DOPC   C2816680   4.024   2.919   6.202  0.3237  0.4957 -0.8440
  141DOPC   H8R16681   4.003   2.831   6.137 -0.2716  1.4325 -1.9684
  141DOPC   H8S16682   4.119   2.901   6.256  0.4305 -0.5498 -1.3431
  141DOPC   C2916683   4.043   3.040   6.116  0.5144  0.9570 -0.4930
  141DOPC   H9R16684   4.113   3.118   6.149 -0.2786  1.9059 -0.9913
  141DOPC  C21016685   4.001   3.053   5.991  0.5837  0.1442  0.0097
  141DOPC  H10R16686   4.024   3.150   5.945  0.1309 -0.3317 -1.2521
  141DOPC  C21116687   3.923   2.953   5.905 -0.1621 -0.6411 -0.7917
  141DOPC  H11R16688   3.852   3.012   5.843  1.7889  0.0302 -2.4602
  141DOPC  H11S16689   3.862   2.877   5.959 -3.1321  0.5835 -2.2135
  141DOPC  C21216690   4.034   2.888   5.820  0.0103  0.0455  0.3002
  141DOPC  H12R16691   3.991   2.789   5.793 -0.8993  0.0262  1.7244
  141DOPC  H12S16692   4.128   2.866   5.875 -0.0858  1.6673  1.1671
  141DOPC  C21316693   4.079   2.984   5.710  0.5667 -0.1680  0.1925
  141DOPC  H13R16694   4.101   3.079   5.763  2.4813 -2.1563  3.2589
  141DOPC  H13S16695   4.001   2.998   5.632  0.3214 -0.4938  0.3785
  141DOPC  C21416696   4.202   2.942   5.629 -0.2695  0.0560  0.1155
  141DOPC  H14R16697   4.294   2.929   5.689 -0.9139 -4.0900  0.4972
  141DOPC  H14S16698   4.228   3.024   5.558  0.8053  0.1649  0.6156
  141DOPC  C21516699   4.173   2.824   5.536 -0.7368  0.4797  0.1832
  141DOPC  H15R16700   4.071   2.833   5.492  0.8157 -1.5255 -4.3319
  141DOPC  H15S16701   4.166   2.737   5.606 -2.0831 -0.6380 -1.2758
  141DOPC  C21616702   4.270   2.803   5.425  0.0807  0.2255 -0.4830
  141DOPC  H16R16703   4.375   2.803   5.461 -0.5237 -0.4637  1.3877
  141DOPC  H16S16704   4.262   2.890   5.356 -1.7280  0.6416  0.1952
  141DOPC  C21716705   4.253   2.678   5.348  0.3551 -1.0023  0.9171
  141DOPC  H17R16706   4.151   2.679   5.304  0.1948  2.0127  1.1780
  141DOPC  H17S16707   4.266   2.586   5.409 -0.7931 -1.9761 -0.2415
  141DOPC  C21816708   4.374   2.669   5.251  0.6555 -0.6919 -0.3512
  141DOPC  H18R16709   4.349   2.585   5.182 -0.7525  0.1499 -0.9115
  141DOPC  H18S16710   4.470   2.644   5.301 -0.1383 -1.1765  0.9847
  141DOPC  H18T16711   4.394   2.765   5.199  0.6458  1.1172  2.7320
  141DOPC   C3316712   4.489   2.773   6.463  0.0780  0.1597  0.4418
  141DOPC   H3X16713   4.468   2.851   6.387 -1.4802 -2.0813 -1.6078
  141DOPC   H3Y16714   4.392   2.761   6.516 -0.2558  2.2615  0.4049
  141DOPC   C3416715   4.512   2.645   6.385  0.3880 -0.7046 -0.5591
  141DOPC   H4X16716   4.509   2.563   6.460  0.4852 -0.4657 -0.2948
  141DOPC   H4Y16717   4.619   2.659   6.356  0.3101 -0.3688 -0.6864
  141DOPC   C3516718   4.422   2.616   6.263  0.1527 -0.6143  0.2491
  141DOPC   H5X16719   4.317   2.626   6.297  0.3863  0.0505  0.7991
  141DOPC   H5Y16720   4.441   2.510   6.236  0.9655 -0.5539  0.5276
  141DOPC   C3616721   4.459   2.695   6.140 -0.0498 -1.2324 -0.0605
  141DOPC   H6X16722   4.462   2.804   6.160  1.6845 -1.4032  0.7808
  141DOPC   H6Y16723   4.563   2.670   6.111  0.8858  1.2184  0.8645
  141DOPC   C3716724   4.368   2.661   6.019 -0.7271 -0.4456 -0.2132
  141DOPC   H7X16725   4.360   2.551   6.014 -0.5508 -0.4707  0.0834
  141DOPC   H7Y16726   4.267   2.707   6.028 -0.6221 -0.3022  0.2377
  141DOPC   C3816727   4.435   2.712   5.889  1.0470 -0.0937 -0.2405
  141DOPC   H8X16728   4.546   2.715   5.892  1.0313  1.8025 -0.3179
  141DOPC   H8Y16729   4.400   2.815   5.867 -0.5750 -0.2464  1.3622
  141DOPC   C3916730   4.374   2.630   5.778  0.5380  0.5491 -0.6733
  141DOPC   H9X16731   4.264   2.636   5.774  0.3708 -2.0406 -1.8019
  141DOPC  C31016732   4.445   2.575   5.678 -0.9212 -0.5117  0.2658
  141DOPC  H10X16733   4.396   2.527   5.593 -2.2601 -1.2872  1.4325
  141DOPC  C31116734   4.592   2.594   5.672 -0.6605  0.2615  0.0186
  141DOPC  H11X16735   4.633   2.515   5.738  0.2675 -0.1558 -1.0201
  141DOPC  H11Y16736   4.631   2.695   5.696  1.3578 -0.7468  1.1946
  141DOPC  C31216737   4.654   2.548   5.532 -0.0728  0.0563 -0.3999
  141DOPC  H12X16738   4.626   2.622   5.454 -1.3864 -0.2360 -0.2381
  141DOPC  H12Y16739   4.613   2.448   5.506 -1.3542  0.4103  0.1926
  141DOPC  C31316740   4.806   2.527   5.551 -0.3686  0.0746  0.0410
  141DOPC  H13X16741   4.843   2.618   5.604 -1.0840  0.3578  0.0651
  141DOPC  H13Y16742   4.831   2.448   5.625  1.8856  1.3423  0.7386
  141DOPC  C31416743   4.886   2.497   5.425  0.4088  0.0976  0.6882
  141DOPC  H14X16744   4.842   2.406   5.378 -1.6177  1.1819  0.3681
  141DOPC  H14Y16745   4.878   2.574   5.345  0.9779 -1.6386 -1.1189
  141DOPC  C31516746   5.035   2.474   5.455 -0.7197 -0.4360  0.0449
  141DOPC  H15X16747   5.043   2.374   5.503 -1.7093 -2.3377 -3.4102
  141DOPC  H15Y16748   5.069   2.561   5.515 -3.1540 -1.1794  2.7121
  141DOPC  C31616749   5.123   2.462   5.323 -0.4452  0.4343  0.3054
  141DOPC  H16X16750   5.080   2.385   5.255  1.7676  0.1373 -0.8365
  141DOPC  H16Y16751   5.122   2.563   5.277 -0.9026 -0.4026 -1.6393
  141DOPC  C31716752   5.270   2.422   5.335  1.0029  0.1438 -0.6096
  141DOPC  H17X16753   5.321   2.499   5.397 -0.9286  1.7346 -0.9292
  141DOPC  H17Y16754   5.278   2.320   5.379  1.2249  0.4859  0.1659
  141DOPC  C31816755   5.343   2.422   5.204  0.0171  0.4610 -0.0699
  141DOPC  H18X16756   5.354   2.526   5.167 -2.3774 -0.2736 -3.2922
  141DOPC  H18Y16757   5.443   2.373   5.208 -0.5991 -1.4720 -3.6712
  141DOPC  H18Z16758   5.285   2.361   5.131 -2.3780 -0.0614  2.1454
  142DOPC     N16759   4.710   4.232   7.619  0.5982 -0.1330  0.2386
  142DOPC   C1216760   4.620   4.358   7.610 -0.7460  0.2799  0.5407
  142DOPC  H12A16761   4.684   4.441   7.584 -0.4537  0.0502  0.5290
  142DOPC  H12B16762   4.582   4.378   7.709 -0.4488  1.1474  0.4896
  142DOPC   C1316763   4.784   4.238   7.750  0.4934  0.4430 -0.3249
  142DOPC  H13A16764   4.716   4.249   7.833 -3.1052  1.4646 -3.1349
  142DOPC  H13B16765   4.845   4.149   7.760 -0.2442 -0.3843 -2.5348
  142DOPC  H13C16766   4.855   4.319   7.761 -0.7653  1.8614 -2.0462
  142DOPC   C1416767   4.813   4.240   7.506 -0.4637  0.0435  0.0187
  142DOPC  H14A16768   4.759   4.270   7.418 -0.1855 -1.8979 -0.8536
  142DOPC  H14B16769   4.882   4.323   7.517 -3.1818  2.5980 -1.0967
  142DOPC  H14C16770   4.857   4.143   7.488  0.5698 -0.0345  2.5254
  142DOPC   C1516771   4.634   4.103   7.618  0.4175 -0.1657 -0.3049
  142DOPC  H15A16772   4.692   4.019   7.653  2.1076  1.3877  0.8325
  142DOPC  H15B16773   4.603   4.086   7.516  0.3200 -2.5488  0.0769
  142DOPC  H15C16774   4.550   4.111   7.685  0.9267  0.9489  0.2357
  142DOPC   C1116775   4.504   4.355   7.499 -0.5752  0.5458 -0.6284
  142DOPC  H11A16776   4.436   4.274   7.533 -0.1426  0.2907 -0.3575
  142DOPC  H11B16777   4.453   4.454   7.501  0.3899  1.0484  0.3787
  142DOPC     P16778   4.583   4.420   7.261  0.6432 -0.2304  0.4522
  142DOPC   O1316779   4.600   4.557   7.316 -0.1334 -0.3386  0.2326
  142DOPC   O1416780   4.487   4.402   7.147 -0.0977 -0.4394 -0.1454
  142DOPC   O1216781   4.557   4.316   7.375  0.0129 -0.1535 -0.3065
  142DOPC   O1116782   4.722   4.374   7.227 -0.9229 -0.6483 -0.1799
  142DOPC    C116783   4.792   4.425   7.111 -0.0458  0.4418 -0.0817
  142DOPC    HA16784   4.895   4.450   7.144 -0.2253  0.6039  0.3662
  142DOPC    HB16785   4.741   4.512   7.065 -0.1036 -0.7501 -2.4211
  142DOPC    C216786   4.811   4.313   7.003  0.4227  0.3770  0.3650
  142DOPC    HS16787   4.878   4.356   6.926  1.7284 -1.8466  0.1495
  142DOPC   O2116788   4.680   4.276   6.944  0.3435  0.2940  0.7258
  142DOPC   C2116789   4.637   4.358   6.854 -0.1741  0.1269 -0.2646
  142DOPC   O2216790   4.701   4.451   6.801  0.3695  0.0169  0.1145
  142DOPC   C2216791   4.487   4.328   6.815 -1.1614 -0.1623  0.8467
  142DOPC   H2R16792   4.475   4.396   6.728  0.4552 -1.1199 -0.1809
  142DOPC   H2S16793   4.431   4.374   6.899 -2.0183 -0.5361  0.4899
  142DOPC    C316794   4.882   4.185   7.056  0.5106  0.4605  0.1272
  142DOPC    HX16795   4.819   4.139   7.136 -0.2767  0.6760 -0.3609
  142DOPC    HY16796   4.981   4.205   7.103  2.1059  0.2303 -2.9048
  142DOPC   O3116797   4.902   4.091   6.951  0.5821 -0.3023 -0.5363
  142DOPC   C3116798   4.836   3.973   6.954 -0.0106  0.4888  0.2538
  142DOPC   O3216799   4.770   3.927   7.045 -0.1395 -0.0001 -0.0434
  142DOPC   C3216800   4.844   3.907   6.815  0.3308 -0.3507  0.3352
  142DOPC   H2X16801   4.856   3.798   6.833  0.9140 -0.7123 -2.0060
  142DOPC   H2Y16802   4.751   3.923   6.757  0.1614 -0.9851  0.4207
  142DOPC   C2316803   4.439   4.182   6.806  0.5674 -0.0780 -0.1545
  142DOPC   H3R16804   4.332   4.186   6.776 -0.0825  1.9128  2.1309
  142DOPC   H3S16805   4.449   4.138   6.907  1.0208  1.8983  0.6954
  142DOPC   C2416806   4.511   4.092   6.702  0.4752  0.1000 -0.1637
  142DOPC   H4R16807   4.621   4.108   6.702  0.6338 -0.7491 -1.9701
  142DOPC   H4S16808   4.483   4.139   6.606 -1.5152  0.6677  0.6284
  142DOPC   C2516809   4.472   3.946   6.714  0.6700  0.4122 -0.3722
  142DOPC   H5R16810   4.362   3.940   6.703  0.6860  0.6924 -0.6831
  142DOPC   H5S16811   4.498   3.898   6.811 -0.5170 -0.1475 -0.3096
  142DOPC   C2616812   4.523   3.870   6.593 -0.0447 -0.0609 -0.4503
  142DOPC   H6R16813   4.630   3.897   6.588  0.1682  0.4404  3.6335
  142DOPC   H6S16814   4.482   3.920   6.503  3.5579  2.6533 -0.8021
  142DOPC   C2716815   4.511   3.716   6.601 -0.7666 -0.6175 -0.0865
  142DOPC   H7R16816   4.539   3.680   6.703 -0.0762 -1.5912 -0.6009
  142DOPC   H7S16817   4.589   3.678   6.532  1.1547  1.3195  0.9155
  142DOPC   C2816818   4.375   3.662   6.557 -0.1061 -0.3070  0.8064
  142DOPC   H8R16819   4.364   3.667   6.447 -2.3788  0.1025  1.0069
  142DOPC   H8S16820   4.303   3.732   6.604  0.0326  1.1788 -1.0992
  142DOPC   C2916821   4.362   3.523   6.601 -0.7565 -0.0058 -0.5689
  142DOPC   H9R16822   4.373   3.520   6.711 -1.8045  1.5527 -0.3798
  142DOPC  C21016823   4.343   3.405   6.534  0.8556 -0.0142  0.1204
  142DOPC  H10R16824   4.366   3.306   6.576  4.2969  0.6945  0.1400
  142DOPC  C21116825   4.307   3.409   6.386 -0.4605  0.5102  0.3302
  142DOPC  H11R16826   4.343   3.496   6.328 -3.5511  1.1261 -0.8533
  142DOPC  H11S16827   4.197   3.406   6.371 -0.2346  0.5786 -1.6881
  142DOPC  C21216828   4.367   3.287   6.313  0.3370 -0.5213 -0.1821
  142DOPC  H12R16829   4.318   3.194   6.347  1.1835 -1.1895 -0.7448
  142DOPC  H12S16830   4.476   3.271   6.330  0.4913  0.7861  0.1907
  142DOPC  C21316831   4.357   3.291   6.160 -0.0379 -0.7867  0.1370
  142DOPC  H13R16832   4.399   3.386   6.119 -1.2886 -1.0102 -1.7619
  142DOPC  H13S16833   4.250   3.300   6.133 -0.0555 -2.1188 -0.2932
  142DOPC  C21416834   4.432   3.172   6.095 -0.0571 -0.6362 -0.3684
  142DOPC  H14R16835   4.362   3.087   6.111  0.0076 -0.7906 -0.8880
  142DOPC  H14S16836   4.526   3.148   6.150 -1.0836 -2.0724  0.8563
  142DOPC  C21516837   4.447   3.202   5.942  0.6575  0.9275  0.2806
  142DOPC  H15R16838   4.495   3.302   5.937  0.9996  0.7553  0.0737
  142DOPC  H15S16839   4.345   3.209   5.896  1.0324  0.3706 -0.6759
  142DOPC  C21616840   4.539   3.107   5.862 -0.3268  0.8244 -0.0435
  142DOPC  H16R16841   4.478   3.015   5.849 -0.7681  0.6423  2.6910
  142DOPC  H16S16842   4.633   3.092   5.919 -0.0474 -1.2764 -0.9784
  142DOPC  C21716843   4.567   3.178   5.729  0.5677  0.2193 -0.2448
  142DOPC  H17R16844   4.669   3.155   5.693  0.5936 -0.1845  0.0826
  142DOPC  H17S16845   4.572   3.288   5.745  0.6262  0.0298  1.1443
  142DOPC  C21816846   4.481   3.147   5.604 -0.0365 -0.5724 -0.5425
  142DOPC  H18R16847   4.373   3.166   5.625  0.0856 -1.3171  0.9543
  142DOPC  H18S16848   4.496   3.038   5.586 -0.0223 -0.6007 -0.3690
  142DOPC  H18T16849   4.522   3.208   5.522  0.0797  0.7316  0.4473
  142DOPC   C3316850   4.961   3.959   6.730 -0.2868 -0.2173 -0.7548
  142DOPC   H3X16851   5.059   3.949   6.782 -1.9005 -1.0623  2.3541
  142DOPC   H3Y16852   4.943   4.066   6.707  1.7740  0.2793 -0.2362
  142DOPC   C3416853   4.970   3.884   6.601 -0.3644  0.7305  0.6605
  142DOPC   H4X16854   4.870   3.863   6.557  1.1289 -3.2762 -1.2839
  142DOPC   H4Y16855   5.029   3.790   6.604  1.3506  1.7815  2.2560
  142DOPC   C3516856   5.033   3.971   6.495 -0.0078  0.8962  0.6713
  142DOPC   H5X16857   5.139   3.997   6.517  0.3704  0.0950 -0.1250
  142DOPC   H5Y16858   4.972   4.062   6.478 -1.0189  0.0791 -0.2500
  142DOPC   C3616859   5.021   3.899   6.360 -0.6967 -0.1094 -0.5440
  142DOPC   H6X16860   5.068   3.799   6.377  0.3825  0.7274  1.8658
  142DOPC   H6Y16861   4.917   3.872   6.333 -1.1105 -1.2169  1.8910
  142DOPC   C3716862   5.096   3.967   6.243  0.0226 -0.9633  0.3504
  142DOPC   H7X16863   5.084   4.076   6.257  1.8431 -0.3411 -2.1685
  142DOPC   H7Y16864   5.201   3.932   6.250  0.7879  1.0531 -0.5035
  142DOPC   C3816865   5.030   3.924   6.109  0.9795 -0.7876  0.5032
  142DOPC   H8X16866   5.061   3.989   6.025 -4.2357  1.1805 -0.3057
  142DOPC   H8Y16867   4.921   3.941   6.120  0.6641 -0.5785 -2.1655
  142DOPC   C3916868   5.059   3.782   6.079 -0.1459 -0.5741 -0.0553
  142DOPC   H9X16869   4.986   3.708   6.116  0.6307 -0.9603  0.7195
  142DOPC  C31016870   5.171   3.727   6.022 -0.0709  0.1565 -0.2914
  142DOPC  H10X16871   5.170   3.618   6.004 -2.0316  0.0344  0.3549
  142DOPC  C31116872   5.296   3.807   5.991  0.4135 -0.1034  0.1414
  142DOPC  H11X16873   5.390   3.747   5.991 -0.5625 -1.7803  1.7905
  142DOPC  H11Y16874   5.308   3.892   6.062  0.1026  0.4744 -0.5011
  142DOPC  C31216875   5.274   3.868   5.849 -0.8522  0.0181 -0.1179
  142DOPC  H12X16876   5.171   3.904   5.829 -0.3200  0.0564 -3.3209
  142DOPC  H12Y16877   5.291   3.796   5.766 -0.6851  1.8211 -1.7000
  142DOPC  C31316878   5.383   3.974   5.840  0.1111 -0.0095 -0.1879
  142DOPC  H13X16879   5.374   4.034   5.934  0.0026  0.9748 -0.8105
  142DOPC  H13Y16880   5.485   3.933   5.855  1.0519  2.2983  0.1313
  142DOPC  C31416881   5.360   4.067   5.726 -0.6256 -0.1980  1.0435
  142DOPC  H14X16882   5.317   4.014   5.638  1.2385  0.5845 -0.4323
  142DOPC  H14Y16883   5.296   4.155   5.748  0.3236  0.3092  1.8503
  142DOPC  C31516884   5.495   4.121   5.676 -0.3082  0.1403  0.4810
  142DOPC  H15X16885   5.564   4.036   5.657 -1.8265 -0.6149 -2.3750
  142DOPC  H15Y16886   5.531   4.184   5.759 -0.1532  0.7716 -0.0562
  142DOPC  C31616887   5.485   4.219   5.554  0.2291 -0.2712 -0.5014
  142DOPC  H16X16888   5.411   4.297   5.583 -2.1908 -1.5926 -2.6485
  142DOPC  H16Y16889   5.585   4.267   5.547  1.1586 -0.8209  4.6836
  142DOPC  C31716890   5.442   4.164   5.419 -0.4287 -0.3542 -0.1677
  142DOPC  H17X16891   5.491   4.069   5.390  1.8629  0.4257  0.9541
  142DOPC  H17Y16892   5.332   4.146   5.413 -0.8110  1.8736 -0.5511
  142DOPC  C31816893   5.462   4.270   5.298 -0.1359  0.1776  0.5339
  142DOPC  H18X16894   5.421   4.231   5.203 -2.3702  1.3303  0.9707
  142DOPC  H18Y16895   5.410   4.366   5.314  0.1801  1.0893 -3.0611
  142DOPC  H18Z16896   5.569   4.290   5.274 -1.4334  4.2118 -2.8865
  143DOPC     N16897   2.026   2.617   7.396  0.2814  0.2690  0.1901
  143DOPC   C1216898   1.935   2.628   7.274  0.0259 -0.1843 -0.3011
  143DOPC  H12A16899   1.845   2.680   7.305  1.5986  2.4391  0.1991
  143DOPC  H12B16900   1.911   2.527   7.245  0.1117  0.1356 -1.5203
  143DOPC   C1316901   2.082   2.752   7.425  0.3128 -0.2880 -0.1067
  143DOPC  H13A16902   2.120   2.800   7.336  0.2372  0.1372  0.0887
  143DOPC  H13B16903   1.999   2.811   7.460 -1.5821 -2.1542 -1.2114
  143DOPC  H13C16904   2.170   2.751   7.488  0.2349  1.2814  0.0763
  143DOPC   C1416905   2.138   2.516   7.365 -0.0895 -0.1409 -0.3858
  143DOPC  H14A16906   2.218   2.565   7.311 -0.6036  1.8885  0.5889
  143DOPC  H14B16907   2.181   2.487   7.459  0.5048 -0.6196 -0.7937
  143DOPC  H14C16908   2.101   2.434   7.305  0.5850 -1.0800  0.4433
  143DOPC   C1516909   1.948   2.553   7.517  0.0599  0.7091 -0.4710
  143DOPC  H15A16910   1.922   2.452   7.491 -0.2521  0.7356 -0.2705
  143DOPC  H15B16911   1.851   2.598   7.533  0.4469  0.9835  1.2951
  143DOPC  H15C16912   2.005   2.558   7.609  0.4102 -1.0849 -0.5571
  143DOPC   C1116913   1.987   2.714   7.157 -0.4222  0.5330  0.9330
  143DOPC  H11A16914   1.926   2.707   7.065 -0.2061  0.3713  0.8014
  143DOPC  H11B16915   1.991   2.822   7.183  3.3789  0.9541 -0.7591
  143DOPC     P16916   2.223   2.777   7.061  0.6319  0.1349 -0.0125
  143DOPC   O1316917   2.323   2.712   6.978  0.0046  0.0344 -0.3633
  143DOPC   O1416918   2.268   2.847   7.184 -0.6292  0.4369  0.1771
  143DOPC   O1216919   2.113   2.673   7.114 -0.1185  0.4999  0.2773
  143DOPC   O1116920   2.149   2.878   6.976  0.1662 -0.2362  0.0220
  143DOPC    C116921   2.064   2.844   6.862  0.4234 -0.0560  0.5618
  143DOPC    HA16922   1.961   2.818   6.894  0.4783 -3.6201 -1.5547
  143DOPC    HB16923   2.106   2.749   6.820  0.3527  0.7642 -1.5022
  143DOPC    C216924   2.075   2.950   6.751 -0.0091 -0.2967  0.2057
  143DOPC    HS16925   2.019   3.043   6.775 -0.5575 -1.0320  1.8671
  143DOPC   O2116926   2.039   2.897   6.627 -0.3502  0.6038  0.0567
  143DOPC   C2116927   1.910   2.916   6.597 -0.3706  0.1088 -0.5798
  143DOPC   O2216928   1.823   2.961   6.667 -0.2260  0.0640 -0.0075
  143DOPC   C2216929   1.891   2.897   6.452  0.7875  0.3995 -0.2642
  143DOPC   H2R16930   1.928   2.793   6.435 -0.4404 -0.2577  0.9440
  143DOPC   H2S16931   1.955   2.973   6.401  2.0086  0.4616  1.2643
  143DOPC    C316932   2.233   2.995   6.737 -0.2208  0.5337 -0.2598
  143DOPC    HX16933   2.287   2.898   6.743 -3.3268 -1.2932  0.9120
  143DOPC    HY16934   2.257   3.045   6.834  1.3096 -0.8693  0.1335
  143DOPC   O3116935   2.263   3.061   6.612  0.1349 -0.0713  0.2015
  143DOPC   C3116936   2.205   3.173   6.580  0.0897 -0.4041 -0.3610
  143DOPC   O3216937   2.112   3.229   6.633 -0.1088  0.4904 -0.4585
  143DOPC   C3216938   2.277   3.218   6.444  0.5071 -0.2074 -0.5101
  143DOPC   H2X16939   2.272   3.328   6.458  0.0165 -0.4272  1.2951
  143DOPC   H2Y16940   2.382   3.182   6.452  0.4001 -0.3655  0.3358
  143DOPC   C2316941   1.754   2.923   6.385  0.0318 -0.4058 -0.9539
  143DOPC   H3R16942   1.683   2.982   6.447 -0.2302 -0.8305 -0.8397
  143DOPC   H3S16943   1.701   2.825   6.382  1.7442 -1.4683  0.8284
  143DOPC   C2416944   1.757   2.997   6.245  0.0434 -0.7298 -0.6628
  143DOPC   H4R16945   1.809   3.093   6.266 -0.9754 -0.2321 -0.3973
  143DOPC   H4S16946   1.651   3.026   6.235 -0.3274 -1.3149  1.1105
  143DOPC   C2516947   1.810   2.917   6.127 -0.1768  0.0100  0.1645
  143DOPC   H5R16948   1.736   2.838   6.100 -1.8788  2.4579 -2.9617
  143DOPC   H5S16949   1.914   2.882   6.147 -1.0026 -3.0892 -0.4423
  143DOPC   C2616950   1.802   3.019   6.011 -0.3789  0.6119  0.3427
  143DOPC   H6R16951   1.837   3.117   6.049 -1.9837  1.8851 -1.3233
  143DOPC   H6S16952   1.705   3.048   5.966  0.5663  0.7978 -1.6614
  143DOPC   C2716953   1.904   2.979   5.904  0.4110  0.4423  1.0847
  143DOPC   H7R16954   1.999   2.967   5.959  0.6144  2.4864  1.2438
  143DOPC   H7S16955   1.920   3.059   5.829  1.5612 -0.5607  0.2337
  143DOPC   C2816956   1.860   2.853   5.829  0.0888  0.1829 -0.5339
  143DOPC   H8R16957   1.864   2.774   5.907  2.0120 -0.4289 -1.2092
  143DOPC   H8S16958   1.936   2.831   5.752  1.9021 -0.1221  1.2626
  143DOPC   C2916959   1.723   2.859   5.763  0.9463 -0.1941 -0.0530
  143DOPC   H9R16960   1.641   2.904   5.821  1.0134  0.8195 -0.7100
  143DOPC  C21016961   1.695   2.820   5.641 -0.0767  0.3221 -0.3683
  143DOPC  H10R16962   1.594   2.836   5.599 -0.3195  1.6877  0.6743
  143DOPC  C21116963   1.795   2.771   5.539  0.0160  0.4063 -0.1215
  143DOPC  H11R16964   1.814   2.662   5.548  1.5384  0.6018 -0.6443
  143DOPC  H11S16965   1.892   2.823   5.554 -0.0364  0.7178 -0.8030
  143DOPC  C21216966   1.745   2.782   5.392 -0.2470  0.3114  0.3876
  143DOPC  H12R16967   1.647   2.730   5.379  0.4496 -1.0435  0.3542
  143DOPC  H12S16968   1.811   2.729   5.321 -0.2467  0.8336 -0.0041
  143DOPC  C21316969   1.759   2.924   5.342 -0.3712  0.0413 -0.0404
  143DOPC  H13R16970   1.865   2.951   5.360 -0.3875  0.7989 -0.9827
  143DOPC  H13S16971   1.702   3.009   5.386 -0.3863 -0.2360  0.4877
  143DOPC  C21416972   1.737   2.931   5.189  0.1971  0.2027 -0.3443
  143DOPC  H14R16973   1.629   2.915   5.169  0.0360  3.0789 -2.5367
  143DOPC  H14S16974   1.793   2.848   5.141  0.9696  0.1657  0.6011
  143DOPC  C21516975   1.774   3.064   5.120  0.6083 -0.1590  0.3977
  143DOPC  H15R16976   1.779   3.039   5.012 -0.7020 -0.8283  0.4693
  143DOPC  H15S16977   1.876   3.090   5.155  0.8789 -0.0121 -0.4872
  143DOPC  C21616978   1.664   3.175   5.129  0.6344  0.3815  0.3879
  143DOPC  H16R16979   1.706   3.276   5.110 -2.1893  1.5256 -0.2704
  143DOPC  H16S16980   1.623   3.177   5.232 -2.6217 -1.7034 -0.7130
  143DOPC  C21716981   1.543   3.162   5.031 -0.6293 -0.0900 -0.7041
  143DOPC  H17R16982   1.504   3.059   5.040 -1.1139  0.2639  1.9742
  143DOPC  H17S16983   1.580   3.192   4.931  2.0883  0.1303  0.2649
  143DOPC  C21816984   1.432   3.266   5.064 -0.0596 -1.6442 -0.5834
  143DOPC  H18R16985   1.399   3.243   5.167 -0.5959 -2.9793 -1.0333
  143DOPC  H18S16986   1.342   3.257   5.000 -1.1584 -3.9895  1.1389
  143DOPC  H18T16987   1.468   3.370   5.054  0.1976 -1.9509 -5.5529
  143DOPC   C3316988   2.218   3.168   6.310 -0.0442 -0.0315  0.3758
  143DOPC   H3X16989   2.113   3.202   6.292 -0.9905 -2.6658  0.4543
  143DOPC   H3Y16990   2.210   3.057   6.315 -2.1760  0.0057 -0.9041
  143DOPC   C3416991   2.299   3.205   6.189 -0.7952  0.3107  0.2293
  143DOPC   H4X16992   2.394   3.148   6.201 -1.1849  0.0466  2.2322
  143DOPC   H4Y16993   2.340   3.308   6.192 -0.1276  0.0470  0.3430
  143DOPC   C3516994   2.223   3.183   6.060  0.3854 -0.0922  0.4466
  143DOPC   H5X16995   2.149   3.265   6.055  0.3897 -0.1515 -1.1136
  143DOPC   H5Y16996   2.170   3.086   6.075 -1.8706  1.3702  2.5793
  143DOPC   C3616997   2.311   3.174   5.936  0.5872  0.0498  0.7377
  143DOPC   H6X16998   2.395   3.246   5.938  0.7670 -0.1225 -0.1795
  143DOPC   H6Y16999   2.361   3.075   5.939  2.2228  0.7086 -1.8586
  143DOPC   C3717000   2.228   3.197   5.813 -0.1247 -0.0816  0.1099
  143DOPC   H7X17001   2.134   3.253   5.832  1.8290  3.7033 -0.4577
  143DOPC   H7Y17002   2.289   3.262   5.746 -0.2863  1.4611  1.4078
  143DOPC   C3817003   2.201   3.065   5.730  0.8930 -0.3655  0.4720
  143DOPC   H8X17004   2.147   3.007   5.808 -0.1662 -1.6383 -1.1412
  143DOPC   H8Y17005   2.290   3.008   5.693 -0.7489 -1.6986 -1.6496
  143DOPC   C3917006   2.102   3.077   5.623 -0.1841  0.5694  0.4266
  143DOPC   H9X17007   2.033   2.993   5.606  0.2979 -0.2697  2.3566
  143DOPC  C31017008   2.097   3.164   5.518 -0.3204  0.0865 -0.2966
  143DOPC  H10X17009   2.012   3.157   5.449  0.6530  0.5965 -1.5695
  143DOPC  C31117010   2.190   3.278   5.487  0.1652  0.5498  0.4874
  143DOPC  H11X17011   2.292   3.236   5.489 -1.3418 -3.5417  2.3037
  143DOPC  H11Y17012   2.179   3.357   5.566 -2.8874 -0.7710  1.5472
  143DOPC  C31217013   2.151   3.346   5.347  0.7697  0.0524  0.1755
  143DOPC  H12X17014   2.224   3.426   5.323  0.5886 -0.9216 -4.9513
  143DOPC  H12Y17015   2.051   3.395   5.346  2.4769  3.9686  0.5005
  143DOPC  C31317016   2.155   3.248   5.231 -0.1783 -0.0330 -0.1578
  143DOPC  H13X17017   2.244   3.184   5.245 -1.0187 -1.2949 -0.4051
  143DOPC  H13Y17018   2.064   3.184   5.231  0.2121 -0.5909 -0.3778
  143DOPC  C31417019   2.149   3.315   5.091 -0.6789 -0.1665 -0.4132
  143DOPC  H14X17020   2.231   3.389   5.100 -0.7661 -0.0644 -0.4720
  143DOPC  H14Y17021   2.165   3.238   5.012 -1.0626 -0.1270 -0.5313
  143DOPC  C31517022   2.024   3.396   5.065 -0.4376 -0.1942  0.3408
  143DOPC  H15X17023   2.010   3.476   5.142  1.0977  0.0020  0.4474
  143DOPC  H15Y17024   1.935   3.337   5.095 -0.7229 -0.1702 -0.4461
  143DOPC  C31617025   2.014   3.462   4.925  0.2179 -0.5586  0.2960
  143DOPC  H16X17026   2.110   3.506   4.891  0.0275  0.5928  1.1767
  143DOPC  H16Y17027   1.987   3.378   4.858  1.2600 -1.3378  0.8273
  143DOPC  C31717028   1.912   3.579   4.927  0.2202  0.4949 -0.0999
  143DOPC  H17X17029   1.811   3.543   4.955 -1.3612  4.3577 -0.1633
  143DOPC  H17Y17030   1.947   3.645   5.009 -3.0008  0.5696  1.3389
  143DOPC  C31817031   1.906   3.655   4.798 -0.0219 -0.1959 -0.1156
  143DOPC  H18X17032   1.994   3.720   4.781  0.7514 -1.1901 -0.0316
  143DOPC  H18Y17033   1.885   3.588   4.712  0.3355  0.1702 -0.4867
  143DOPC  H18Z17034   1.818   3.723   4.802 -0.5664 -0.5466 -3.4402
  144DOPC     N17035   3.410   1.570   7.425 -0.5297 -0.7876 -0.5137
  144DOPC   C1217036   3.509   1.643   7.330  0.5936 -0.0689 -0.1139
  144DOPC  H12A17037   3.605   1.615   7.370 -0.7645 -0.4417  3.2347
  144DOPC  H12B17038   3.497   1.746   7.357 -3.5036 -0.3307 -0.2610
  144DOPC   C1317039   3.457   1.606   7.568 -0.0404 -0.5053  0.2481
  144DOPC  H13A17040   3.553   1.567   7.600 -0.3969 -1.0263  0.7020
  144DOPC  H13B17041   3.465   1.714   7.568 -1.9994 -0.3042 -0.9910
  144DOPC  H13C17042   3.386   1.579   7.645 -0.0231  0.0870  0.4746
  144DOPC   C1417043   3.423   1.424   7.402  0.3713  0.4998  0.5220
  144DOPC  H14A17044   3.524   1.390   7.418  0.1945 -1.1473 -1.4533
  144DOPC  H14B17045   3.366   1.374   7.479 -0.0132 -1.4294 -0.9429
  144DOPC  H14C17046   3.377   1.396   7.309  1.0535  0.2329  0.2592
  144DOPC   C1517047   3.272   1.617   7.404  0.0876  0.0763 -0.3252
  144DOPC  H15A17048   3.203   1.593   7.484  0.4236  0.1681 -0.0064
  144DOPC  H15B17049   3.242   1.580   7.306  0.9708 -0.1395 -0.5245
  144DOPC  H15C17050   3.280   1.724   7.393 -0.2984  0.0342 -1.0618
  144DOPC   C1117051   3.493   1.619   7.178 -0.5379 -0.2856 -0.5953
  144DOPC  H11A17052   3.569   1.690   7.139  0.6502 -0.5020  1.2107
  144DOPC  H11B17053   3.534   1.519   7.156 -0.5569  0.0250 -2.1814
  144DOPC     P17054   3.296   1.761   7.079 -0.3140  0.3185 -0.2218
  144DOPC   O1317055   3.343   1.870   7.165  0.2297 -0.3249 -0.0767
  144DOPC   O1417056   3.152   1.737   7.072 -0.6032 -0.0327  0.2883
  144DOPC   O1217057   3.361   1.632   7.136  0.1228  0.4796  0.0571
  144DOPC   O1117058   3.363   1.769   6.936  0.1641 -0.3614  0.3551
  144DOPC    C117059   3.300   1.717   6.817 -0.7399 -0.3540  0.6884
  144DOPC    HA17060   3.210   1.658   6.842 -0.3687 -0.7856  1.0091
  144DOPC    HB17061   3.370   1.649   6.765 -1.1664  1.1408 -2.0219
  144DOPC    C217062   3.266   1.822   6.717 -0.5574  0.4025 -1.3245
  144DOPC    HS17063   3.177   1.882   6.746 -1.0442 -1.6086  1.9294
  144DOPC   O2117064   3.251   1.755   6.590  0.1786 -0.1540  0.2012
  144DOPC   C2117065   3.169   1.816   6.509  0.4783 -0.1331 -0.3486
  144DOPC   O2217066   3.096   1.910   6.534 -0.3711  0.1456 -0.7578
  144DOPC   C2217067   3.160   1.746   6.377  0.0901 -0.3228  0.1262
  144DOPC   H2R17068   3.218   1.651   6.371  0.2116 -0.1428 -2.7218
  144DOPC   H2S17069   3.210   1.820   6.312 -0.7033  0.7836  0.7522
  144DOPC    C317070   3.387   1.929   6.722  0.7226  0.0149 -0.5673
  144DOPC    HX17071   3.490   1.887   6.717  0.5505 -0.3407 -1.3031
  144DOPC    HY17072   3.381   1.995   6.812  1.2380 -1.4322  0.5717
  144DOPC   O3117073   3.378   2.015   6.603 -0.1304 -0.1693 -0.1504
  144DOPC   C3117074   3.283   2.112   6.602 -0.4260 -0.7357  0.2500
  144DOPC   O3217075   3.216   2.148   6.696  0.1306 -0.4072 -0.5259
  144DOPC   C3217076   3.292   2.197   6.474  0.5849 -0.0766 -0.3912
  144DOPC   H2X17077   3.297   2.301   6.512  2.6771 -0.1778 -0.2509
  144DOPC   H2Y17078   3.383   2.169   6.416  0.7518  1.1122 -0.7378
  144DOPC   C2317079   3.022   1.709   6.319  0.5534 -0.3001 -0.1764
  144DOPC   H3R17080   3.028   1.717   6.208  2.1471 -2.9269 -0.3717
  144DOPC   H3S17081   2.942   1.780   6.347  0.5514  0.2110 -1.4045
  144DOPC   C2417082   2.969   1.566   6.353 -0.4936  0.1056 -0.8510
  144DOPC   H4R17083   2.961   1.563   6.464  1.1437 -0.6153 -0.7191
  144DOPC   H4S17084   3.047   1.490   6.330 -2.0799 -1.1897 -2.2666
  144DOPC   C2517085   2.846   1.539   6.270 -1.2017  0.0882 -0.1829
  144DOPC   H5R17086   2.855   1.558   6.161  1.6739 -2.8128 -0.6121
  144DOPC   H5S17087   2.761   1.593   6.316 -0.8953  1.4283 -1.1199
  144DOPC   C2617088   2.796   1.399   6.277  0.0247  0.0489 -0.6853
  144DOPC   H6R17089   2.778   1.374   6.383  0.3464 -0.0557 -0.6531
  144DOPC   H6S17090   2.879   1.335   6.239  0.0955 -0.6559  0.6178
  144DOPC   C2717091   2.674   1.376   6.188  0.1917  0.6641 -0.4080
  144DOPC   H7R17092   2.702   1.408   6.085 -0.1537 -0.3841 -0.8381
  144DOPC   H7S17093   2.591   1.442   6.221 -0.2765  0.3138 -0.8698
  144DOPC   C2817094   2.630   1.233   6.196  0.3642  0.7849 -0.5579
  144DOPC   H8R17095   2.599   1.214   6.301 -0.5083  0.0308 -0.9354
  144DOPC   H8S17096   2.724   1.175   6.195 -0.4033 -0.5605  0.8137
  144DOPC   C2917097   2.525   1.183   6.099  0.1520 -0.9009 -0.1277
  144DOPC   H9R17098   2.422   1.222   6.106 -0.3585 -0.3951 -5.6704
  144DOPC  C21017099   2.534   1.099   5.998  0.1594  0.2329 -0.0092
  144DOPC  H10R17100   2.435   1.068   5.963 -0.3042  2.4801 -0.8785
  144DOPC  C21117101   2.655   1.015   5.977 -0.0265  0.5916  0.0568
  144DOPC  H11R17102   2.704   1.002   6.076 -2.5318 -1.7609  1.1284
  144DOPC  H11S17103   2.725   1.060   5.904  0.6084  1.5581  1.2241
  144DOPC  C21217104   2.613   0.874   5.937 -0.0150  0.0394  0.5252
  144DOPC  H12R17105   2.559   0.825   6.020  1.2484 -0.9481  0.8100
  144DOPC  H12S17106   2.706   0.812   5.935 -0.5638 -0.7966 -0.8692
  144DOPC  C21317107   2.537   0.851   5.803  0.0011  0.0605  0.6669
  144DOPC  H13R17108   2.584   0.911   5.721 -1.1490  0.2259  0.1173
  144DOPC  H13S17109   2.437   0.889   5.833  0.6826  0.4914  2.5320
  144DOPC  C21417110   2.524   0.707   5.763 -0.0280 -0.4091  0.0561
  144DOPC  H14R17111   2.480   0.660   5.853 -2.4520  0.9538 -0.2994
  144DOPC  H14S17112   2.618   0.649   5.756 -0.5666 -1.3344  0.2452
  144DOPC  C21517113   2.445   0.684   5.632  0.2434  0.8823 -0.2962
  144DOPC  H15R17114   2.481   0.747   5.548 -0.3039  0.5685 -0.7765
  144DOPC  H15S17115   2.337   0.708   5.644 -0.2049 -1.7020  1.6679
  144DOPC  C21617116   2.443   0.533   5.589 -0.8152  0.4313  0.2960
  144DOPC  H16R17117   2.364   0.523   5.511 -0.1882 -0.1080 -0.2817
  144DOPC  H16S17118   2.413   0.468   5.674  0.2284 -2.8049 -1.6135
  144DOPC  C21717119   2.578   0.484   5.536  0.0127 -0.2626 -0.1157
  144DOPC  H17R17120   2.644   0.500   5.625 -0.9713 -0.5732  0.6870
  144DOPC  H17S17121   2.612   0.556   5.458 -2.5816  3.2086  1.6543
  144DOPC  C21817122   2.583   0.337   5.500  0.3598  0.6474 -0.1508
  144DOPC  H18R17123   2.663   0.320   5.425 -1.1612 -3.0563 -1.2013
  144DOPC  H18S17124   2.493   0.304   5.443  0.5967  0.3744 -0.3731
  144DOPC  H18T17125   2.605   0.270   5.586 -0.5076  1.2299  0.5407
  144DOPC   C3317126   3.161   2.197   6.390 -0.1886  0.4781  0.0958
  144DOPC   H3X17127   3.079   2.243   6.449 -0.9129  0.6318 -0.9990
  144DOPC   H3Y17128   3.151   2.087   6.376  1.7996  0.0589  1.6214
  144DOPC   C3417129   3.166   2.266   6.251 -0.2197  0.3546 -0.1313
  144DOPC   H4X17130   3.266   2.249   6.206 -0.0760 -2.5751  1.0509
  144DOPC   H4Y17131   3.175   2.373   6.280  0.5525 -0.3068  2.3930
  144DOPC   C3517132   3.039   2.236   6.155  0.0165 -0.4261  0.3112
  144DOPC   H5X17133   2.945   2.256   6.210 -0.1451  1.0133 -0.4423
  144DOPC   H5Y17134   3.048   2.129   6.126  0.1537 -0.8809  1.9600
  144DOPC   C3617135   3.050   2.317   6.029 -0.5576 -0.0460  0.2737
  144DOPC   H6X17136   3.116   2.405   6.045 -1.0957  0.1674  1.4079
  144DOPC   H6Y17137   3.104   2.255   5.954  0.4960  1.7996 -0.5636
  144DOPC   C3717138   2.915   2.362   5.972 -0.0218  0.0828 -0.1214
  144DOPC   H7X17139   2.871   2.441   6.037  1.3295 -0.6767  1.7799
  144DOPC   H7Y17140   2.937   2.411   5.874 -0.8401 -1.4264 -1.1070
  144DOPC   C3817141   2.811   2.247   5.962 -0.6807 -0.4558  0.5932
  144DOPC   H8X17142   2.794   2.195   6.058 -2.0844 -0.0353  0.5980
  144DOPC   H8Y17143   2.872   2.177   5.902 -0.8489  0.9742 -1.3357
  144DOPC   C3917144   2.687   2.286   5.881 -0.4516 -0.6462 -0.2747
  144DOPC   H9X17145   2.626   2.366   5.924 -0.4625 -1.2469  0.8656
  144DOPC  C31017146   2.645   2.239   5.766 -0.1410 -0.5704 -0.1193
  144DOPC  H10X17147   2.573   2.300   5.710  2.3110  1.8412 -0.8697
  144DOPC  C31117148   2.718   2.125   5.697 -0.0502  0.5733  0.2519
  144DOPC  H11X17149   2.641   2.064   5.644 -0.3851  2.8372 -2.0516
  144DOPC  H11Y17150   2.782   2.062   5.762  0.5500  0.5285 -0.3735
  144DOPC  C31217151   2.822   2.167   5.587 -0.2203  0.2113  0.1138
  144DOPC  H12X17152   2.870   2.079   5.540 -0.4507  0.8495 -1.3889
  144DOPC  H12Y17153   2.908   2.215   5.639 -0.7975 -1.6058  2.9985
  144DOPC  C31317154   2.770   2.271   5.481 -0.5005 -0.1772 -0.1808
  144DOPC  H13X17155   2.659   2.275   5.471 -0.5815 -0.9057  0.3637
  144DOPC  H13Y17156   2.803   2.367   5.526  1.3761 -1.4374  1.3183
  144DOPC  C31417157   2.824   2.272   5.332  0.0314 -0.3533 -0.4907
  144DOPC  H14X17158   2.775   2.355   5.277 -1.4305 -1.1189 -0.3971
  144DOPC  H14Y17159   2.934   2.290   5.336 -0.1124  0.3851  1.1522
  144DOPC  C31517160   2.789   2.148   5.246 -0.2197 -1.3748  0.0672
  144DOPC  H15X17161   2.678   2.141   5.247 -1.0131  4.9820  2.0855
  144DOPC  H15Y17162   2.834   2.052   5.281  0.9183 -1.4577 -1.5022
  144DOPC  C31617163   2.836   2.167   5.098 -0.0646  0.0008 -0.0054
  144DOPC  H16X17164   2.819   2.274   5.072  2.4166  0.8694  1.5194
  144DOPC  H16Y17165   2.945   2.149   5.086 -0.3897 -2.2757  0.0099
  144DOPC  C31717166   2.781   2.068   4.996 -0.1153  0.2545  0.6630
  144DOPC  H17X17167   2.741   1.973   5.038  0.3709 -0.6349 -0.8103
  144DOPC  H17Y17168   2.698   2.120   4.944 -0.5540 -1.5296 -0.5331
  144DOPC  C31817169   2.882   2.028   4.885 -0.0911  0.8666 -0.6406
  144DOPC  H18X17170   2.831   1.968   4.807 -1.0035  1.7310 -0.7328
  144DOPC  H18Y17171   2.909   2.120   4.830 -3.9975  1.3383 -2.1382
  144DOPC  H18Z17172   2.969   1.979   4.933  0.0544  0.6789 -1.0908
  145DOPC     N17173   3.598   4.798   7.275  0.2127 -0.3766  0.1455
  145DOPC   C1217174   3.639   4.702   7.158 -0.2181 -0.8628 -0.2232
  145DOPC  H12A17175   3.602   4.602   7.175  1.6564 -1.4935  0.5385
  145DOPC  H12B17176   3.747   4.705   7.171 -0.2160  3.4514  0.0187
  145DOPC   C1317177   3.691   4.918   7.269  0.2959 -0.4738  0.0213
  145DOPC  H13A17178   3.790   4.878   7.281 -0.0045 -1.5216 -0.8054
  145DOPC  H13B17179   3.677   4.964   7.172  1.2161 -1.5116 -0.6289
  145DOPC  H13C17180   3.653   4.978   7.351 -1.1762 -0.4626 -0.6283
  145DOPC   C1417181   3.617   4.721   7.401 -0.4823  0.3068  0.3430
  145DOPC  H14A17182   3.608   4.781   7.490 -0.0080  0.2785  0.4158
  145DOPC  H14B17183   3.569   4.624   7.407 -0.7177  0.4571  0.9622
  145DOPC  H14C17184   3.722   4.697   7.407 -0.4484  0.7043  1.4919
  145DOPC   C1517185   3.457   4.848   7.265 -0.0242  1.2114 -0.6695
  145DOPC  H15A17186   3.425   4.899   7.176 -2.0484  1.1020 -0.0492
  145DOPC  H15B17187   3.439   4.905   7.355  3.3993 -0.0664  1.0283
  145DOPC  H15C17188   3.392   4.765   7.288 -0.3085  1.5940 -0.0707
  145DOPC   C1117189   3.610   4.759   7.015 -0.0542 -1.1998  0.0099
  145DOPC  H11A17190   3.669   4.851   6.994  0.7751 -1.9245 -0.9321
  145DOPC  H11B17191   3.651   4.689   6.940  1.0758 -0.9506  0.3632
  145DOPC     P17192   3.374   4.673   6.947 -0.2854  0.0149 -0.3517
  145DOPC   O1317193   3.233   4.713   6.973 -0.0439 -0.2571 -0.2220
  145DOPC   O1417194   3.423   4.548   7.007  0.4529 -0.1061 -0.0130
  145DOPC   O1217195   3.470   4.790   6.992 -0.2799  0.3018  0.2131
  145DOPC   O1117196   3.386   4.646   6.795 -0.7729 -0.3112  0.0701
  145DOPC    C117197   3.406   4.763   6.709 -0.3647  0.2717  0.3641
  145DOPC    HA17198   3.485   4.833   6.745  0.4901 -0.9925  1.0549
  145DOPC    HB17199   3.306   4.807   6.689 -0.1598  1.4745  1.7966
  145DOPC    C217200   3.457   4.718   6.571  0.0411  0.4457  0.3343
  145DOPC    HS17201   3.456   4.811   6.510 -1.6589  1.8380  2.3061
  145DOPC   O2117202   3.367   4.615   6.531  0.4191  0.4155 -0.2499
  145DOPC   C2117203   3.337   4.620   6.404  0.1293  0.6458  0.5854
  145DOPC   O2217204   3.378   4.703   6.323 -0.3972 -0.4942 -0.6170
  145DOPC   C2217205   3.233   4.513   6.371  0.4167 -0.0449 -0.0172
  145DOPC   H2R17206   3.154   4.567   6.315 -0.3657 -0.3955  0.7138
  145DOPC   H2S17207   3.189   4.475   6.466  3.1315 -0.7186  1.0689
  145DOPC    C317208   3.591   4.648   6.590 -0.6064  0.1622  0.5414
  145DOPC    HX17209   3.579   4.560   6.657  2.3698  0.6749  1.9107
  145DOPC    HY17210   3.660   4.724   6.632 -1.0651  1.0015 -0.1959
  145DOPC   O3117211   3.645   4.600   6.460  0.4418  0.2980 -0.4464
  145DOPC   C3117212   3.696   4.703   6.384  0.1072 -0.4410  0.1465
  145DOPC   O3217213   3.701   4.823   6.416 -0.1282  0.3855  0.2071
  145DOPC   C3217214   3.729   4.643   6.252 -0.3424  0.1040  0.4279
  145DOPC   H2X17215   3.823   4.585   6.268 -0.4193 -0.2975 -0.5063
  145DOPC   H2Y17216   3.653   4.566   6.228  2.0988 -2.8604  1.5286
  145DOPC   C2317217   3.276   4.381   6.302  0.3771 -0.1920 -1.0269
  145DOPC   H3R17218   3.184   4.325   6.276 -0.2778  0.1586  0.4409
  145DOPC   H3S17219   3.336   4.332   6.381  1.5545  2.2774 -0.2599
  145DOPC   C2417220   3.367   4.383   6.178  0.7944 -0.8517  0.1573
  145DOPC   H4R17221   3.390   4.276   6.164 -0.3077 -0.7424 -3.4469
  145DOPC   H4S17222   3.464   4.436   6.191  1.4368 -2.1142  0.7078
  145DOPC   C2517223   3.304   4.446   6.055 -0.1332  0.5691 -0.2151
  145DOPC   H5R17224   3.268   4.549   6.076  2.1340  1.2821  0.3853
  145DOPC   H5S17225   3.207   4.392   6.047  0.2543 -0.5609  2.0906
  145DOPC   C2617226   3.376   4.443   5.925 -0.2341  0.3739 -0.4034
  145DOPC   H6R17227   3.394   4.340   5.887  0.0410  0.7449 -1.3189
  145DOPC   H6S17228   3.476   4.490   5.921  0.4269 -0.6925  2.0943
  145DOPC   C2717229   3.301   4.527   5.828 -0.3491 -0.5224 -0.0068
  145DOPC   H7R17230   3.304   4.634   5.859 -0.9492 -0.3692 -0.4517
  145DOPC   H7S17231   3.194   4.497   5.829 -0.6999  0.6717 -0.0249
  145DOPC   C2817232   3.368   4.536   5.692  0.6582  0.0908  0.0012
  145DOPC   H8R17233   3.285   4.573   5.628  0.1055  0.9293  1.1624
  145DOPC   H8S17234   3.382   4.437   5.643 -2.3489 -0.5320  0.2113
  145DOPC   C2917235   3.485   4.634   5.689  0.6928  0.3253  0.4405
  145DOPC   H9R17236   3.462   4.727   5.744  1.1941 -0.0131  1.2351
  145DOPC  C21017237   3.601   4.620   5.627 -0.1856  0.6446  1.1076
  145DOPC  H10R17238   3.687   4.688   5.634 -1.0973  1.8983  0.3416
  145DOPC  C21117239   3.635   4.511   5.525 -0.1900  0.7350 -1.0040
  145DOPC  H11R17240   3.551   4.438   5.513 -2.3906  2.2542  3.0264
  145DOPC  H11S17241   3.726   4.453   5.552  0.7083  0.5107 -4.1573
  145DOPC  C21217242   3.656   4.568   5.388 -0.5332  0.1099 -0.0850
  145DOPC  H12R17243   3.582   4.640   5.347 -2.3070 -0.4790  1.8707
  145DOPC  H12S17244   3.642   4.488   5.312 -2.5761  2.3853 -2.2938
  145DOPC  C21317245   3.802   4.619   5.350 -0.2645 -0.2031 -0.3314
  145DOPC  H13R17246   3.850   4.551   5.277 -0.2148  0.4398 -0.9019
  145DOPC  H13S17247   3.861   4.623   5.445  1.3126  0.4675 -1.3071
  145DOPC  C21417248   3.797   4.762   5.290 -0.2892 -0.0185  0.2045
  145DOPC  H14R17249   3.890   4.820   5.307  0.0527 -0.3557 -0.4667
  145DOPC  H14S17250   3.712   4.805   5.348 -0.6887 -0.6961  0.1395
  145DOPC  C21517251   3.750   4.755   5.146 -0.3768 -0.5618 -0.3952
  145DOPC  H15R17252   3.667   4.681   5.137  0.7334 -1.9537  0.3765
  145DOPC  H15S17253   3.830   4.730   5.073 -1.3192 -2.2255 -0.9190
  145DOPC  C21617254   3.685   4.887   5.097  0.8655  0.2001  0.0273
  145DOPC  H16R17255   3.753   4.975   5.106 -0.5262  1.2417  0.7711
  145DOPC  H16S17256   3.599   4.911   5.164 -0.2544  0.7065 -1.5293
  145DOPC  C21717257   3.627   4.875   4.955  0.3396  0.5017  0.7187
  145DOPC  H17R17258   3.563   4.785   4.945  1.5154 -0.2712 -0.0743
  145DOPC  H17S17259   3.708   4.846   4.885 -0.4868  0.0850 -0.0986
  145DOPC  C21817260   3.564   4.997   4.893 -0.4110 -0.1345 -0.1474
  145DOPC  H18R17261   3.502   4.979   4.803 -3.4232 -0.2330  1.7956
  145DOPC  H18S17262   3.644   5.071   4.876  1.1883 -1.6960  0.2660
  145DOPC  H18T17263   3.494   5.040   4.968 -0.5831 -1.0093  0.2105
  145DOPC   C3317264   3.749   4.754   6.141 -0.2698  0.2866  0.5670
  145DOPC   H3X17265   3.802   4.699   6.060  1.0374  1.1449  0.8204
  145DOPC   H3Y17266   3.823   4.831   6.171  3.0913 -2.0706 -1.0614
  145DOPC   C3417267   3.621   4.807   6.071 -0.3589 -0.0772  0.9133
  145DOPC   H4X17268   3.575   4.892   6.126  2.6724  1.0538  1.8973
  145DOPC   H4Y17269   3.545   4.727   6.058 -0.7148  0.3028  0.6424
  145DOPC   C3517270   3.647   4.862   5.929  0.2758 -0.4978  0.1486
  145DOPC   H5X17271   3.556   4.902   5.881 -1.1945 -0.5693  2.7117
  145DOPC   H5Y17272   3.692   4.779   5.870 -0.6379  1.3591 -3.4613
  145DOPC   C3617273   3.743   4.984   5.933  0.4195  0.4520 -0.2144
  145DOPC   H6X17274   3.705   5.067   5.997  1.1972  0.7218 -0.0922
  145DOPC   H6Y17275   3.836   4.960   5.989 -0.4835 -0.0745  1.1026
  145DOPC   C3717276   3.792   5.015   5.786  0.7531 -0.2135 -0.0454
  145DOPC   H7X17277   3.850   5.109   5.800  0.2106  0.0772  0.2799
  145DOPC   H7Y17278   3.859   4.935   5.748  0.2537 -0.6501 -0.0131
  145DOPC   C3817279   3.684   5.060   5.686  0.3916 -0.6783 -0.1515
  145DOPC   H8X17280   3.636   5.151   5.727  2.0829 -0.1259  0.6829
  145DOPC   H8Y17281   3.597   4.990   5.691  1.1685 -1.5938  2.2094
  145DOPC   C3917282   3.747   5.065   5.547  0.0421 -0.2207 -0.0877
  145DOPC   H9X17283   3.763   4.963   5.509  0.3759 -0.4491  0.6327
  145DOPC  C31017284   3.805   5.174   5.483  0.1194  0.2136 -0.0728
  145DOPC  H10X17285   3.870   5.153   5.396 -1.2989 -1.0933 -0.8726
  145DOPC  C31117286   3.811   5.317   5.528  0.4817  0.6057  0.0521
  145DOPC  H11X17287   3.775   5.325   5.632 -1.4208 -0.0896 -0.5183
  145DOPC  H11Y17288   3.748   5.384   5.466 -1.2619 -1.7352 -0.8801
  145DOPC  C31217289   3.953   5.367   5.556 -0.0800 -0.6659 -0.2616
  145DOPC  H12X17290   4.025   5.332   5.479 -0.6203  0.9858 -1.5568
  145DOPC  H12Y17291   4.003   5.321   5.645  1.4000  0.4022 -0.5078
  145DOPC  C31317292   3.960   5.517   5.579  0.3737 -0.0895  0.4426
  145DOPC  H13X17293   3.885   5.556   5.651  1.2099  0.2020  1.1696
  145DOPC  H13Y17294   4.058   5.547   5.621 -0.1570  1.8207  0.4110
  145DOPC  C31417295   3.937   5.587   5.438  0.1497  0.3107 -0.1517
  145DOPC  H14X17296   3.988   5.528   5.358  0.7916  0.3547  0.2223
  145DOPC  H14Y17297   3.828   5.589   5.417  0.3755 -0.0056 -1.4505
  145DOPC  C31517298   3.996   5.733   5.443 -0.5838  0.2134 -0.0970
  145DOPC  H15X17299   4.106   5.725   5.447 -0.3670  2.2683 -0.5672
  145DOPC  H15Y17300   3.962   5.786   5.536  1.0456  1.8142 -0.3566
  145DOPC  C31617301   3.951   5.818   5.321 -0.1444 -0.0176 -0.0684
  145DOPC  H16X17302   3.841   5.835   5.323 -0.0880  1.4889 -3.1510
  145DOPC  H16Y17303   3.995   5.919   5.336  0.7121 -0.6262  1.8630
  145DOPC  C31717304   3.995   5.772   5.182 -0.8213 -0.0361  0.3848
  145DOPC  H17X17305   4.105   5.763   5.191 -0.2759  1.1464 -3.3241
  145DOPC  H17Y17306   3.943   5.675   5.166 -0.0622 -0.6539  1.5878
  145DOPC  C31817307   3.979   5.874   5.066  0.3319 -0.2619  0.4925
  145DOPC  H18X17308   3.881   5.862   5.015  0.0148 -1.3085  1.2864
  145DOPC  H18Y17309   3.973   5.980   5.098  1.5709  0.3824 -1.2842
  145DOPC  H18Z17310   4.052   5.865   4.983 -0.6819 -1.1540 -0.3475
  146DOPC     N17311   5.428   2.948   7.580  0.2683 -0.3322 -0.2616
  146DOPC   C1217312   5.371   3.017   7.458 -0.2754  0.1734 -0.1638
  146DOPC  H12A17313   5.312   3.102   7.487  0.2514  0.3080  0.5512
  146DOPC  H12B17314   5.307   2.945   7.408  1.2047 -0.5401 -1.1074
  146DOPC   C1317315   5.313   2.889   7.658  0.2246  0.1405  0.4676
  146DOPC  H13A17316   5.245   2.835   7.593  1.7977 -0.9145 -0.3484
  146DOPC  H13B17317   5.355   2.818   7.727 -0.8289 -2.6130 -1.5222
  146DOPC  H13C17318   5.261   2.969   7.710 -1.0217 -0.5767  0.3787
  146DOPC   C1417319   5.496   3.039   7.673  0.0804 -0.2500 -0.7416
  146DOPC  H14A17320   5.548   2.998   7.759 -1.3632 -0.7610 -0.0833
  146DOPC  H14B17321   5.580   3.085   7.623  0.2918 -1.4068 -1.4888
  146DOPC  H14C17322   5.433   3.119   7.707  0.1138 -0.8354  0.7624
  146DOPC   C1517323   5.528   2.848   7.544  0.2079 -0.1526  0.0758
  146DOPC  H15A17324   5.499   2.808   7.448  1.1587  1.6374 -1.0158
  146DOPC  H15B17325   5.553   2.775   7.619  2.0734  0.4211  0.0689
  146DOPC  H15C17326   5.625   2.892   7.527  0.4684 -0.9859 -0.6782
  146DOPC   C1117327   5.455   3.069   7.339  0.4924  0.2010 -0.5059
  146DOPC  H11A17328   5.515   2.977   7.318 -0.4573 -0.7401  0.7620
  146DOPC  H11B17329   5.395   3.096   7.249  2.0932  0.0084 -1.6957
  146DOPC     P17330   5.475   3.313   7.419 -0.0304  0.1549  0.1389
  146DOPC   O1317331   5.577   3.408   7.476  0.8501  0.4279  0.1169
  146DOPC   O1417332   5.359   3.298   7.510 -0.5463 -0.2917 -0.3028
  146DOPC   O1217333   5.540   3.174   7.372 -0.2801  0.0897  0.3396
  146DOPC   O1117334   5.425   3.369   7.282 -0.1617  0.1411  0.0477
  146DOPC    C117335   5.458   3.486   7.209 -0.0454 -0.9369 -0.6184
  146DOPC    HA17336   5.476   3.456   7.104 -0.0291 -4.6162  0.2891
  146DOPC    HB17337   5.551   3.531   7.250 -1.3929  3.2723 -1.7724
  146DOPC    C217338   5.348   3.597   7.210  0.7260 -0.1987  0.3315
  146DOPC    HS17339   5.335   3.623   7.318  0.8435 -2.4746  0.9397
  146DOPC   O2117340   5.223   3.547   7.159  0.0037  0.0852  0.3714
  146DOPC   C2117341   5.116   3.609   7.210 -0.3665  0.2142  0.0314
  146DOPC   O2217342   5.114   3.707   7.278  0.5054  0.5024 -0.3560
  146DOPC   C2217343   4.996   3.543   7.135 -0.0396 -0.3739  0.1635
  146DOPC   H2R17344   4.910   3.611   7.152 -0.0305 -0.6363  1.3585
  146DOPC   H2S17345   4.963   3.454   7.193  0.0225 -0.9428 -0.6687
  146DOPC    C317346   5.396   3.734   7.146 -0.3999 -0.4195  0.1496
  146DOPC    HX17347   5.498   3.758   7.184 -0.4972 -0.9215  0.7480
  146DOPC    HY17348   5.328   3.810   7.191  0.2568 -0.8092  1.8977
  146DOPC   O3117349   5.413   3.720   7.004  0.0241  0.2926  0.4264
  146DOPC   C3117350   5.326   3.781   6.931  0.0309  0.0113 -0.1481
  146DOPC   O3217351   5.225   3.835   6.970  0.1174  0.3945 -0.3456
  146DOPC   C3217352   5.370   3.759   6.787  0.0673  0.0341 -0.5139
  146DOPC   H2X17353   5.474   3.720   6.789  0.6293  1.4468  2.2904
  146DOPC   H2Y17354   5.319   3.670   6.744  1.2841  0.1484 -2.3197
  146DOPC   C2317355   5.023   3.552   6.978 -0.3655  0.3474  0.1637
  146DOPC   H3R17356   5.115   3.495   6.952 -0.2727  0.6694 -0.2343
  146DOPC   H3S17357   5.049   3.657   6.954 -0.1296  0.7598  2.1010
  146DOPC   C2417358   4.901   3.505   6.894 -0.0668  1.1428 -0.0033
  146DOPC   H4R17359   4.810   3.569   6.902 -1.5156 -0.1363 -3.8950
  146DOPC   H4S17360   4.870   3.409   6.940  1.6825  1.6791  2.4768
  146DOPC   C2517361   4.935   3.486   6.752  0.4758  0.4640  0.4295
  146DOPC   H5R17362   4.958   3.378   6.740 -0.2683  0.5023 -1.8352
  146DOPC   H5S17363   5.008   3.559   6.710  0.0999  0.8668  0.4706
  146DOPC   C2617364   4.811   3.521   6.659  0.0691 -0.0644 -0.3124
  146DOPC   H6R17365   4.776   3.627   6.666 -2.2527 -0.5852 -2.3902
  146DOPC   H6S17366   4.725   3.456   6.687  2.7868 -5.1440 -2.4867
  146DOPC   C2717367   4.829   3.500   6.504 -0.1363  0.8990 -0.0302
  146DOPC   H7R17368   4.918   3.561   6.476  0.3792 -0.2398 -0.9455
  146DOPC   H7S17369   4.743   3.525   6.439 -0.0757  2.1672  0.3601
  146DOPC   C2817370   4.877   3.354   6.473 -0.3691 -0.2317 -0.0591
  146DOPC   H8R17371   4.955   3.312   6.539  0.4223 -1.9596 -2.0108
  146DOPC   H8S17372   4.928   3.364   6.375 -1.2155  0.1260 -0.4798
  146DOPC   C2917373   4.778   3.247   6.469  0.3922 -0.6443 -0.0098
  146DOPC   H9R17374   4.726   3.238   6.566 -1.3039 -0.0835 -0.8278
  146DOPC  C21017375   4.759   3.156   6.375  0.2094 -0.5969  0.9665
  146DOPC  H10R17376   4.688   3.074   6.392 -0.7285 -0.1008 -0.4344
  146DOPC  C21117377   4.854   3.148   6.253 -0.3865  0.4705 -0.4220
  146DOPC  H11R17378   4.961   3.166   6.278  0.5977  0.2036 -3.9305
  146DOPC  H11S17379   4.836   3.231   6.182  2.8423  1.3578 -0.3427
  146DOPC  C21217380   4.843   3.015   6.180 -0.5088  0.5523 -0.0824
  146DOPC  H12R17381   4.885   3.028   6.078  1.1525 -2.5580  0.0782
  146DOPC  H12S17382   4.736   2.987   6.166 -0.5384  0.6642 -0.0773
  146DOPC  C21317383   4.910   2.892   6.236  0.0701  0.0530  0.1246
  146DOPC  H13R17384   4.867   2.864   6.335 -0.4857 -0.5642 -0.2911
  146DOPC  H13S17385   5.015   2.925   6.254  0.1038 -0.0086  0.0415
  146DOPC  C21417386   4.888   2.765   6.155  0.0604 -0.9256  0.3412
  146DOPC  H14R17387   4.942   2.781   6.060  1.0951 -0.0883  1.0510
  146DOPC  H14S17388   4.779   2.756   6.132 -0.0360 -0.4213  0.5845
  146DOPC  C21517389   4.928   2.633   6.208 -0.1053 -0.1957  0.3250
  146DOPC  H15R17390   4.904   2.545   6.144 -0.6620  0.0262  0.2251
  146DOPC  H15S17391   4.866   2.604   6.296 -1.3718  0.0213 -0.4705
  146DOPC  C21617392   5.079   2.603   6.235  0.2889 -0.2590  0.0647
  146DOPC  H16R17393   5.141   2.654   6.157 -1.6068  2.2259  0.0627
  146DOPC  H16S17394   5.081   2.493   6.221  0.8026 -0.1683 -0.6861
  146DOPC  C21717395   5.133   2.629   6.376  0.2900 -0.0120  0.4795
  146DOPC  H17R17396   5.105   2.548   6.446 -1.2012  1.6117  1.8440
  146DOPC  H17S17397   5.083   2.721   6.412  0.2565  0.0266  0.3342
  146DOPC  C21817398   5.283   2.658   6.391  0.1924  0.0486  0.0869
  146DOPC  H18R17399   5.347   2.587   6.335  0.6418  1.5656 -1.4102
  146DOPC  H18S17400   5.326   2.674   6.492  1.2622 -2.2444  0.0382
  146DOPC  H18T17401   5.302   2.749   6.329  2.4091 -0.1615  0.4050
  146DOPC   C3317402   5.359   3.869   6.683 -0.2660 -0.3752 -0.1773
  146DOPC   H3X17403   5.381   3.964   6.736  2.4150 -1.7817  1.4165
  146DOPC   H3Y17404   5.256   3.870   6.641 -1.1211 -1.1333  1.8047
  146DOPC   C3417405   5.457   3.859   6.574 -0.1948  0.4464  0.8060
  146DOPC   H4X17406   5.565   3.863   6.601  0.7043 -0.4106 -2.3402
  146DOPC   H4Y17407   5.441   3.946   6.507  1.1657  1.9050  2.2846
  146DOPC   C3517408   5.452   3.731   6.491 -0.2349  0.6372  0.1208
  146DOPC   H5X17409   5.474   3.648   6.561  1.1777  1.3721  0.5759
  146DOPC   H5Y17410   5.538   3.712   6.423  1.0285 -0.1701  1.8751
  146DOPC   C3617411   5.323   3.706   6.417 -0.1704  0.0117 -0.2486
  146DOPC   H6X17412   5.250   3.700   6.500 -1.6864 -1.4967 -1.6151
  146DOPC   H6Y17413   5.300   3.786   6.343  5.6286  2.2975 -0.1142
  146DOPC   C3717414   5.326   3.564   6.349 -0.3529  0.8219 -0.5597
  146DOPC   H7X17415   5.353   3.572   6.242 -1.5693  0.3921 -0.9120
  146DOPC   H7Y17416   5.406   3.501   6.393 -0.1991  0.6354 -1.0976
  146DOPC   C3817417   5.192   3.481   6.359  0.7895 -0.2642 -0.5370
  146DOPC   H8X17418   5.129   3.528   6.281 -1.6447  0.9407  1.9618
  146DOPC   H8Y17419   5.142   3.513   6.453 -0.8367 -0.7963 -1.1780
  146DOPC   C3917420   5.205   3.328   6.340 -0.1389 -0.9740 -0.1144
  146DOPC   H9X17421   5.210   3.276   6.437  1.5544 -0.5481  0.0604
  146DOPC  C31017422   5.204   3.261   6.223 -0.2744  0.6591 -0.5514
  146DOPC  H10X17423   5.220   3.152   6.218 -0.9254  0.5901 -1.1239
  146DOPC  C31117424   5.208   3.338   6.089 -0.5521  0.0140 -0.3311
  146DOPC  H11X17425   5.195   3.448   6.084  0.1884  0.1492  0.3952
  146DOPC  H11Y17426   5.127   3.306   6.021 -1.4949  0.8352  0.3741
  146DOPC  C31217427   5.347   3.292   6.018 -0.0929 -0.5239 -0.5090
  146DOPC  H12X17428   5.431   3.320   6.084 -0.9273 -0.2879  0.4762
  146DOPC  H12Y17429   5.365   3.361   5.933  3.2689  2.5199  2.3478
  146DOPC  C31317430   5.359   3.145   5.969 -0.5419  0.6835  0.3085
  146DOPC  H13X17431   5.451   3.134   5.908 -0.7748  0.1015  0.0477
  146DOPC  H13Y17432   5.363   3.073   6.054  1.7839  0.4947  0.0798
  146DOPC  C31417433   5.241   3.105   5.871 -0.1513 -0.5495  0.1390
  146DOPC  H14X17434   5.142   3.101   5.922  0.1144 -0.7452  0.6493
  146DOPC  H14Y17435   5.227   3.182   5.792 -0.3155 -0.5059  0.2080
  146DOPC  C31517436   5.266   2.973   5.797  0.2230  0.1302 -0.3112
  146DOPC  H15X17437   5.371   2.979   5.762  0.2944 -0.1656 -0.1561
  146DOPC  H15Y17438   5.196   2.956   5.712  0.6048  0.2447 -0.6481
  146DOPC  C31617439   5.250   2.850   5.880  0.0056  0.1224 -0.4120
  146DOPC  H16X17440   5.315   2.853   5.970  0.5442 -0.4559 -0.7790
  146DOPC  H16Y17441   5.146   2.848   5.919  0.2274  0.9347  0.2659
  146DOPC  C31717442   5.290   2.712   5.818 -0.2939  0.2768 -0.5809
  146DOPC  H17X17443   5.342   2.722   5.721  1.2735 -1.2280  0.0433
  146DOPC  H17Y17444   5.360   2.661   5.887  0.2759  1.5583 -0.1764
  146DOPC  C31817445   5.165   2.626   5.795 -0.6028 -0.2839 -0.5071
  146DOPC  H18X17446   5.103   2.666   5.712 -0.3117  2.4202  0.4897
  146DOPC  H18Y17447   5.205   2.527   5.762  2.2961  1.7526 -3.7199
  146DOPC  H18Z17448   5.110   2.618   5.891  0.9327 -0.5198  0.3942
  147DOPC     N17449   2.615   1.112   6.974 -0.0458 -0.0873  0.4330
  147DOPC   C1217450   2.538   1.238   6.939  0.9088 -0.1704 -0.0382
  147DOPC  H12A17451   2.578   1.280   6.848  2.0878 -1.3373 -0.0787
  147DOPC  H12B17452   2.549   1.318   7.011  1.5709  1.1356 -1.5496
  147DOPC   C1317453   2.589   1.070   7.117 -0.2056  0.3975  0.8963
  147DOPC  H13A17454   2.617   1.143   7.191  0.3008 -0.2635  1.3674
  147DOPC  H13B17455   2.482   1.059   7.125 -0.4810  1.0824 -1.1460
  147DOPC  H13C17456   2.635   0.975   7.141 -2.1723 -0.9527 -0.3425
  147DOPC   C1417457   2.757   1.152   6.960 -0.0117  0.3341  0.2322
  147DOPC  H14A17458   2.819   1.064   6.959 -3.2124 -2.1448  1.3750
  147DOPC  H14B17459   2.781   1.214   6.876  1.3931  1.6531  1.5430
  147DOPC  H14C17460   2.790   1.220   7.038 -2.6696  1.6471  0.3388
  147DOPC   C1517461   2.582   1.004   6.878  0.0227 -0.8267 -0.6811
  147DOPC  H15A17462   2.645   0.917   6.888  0.2777 -0.3866  3.1223
  147DOPC  H15B17463   2.597   1.032   6.775  0.6128 -2.7349 -1.1526
  147DOPC  H15C17464   2.478   0.979   6.888  0.2977 -1.1501  2.3134
  147DOPC   C1117465   2.386   1.224   6.926 -0.1362  0.4677  0.0713
  147DOPC  H11A17466   2.336   1.314   6.884 -1.5367  0.2128  1.1477
  147DOPC  H11B17467   2.355   1.135   6.867 -3.5110  1.0120  0.8424
  147DOPC     P17468   2.309   1.304   7.166  0.3847  0.2291  0.0895
  147DOPC   O1317469   2.436   1.366   7.193 -0.1578 -0.3761  0.2357
  147DOPC   O1417470   2.250   1.227   7.274  0.8692  0.5329 -0.7793
  147DOPC   O1217471   2.327   1.198   7.053 -0.1170  0.6473 -0.0390
  147DOPC   O1117472   2.209   1.409   7.094  0.1109  0.3640 -0.0879
  147DOPC    C117473   2.071   1.387   7.064 -0.3150  0.0167 -1.3514
  147DOPC    HA17474   2.014   1.466   7.118  1.0533  0.7109 -0.8956
  147DOPC    HB17475   2.038   1.292   7.112  1.1359  0.3944  0.5090
  147DOPC    C217476   2.037   1.401   6.917  0.9361  0.7081  0.0389
  147DOPC    HS17477   1.928   1.421   6.913  0.5799 -0.8081  1.0445
  147DOPC   O2117478   2.060   1.270   6.863  0.4120 -0.8994  0.0415
  147DOPC   C2117479   1.998   1.243   6.752  0.3971 -0.1164  0.3798
  147DOPC   O2217480   1.917   1.310   6.691  0.0660  0.0983  0.5741
  147DOPC   C2217481   2.051   1.107   6.704  1.2282  0.1381  0.5523
  147DOPC   H2R17482   2.001   1.025   6.760  1.4309 -1.5171 -1.5307
  147DOPC   H2S17483   2.162   1.094   6.706  1.3849  0.0935 -2.6491
  147DOPC    C317484   2.119   1.519   6.850  0.3768  0.5614 -0.1175
  147DOPC    HX17485   2.229   1.507   6.863  0.8491  2.1199 -2.1190
  147DOPC    HY17486   2.094   1.610   6.908 -0.7494  0.8501 -1.0112
  147DOPC   O3117487   2.091   1.537   6.707  0.0960  0.4985 -0.1035
  147DOPC   C3117488   2.019   1.637   6.660 -0.2964  0.2517  0.1349
  147DOPC   O3217489   1.988   1.737   6.717  0.1723 -0.3638  0.0516
  147DOPC   C3217490   1.999   1.601   6.512 -0.3441  0.4100  1.2080
  147DOPC   H2X17491   2.090   1.618   6.450  1.5903 -1.5150  3.3440
  147DOPC   H2Y17492   1.992   1.491   6.503  1.0288  0.4978 -3.1955
  147DOPC   C2317493   2.015   1.097   6.549 -0.8518  1.0698 -0.3294
  147DOPC   H3R17494   1.907   1.115   6.532 -1.5327 -0.6536  1.7456
  147DOPC   H3S17495   2.047   0.991   6.534  0.9710  1.4157  0.8134
  147DOPC   C2417496   2.098   1.183   6.459 -0.3057 -0.1355  0.2417
  147DOPC   H4R17497   2.201   1.162   6.493 -0.5544  1.6140  2.2603
  147DOPC   H4S17498   2.072   1.290   6.477  0.5717 -0.2561  2.5429
  147DOPC   C2517499   2.088   1.165   6.302  0.5057  0.7165 -0.8140
  147DOPC   H5R17500   2.016   1.084   6.277 -0.4497  1.4150 -0.4148
  147DOPC   H5S17501   2.192   1.131   6.284  0.6245 -1.0073  2.4511
  147DOPC   C2617502   2.051   1.297   6.237  0.5457  0.3688 -0.6813
  147DOPC   H6R17503   2.103   1.375   6.296  0.0240 -1.6700  2.7530
  147DOPC   H6S17504   1.942   1.317   6.244 -0.0186 -2.0710 -1.2823
  147DOPC   C2717505   2.093   1.298   6.091 -0.5256  0.6766  0.0365
  147DOPC   H7R17506   2.034   1.222   6.034  1.8432 -0.7323 -0.6692
  147DOPC   H7S17507   2.200   1.269   6.088 -0.7658 -0.2616  0.2149
  147DOPC   C2817508   2.092   1.425   6.016 -0.3637 -0.4863 -0.3643
  147DOPC   H8R17509   2.151   1.407   5.924  0.5259  0.1229  0.0635
  147DOPC   H8S17510   2.156   1.505   6.061 -0.6796 -1.8838  2.8523
  147DOPC   C2917511   1.953   1.484   5.985  0.0270  0.5461 -0.6382
  147DOPC   H9R17512   1.873   1.439   6.045 -0.7203  1.4551 -0.9403
  147DOPC  C21017513   1.921   1.553   5.872 -0.4140  0.1989 -0.0648
  147DOPC  H10R17514   1.819   1.595   5.867  0.1732  2.1315  2.4080
  147DOPC  C21117515   2.016   1.600   5.767  0.4078  0.0156 -0.5636
  147DOPC  H11R17516   2.097   1.524   5.772 -0.0437 -0.3789  2.3186
  147DOPC  H11S17517   2.065   1.697   5.788  2.5450 -1.3795  1.4566
  147DOPC  C21217518   1.944   1.596   5.634  0.2593  0.0921 -0.2775
  147DOPC  H12R17519   1.843   1.643   5.631 -0.2281 -0.9431 -0.6365
  147DOPC  H12S17520   1.920   1.489   5.614  2.9261 -0.7874  0.7269
  147DOPC  C21317521   2.034   1.657   5.531 -0.5366  0.0433  0.5731
  147DOPC  H13R17522   2.075   1.750   5.576 -0.6962  1.3408 -1.8024
  147DOPC  H13S17523   1.988   1.664   5.430  0.7182 -3.0475 -0.3548
  147DOPC  C21417524   2.154   1.563   5.491 -0.1328 -0.2117 -0.2741
  147DOPC  H14R17525   2.114   1.460   5.475  0.5342 -0.6558  0.7734
  147DOPC  H14S17526   2.220   1.559   5.581  1.0779 -1.3550 -1.1630
  147DOPC  C21517527   2.234   1.617   5.375  0.0666  0.0340 -0.3252
  147DOPC  H15R17528   2.160   1.623   5.292 -0.8001 -0.6517  0.3732
  147DOPC  H15S17529   2.299   1.536   5.333  0.7930  0.1907  0.4591
  147DOPC  C21617530   2.315   1.744   5.393 -0.1881 -0.1726 -0.7186
  147DOPC  H16R17531   2.248   1.820   5.439 -1.8092 -1.6765 -0.4993
  147DOPC  H16S17532   2.339   1.783   5.292  2.6896 -2.5753 -1.0934
  147DOPC  C21717533   2.439   1.706   5.471  0.3086 -0.1825 -0.3764
  147DOPC  H17R17534   2.511   1.646   5.412  1.9117 -0.0338  1.3353
  147DOPC  H17S17535   2.412   1.633   5.550  1.9261 -3.6597 -2.8101
  147DOPC  C21817536   2.522   1.826   5.522  0.6538 -0.2997 -0.5380
  147DOPC  H18R17537   2.452   1.901   5.565 -0.3747 -1.6777  0.2685
  147DOPC  H18S17538   2.584   1.867   5.439 -0.6943 -0.4515 -1.6501
  147DOPC  H18T17539   2.590   1.797   5.605 -1.3421  0.7407  1.5665
  147DOPC   C3317540   1.879   1.672   6.454 -0.1438  0.2478 -0.2134
  147DOPC   H3X17541   1.881   1.781   6.473 -0.2189  0.4227 -1.1725
  147DOPC   H3Y17542   1.787   1.641   6.509 -1.4247  1.8959 -1.3353
  147DOPC   C3417543   1.875   1.654   6.301  0.0265  0.3723  0.1971
  147DOPC   H4X17544   1.878   1.550   6.261 -1.7310  0.8343 -1.2720
  147DOPC   H4Y17545   1.963   1.704   6.255 -0.0332  0.3977  0.1107
  147DOPC   C3517546   1.758   1.731   6.242  0.8083 -0.1531  0.1910
  147DOPC   H5X17547   1.760   1.835   6.278 -0.6449  0.4895 -1.4471
  147DOPC   H5Y17548   1.659   1.694   6.276  0.8258  0.2882  0.7221
  147DOPC   C3617549   1.772   1.743   6.086  0.4086 -0.0189 -0.0833
  147DOPC   H6X17550   1.874   1.772   6.054  0.5605 -1.3797 -0.8844
  147DOPC   H6Y17551   1.741   1.654   6.028  0.9404  0.3124 -0.8897
  147DOPC   C3717552   1.682   1.860   6.039 -0.1916  0.5865  0.0579
  147DOPC   H7X17553   1.574   1.848   6.061 -1.2370  2.8670 -3.1400
  147DOPC   H7Y17554   1.715   1.951   6.094 -2.3954  0.6106  1.4469
  147DOPC   C3817555   1.688   1.893   5.889  0.3643 -0.1526  0.5245
  147DOPC   H8X17556   1.630   1.984   5.863  2.8937  1.5031  0.3522
  147DOPC   H8Y17557   1.637   1.809   5.836 -2.3003  1.3133  0.5782
  147DOPC   C3917558   1.823   1.910   5.834 -0.4307 -0.5834  0.7266
  147DOPC   H9X17559   1.901   1.846   5.880 -0.7014 -0.7100  1.0158
  147DOPC  C31017560   1.868   1.985   5.732  0.7770  0.3694 -0.1216
  147DOPC  H10X17561   1.972   1.985   5.694  0.6378 -0.8795 -0.5269
  147DOPC  C31117562   1.771   2.077   5.647  0.5980  0.7977 -0.2411
  147DOPC  H11X17563   1.665   2.063   5.675  0.4637 -0.6607 -1.3480
  147DOPC  H11Y17564   1.787   2.033   5.546  2.8379 -1.4584  0.9754
  147DOPC  C31217565   1.820   2.217   5.650  0.1218 -0.4609 -0.4677
  147DOPC  H12X17566   1.768   2.269   5.566  0.1118  0.1033 -0.1204
  147DOPC  H12Y17567   1.930   2.216   5.636  0.3064 -0.2665  0.8289
  147DOPC  C31317568   1.781   2.298   5.773 -0.4098  0.1149  0.4573
  147DOPC  H13X17569   1.676   2.325   5.750 -0.3516  1.7510  1.8855
  147DOPC  H13Y17570   1.772   2.241   5.867 -0.5429  2.6824  2.1005
  147DOPC  C31417571   1.862   2.422   5.799 -0.3090  0.2184  0.0510
  147DOPC  H14X17572   1.956   2.407   5.742 -1.1639 -0.9356 -1.1253
  147DOPC  H14Y17573   1.813   2.506   5.744 -1.2238 -0.9540 -0.9744
  147DOPC  C31517574   1.904   2.459   5.944 -0.2231 -0.0767 -0.2035
  147DOPC  H15X17575   1.956   2.556   5.952  0.7508 -0.6840  1.1342
  147DOPC  H15Y17576   1.974   2.385   5.987 -3.0288 -0.8799  3.4775
  147DOPC  C31617577   1.787   2.461   6.035 -0.0168  0.2037  0.2782
  147DOPC  H16X17578   1.697   2.513   5.995  0.1322  0.5835  0.4261
  147DOPC  H16Y17579   1.787   2.354   6.066  2.5197  0.2530  0.6902
  147DOPC  C31717580   1.820   2.536   6.167 -0.2319 -0.0734 -0.2311
  147DOPC  H17X17581   1.905   2.485   6.216 -0.1478  0.1652 -0.1299
  147DOPC  H17Y17582   1.847   2.640   6.138 -2.4663  0.5915 -0.1345
  147DOPC  C31817583   1.706   2.533   6.271 -0.6635 -0.2296 -0.6041
  147DOPC  H18X17584   1.752   2.572   6.365 -0.7232 -0.2370 -0.5719
  147DOPC  H18Y17585   1.623   2.597   6.236 -0.9616  0.0759  0.6190
  147DOPC  H18Z17586   1.669   2.429   6.284  0.3708 -0.4711  0.6360
  148DOPC     N17587   1.967   4.105   7.211  0.1658 -0.5167  0.8881
  148DOPC   C1217588   1.947   4.139   7.058 -0.5327 -0.0654  0.0944
  148DOPC  H12A17589   1.870   4.072   7.022 -0.8811  1.0859 -1.4294
  148DOPC  H12B17590   2.041   4.116   7.010 -0.7206  2.3444 -1.6177
  148DOPC   C1317591   1.834   4.136   7.268  0.3235  0.2599 -0.6874
  148DOPC  H13A17592   1.841   4.133   7.376 -2.2334  2.6511 -0.3412
  148DOPC  H13B17593   1.800   4.237   7.254 -1.6473 -0.3160 -0.2897
  148DOPC  H13C17594   1.760   4.062   7.242 -0.9510  1.3144 -0.1062
  148DOPC   C1417595   2.061   4.190   7.286  0.2705  0.2874 -0.1390
  148DOPC  H14A17596   2.029   4.293   7.275 -2.5240 -0.5839 -1.0144
  148DOPC  H14B17597   2.075   4.158   7.388 -0.6395 -0.4705 -0.2479
  148DOPC  H14C17598   2.157   4.186   7.237  0.3393 -4.2649 -0.0111
  148DOPC   C1517599   1.998   3.966   7.226 -0.2439  0.0946 -0.0790
  148DOPC  H15A17600   2.044   3.947   7.322  2.0174  2.2326 -0.6354
  148DOPC  H15B17601   2.069   3.917   7.160 -1.4244 -1.7674 -0.0593
  148DOPC  H15C17602   1.912   3.904   7.206  1.1587 -1.3509 -2.0512
  148DOPC   C1117603   1.908   4.280   7.015 -0.6665 -0.0335 -0.3873
  148DOPC  H11A17604   1.879   4.269   6.909 -0.4948 -0.5373 -0.3882
  148DOPC  H11B17605   1.820   4.314   7.073  1.6389  1.3132  2.6079
  148DOPC     P17606   2.135   4.377   6.934  0.2130 -0.6348 -0.4632
  148DOPC   O1317607   2.184   4.244   6.907 -0.5412  0.3270 -0.4066
  148DOPC   O1417608   2.223   4.470   7.005 -0.0077  0.4708  0.0255
  148DOPC   O1217609   2.012   4.378   7.026  0.3028 -0.7158 -0.4179
  148DOPC   O1117610   2.084   4.446   6.796 -0.0660 -0.0469  0.3639
  148DOPC    C117611   2.185   4.478   6.691  0.1304  0.5115 -0.5493
  148DOPC    HA17612   2.270   4.408   6.701 -0.3460  0.0748  0.5766
  148DOPC    HB17613   2.217   4.584   6.701  0.3776  0.3058  1.0457
  148DOPC    C217614   2.112   4.457   6.554  0.1111  0.0565 -0.5532
  148DOPC    HS17615   2.018   4.517   6.555  1.1485  1.8728 -2.5512
  148DOPC   O2117616   2.091   4.323   6.514 -0.3296  0.2657  0.6943
  148DOPC   C2117617   1.977   4.268   6.542 -0.8400 -0.2107 -0.2432
  148DOPC   O2217618   1.882   4.313   6.607  0.0118  0.0171  0.1134
  148DOPC   C2217619   1.977   4.131   6.473  0.2926 -0.3120 -0.0823
  148DOPC   H2R17620   1.992   4.049   6.546 -2.0819 -1.2458 -0.5461
  148DOPC   H2S17621   2.068   4.124   6.409  0.0332 -0.9205 -0.3935
  148DOPC    C317622   2.201   4.531   6.457 -0.2514 -0.2779 -0.1286
  148DOPC    HX17623   2.298   4.478   6.446  0.2660  0.8114 -1.0170
  148DOPC    HY17624   2.230   4.632   6.494  0.6904 -0.7192  0.3834
  148DOPC   O3117625   2.135   4.553   6.335  0.2674 -0.1602  0.3597
  148DOPC   C3117626   2.206   4.610   6.241  0.0762  0.0906 -0.5680
  148DOPC   O3217627   2.328   4.638   6.251  0.3723  0.4397 -0.3987
  148DOPC   C3217628   2.132   4.620   6.114  0.2720 -0.8640  0.4608
  148DOPC   H2X17629   2.101   4.516   6.095  1.2793 -1.2026  0.6033
  148DOPC   H2Y17630   2.050   4.695   6.121  1.2122  0.0466  2.6520
  148DOPC   C2317631   1.839   4.122   6.399 -0.2184 -0.5248  0.0104
  148DOPC   H3R17632   1.754   4.143   6.467  1.7229  2.0270  1.8618
  148DOPC   H3S17633   1.829   4.016   6.368 -2.1613 -0.4240  0.2085
  148DOPC   C2417634   1.819   4.217   6.279  0.3928 -0.1366  0.5976
  148DOPC   H4R17635   1.777   4.314   6.314 -0.8288 -0.9544  1.4726
  148DOPC   H4S17636   1.739   4.174   6.216 -0.7773  1.3000  1.0499
  148DOPC   C2517637   1.934   4.221   6.182 -0.3307 -0.1448 -0.1840
  148DOPC   H5R17638   1.979   4.120   6.182  1.2823  0.5273  0.9436
  148DOPC   H5S17639   2.019   4.277   6.228 -0.4305  0.1982 -0.4080
  148DOPC   C2617640   1.913   4.269   6.036  0.3940 -0.5820  0.2165
  148DOPC   H6R17641   2.017   4.272   5.996  0.4045 -2.4103  0.0554
  148DOPC   H6S17642   1.866   4.370   6.030  1.8313  0.0278 -1.6114
  148DOPC   C2717643   1.819   4.196   5.940  0.1417  0.5457 -0.2546
  148DOPC   H7R17644   1.822   4.252   5.844 -0.1138  1.1021  0.0565
  148DOPC   H7S17645   1.714   4.199   5.975  0.3441 -0.5693  0.5075
  148DOPC   C2817646   1.874   4.052   5.910  0.1136 -0.6954  0.1503
  148DOPC   H8R17647   1.800   4.012   5.837 -0.8795 -0.9885  1.2792
  148DOPC   H8S17648   1.860   3.995   6.005 -0.5757 -1.3183 -0.3089
  148DOPC   C2917649   2.012   4.030   5.867 -1.0905 -0.1463  0.0900
  148DOPC   H9R17650   2.079   4.062   5.948 -2.0839  3.2171 -0.2812
  148DOPC  C21017651   2.056   3.989   5.748 -0.1320  0.1937 -0.3843
  148DOPC  H10R17652   2.161   3.988   5.718 -0.1193  1.5761 -0.4366
  148DOPC  C21117653   1.970   3.970   5.630 -0.4907  0.7990  1.1241
  148DOPC  H11R17654   2.011   4.015   5.537  0.3055 -2.4838 -0.2859
  148DOPC  H11S17655   1.868   4.009   5.645 -0.3793  1.8563 -0.5827
  148DOPC  C21217656   1.949   3.818   5.600 -0.3327 -0.1571  0.2144
  148DOPC  H12R17657   2.042   3.761   5.582 -1.6599 -2.0417 -1.0668
  148DOPC  H12S17658   1.892   3.808   5.505 -0.8957  2.9911  0.0886
  148DOPC  C21317659   1.872   3.740   5.709 -0.6556 -0.2114  0.0993
  148DOPC  H13R17660   1.765   3.768   5.721 -0.7785  0.9996 -2.8205
  148DOPC  H13S17661   1.943   3.754   5.793  0.4142 -2.3655 -0.3595
  148DOPC  C21417662   1.877   3.590   5.694 -0.2311 -0.4443  0.0309
  148DOPC  H14R17663   1.975   3.556   5.736 -0.5506  0.2045  1.3673
  148DOPC  H14S17664   1.869   3.570   5.585 -2.4378 -0.7169  0.2025
  148DOPC  C21517665   1.751   3.530   5.761 -0.0429  0.5475  0.5062
  148DOPC  H15R17666   1.655   3.557   5.713  0.0201  3.0281  1.5976
  148DOPC  H15S17667   1.749   3.582   5.860  2.0109  2.3753 -0.3298
  148DOPC  C21617668   1.766   3.377   5.774  1.1374  0.4129 -0.1890
  148DOPC  H16R17669   1.841   3.352   5.851  0.8335  0.3219  0.0813
  148DOPC  H16S17670   1.795   3.334   5.676  1.8829 -0.0980  0.2451
  148DOPC  C21717671   1.633   3.313   5.815  0.0986 -0.6774 -0.3750
  148DOPC  H17R17672   1.631   3.202   5.825 -1.7619 -0.7575 -1.3842
  148DOPC  H17S17673   1.573   3.320   5.723 -0.1702  2.0531 -0.0621
  148DOPC  C21817674   1.560   3.362   5.944 -0.1237 -0.3551 -0.5623
  148DOPC  H18R17675   1.521   3.466   5.932 -1.0465 -0.6481 -0.2467
  148DOPC  H18S17676   1.627   3.362   6.032 -0.2276 -0.5288 -0.4824
  148DOPC  H18T17677   1.473   3.297   5.968 -1.1162  1.1582  0.1208
  148DOPC   C3317678   2.217   4.678   6.007 -0.4469  0.2140  0.4364
  148DOPC   H3X17679   2.316   4.630   6.024 -0.2175  0.6203  0.2533
  148DOPC   H3Y17680   2.230   4.788   6.016 -1.1804  0.1424  3.9593
  148DOPC   C3417681   2.170   4.639   5.866 -0.3718  0.0278  0.2910
  148DOPC   H4X17682   2.243   4.682   5.794 -1.5509 -1.3722 -1.8523
  148DOPC   H4Y17683   2.087   4.708   5.844  0.2152  0.5208 -0.4071
  148DOPC   C3517684   2.142   4.493   5.832  0.1574  0.3211 -0.0740
  148DOPC   H5X17685   2.056   4.464   5.896  0.8338 -0.7046  0.4116
  148DOPC   H5Y17686   2.221   4.428   5.877 -0.2335 -1.4690 -1.8373
  148DOPC   C3617687   2.099   4.469   5.684 -1.5450  0.2983  0.3701
  148DOPC   H6X17688   2.025   4.386   5.682 -1.5368  0.2695  1.0057
  148DOPC   H6Y17689   2.050   4.558   5.639 -0.5304  0.3381 -0.7007
  148DOPC   C3717690   2.220   4.436   5.596  0.1238 -0.0016 -0.4765
  148DOPC   H7X17691   2.293   4.520   5.601 -0.7979  0.8558 -1.0805
  148DOPC   H7Y17692   2.282   4.358   5.646  3.6214  3.2661  0.8524
  148DOPC   C3817693   2.178   4.411   5.448  0.0038 -0.5297 -0.4260
  148DOPC   H8X17694   2.263   4.437   5.381  0.5169  1.2955  0.8309
  148DOPC   H8Y17695   2.112   4.495   5.419  0.8899  0.1145 -0.6084
  148DOPC   C3917696   2.122   4.268   5.421  0.5267 -0.7178  0.2343
  148DOPC   H9X17697   2.036   4.247   5.486  1.1388 -1.1516  0.9097
  148DOPC  C31017698   2.164   4.181   5.327 -0.4801 -0.6071 -0.6198
  148DOPC  H10X17699   2.134   4.076   5.329  1.0457 -1.0630 -0.6367
  148DOPC  C31117700   2.264   4.212   5.218  0.3157 -0.0706 -1.4639
  148DOPC  H11X17701   2.323   4.120   5.199  0.9305 -0.3846  1.4475
  148DOPC  H11Y17702   2.342   4.280   5.261  0.9367 -0.4698 -1.9417
  148DOPC  C31217703   2.203   4.286   5.100 -0.4484  0.1405 -0.0688
  148DOPC  H12X17704   2.281   4.347   5.050  1.6803 -1.4536  1.1581
  148DOPC  H12Y17705   2.125   4.355   5.140  2.1310  3.8363 -0.8874
  148DOPC  C31317706   2.146   4.198   4.989 -0.6818 -0.0373  0.7631
  148DOPC  H13X17707   2.105   4.113   5.048  1.5702 -0.4804  1.8143
  148DOPC  H13Y17708   2.068   4.258   4.937  0.7846  0.9139 -0.4260
  148DOPC  C31417709   2.236   4.133   4.877 -0.5687 -0.5377 -0.3990
  148DOPC  H14X17710   2.286   4.208   4.812  1.1275 -0.8037  0.5273
  148DOPC  H14Y17711   2.322   4.083   4.928  2.0108  2.3970 -1.5486
  148DOPC  C31517712   2.154   4.044   4.782  0.0725 -0.0281 -0.4136
  148DOPC  H15X17713   2.093   4.119   4.728  1.4811  1.4590 -0.0304
  148DOPC  H15Y17714   2.092   3.971   4.838  2.9264 -0.1539  2.9362
  148DOPC  C31617715   2.250   3.980   4.683  0.0433  0.3555  0.1758
  148DOPC  H16X17716   2.325   4.056   4.654  0.4279  0.0041  0.2492
  148DOPC  H16Y17717   2.313   3.909   4.740 -2.8196 -0.3191  2.7426
  148DOPC  C31717718   2.178   3.941   4.549  0.1478 -0.4487 -0.3082
  148DOPC  H17X17719   2.115   3.854   4.574  1.2735 -0.9514  0.8554
  148DOPC  H17Y17720   2.104   4.019   4.519 -0.6663 -0.6300  1.1499
  148DOPC  C31817721   2.268   3.911   4.437 -0.4648  0.2389  0.5808
  148DOPC  H18X17722   2.298   3.805   4.445  1.5715  0.8812  2.7927
  148DOPC  H18Y17723   2.227   3.939   4.338 -1.8713 -0.6549  0.8860
  148DOPC  H18Z17724   2.360   3.974   4.433 -0.4832  0.2470  0.2909
  149DOPC     N17725   2.226   1.633   7.405  0.2074  0.1890  0.4101
  149DOPC   C1217726   2.287   1.651   7.263 -0.1151  0.0950  0.1150
  149DOPC  H12A17727   2.244   1.583   7.190 -0.7876  1.1917 -0.5380
  149DOPC  H12B17728   2.393   1.629   7.266  0.0735  0.5111 -1.8058
  149DOPC   C1317729   2.280   1.737   7.492 -0.7075 -0.1949 -0.0842
  149DOPC  H13A17730   2.252   1.837   7.461  1.3883  0.2391 -0.7521
  149DOPC  H13B17731   2.241   1.725   7.592  0.1148  0.3680  0.3157
  149DOPC  H13C17732   2.387   1.727   7.485 -0.5445  0.5706  1.0519
  149DOPC   C1417733   2.252   1.495   7.461 -1.0592  0.0775  0.0900
  149DOPC  H14A17734   2.212   1.489   7.561  0.7543 -1.1253  0.7922
  149DOPC  H14B17735   2.206   1.424   7.393 -0.0753 -0.6151  0.1230
  149DOPC  H14C17736   2.356   1.467   7.470 -1.5578 -1.9706 -0.0225
  149DOPC   C1517737   2.076   1.654   7.399 -0.4883 -0.1849 -0.1400
  149DOPC  H15A17738   2.054   1.747   7.349  1.7304  1.1063  1.1429
  149DOPC  H15B17739   2.036   1.674   7.497 -0.0438 -0.8214  0.1805
  149DOPC  H15C17740   2.028   1.572   7.347 -1.4638  0.2991 -0.0301
  149DOPC   C1117741   2.290   1.796   7.199 -0.2832 -0.6090 -0.4163
  149DOPC  H11A17742   2.301   1.797   7.088 -1.3736  0.0029 -0.5329
  149DOPC  H11B17743   2.191   1.839   7.226  0.2801  0.8698 -0.6028
  149DOPC     P17744   2.537   1.861   7.235  0.2917 -0.0085 -0.5835
  149DOPC   O1317745   2.590   1.729   7.280  0.2730  0.2768  0.3852
  149DOPC   O1417746   2.605   1.977   7.296 -0.2046 -0.0146 -0.5333
  149DOPC   O1217747   2.384   1.879   7.271 -0.0370 -0.1058 -0.4420
  149DOPC   O1117748   2.549   1.873   7.079  0.1917  0.2311 -0.7599
  149DOPC    C117749   2.504   1.985   7.005  0.0539 -0.2563 -0.2062
  149DOPC    HA17750   2.499   2.080   7.063  1.0225  0.1887 -0.8244
  149DOPC    HB17751   2.405   1.962   6.963  0.4269 -0.9666 -0.7148
  149DOPC    C217752   2.595   2.022   6.886 -0.1095  0.4668  1.1586
  149DOPC    HS17753   2.552   2.103   6.822  2.0312 -0.2607 -1.3901
  149DOPC   O2117754   2.613   1.899   6.804 -0.2155 -0.5415  0.1452
  149DOPC   C2117755   2.516   1.877   6.716  0.4432  0.3487 -0.3685
  149DOPC   O2217756   2.426   1.955   6.693 -0.2871 -0.2631 -0.0087
  149DOPC   C2217757   2.537   1.737   6.653 -0.3664 -0.1340 -0.3931
  149DOPC   H2R17758   2.590   1.678   6.731  1.3326  1.5318 -0.1921
  149DOPC   H2S17759   2.608   1.762   6.571  0.6669  2.6661  1.1731
  149DOPC    C317760   2.726   2.068   6.939  0.3372 -0.5346  0.0702
  149DOPC    HX17761   2.780   1.990   6.997  1.1114  2.2811  3.4933
  149DOPC    HY17762   2.710   2.152   7.010  1.2938 -0.5361  0.3091
  149DOPC   O3117763   2.802   2.113   6.824  0.7909 -0.0396 -0.1377
  149DOPC   C3117764   2.805   2.234   6.789 -0.8061  0.0837 -0.1430
  149DOPC   O3217765   2.748   2.324   6.845  0.4032  0.0964 -0.0020
  149DOPC   C3217766   2.900   2.241   6.664  0.9597 -0.3535  0.0624
  149DOPC   H2X17767   2.975   2.320   6.690 -0.9968  1.7738 -0.4132
  149DOPC   H2Y17768   2.941   2.139   6.648 -0.4013 -0.6686 -1.6962
  149DOPC   C2317769   2.397   1.687   6.615  0.4192  0.3802 -0.4612
  149DOPC   H3R17770   2.337   1.760   6.557 -0.1149  0.5007  0.2245
  149DOPC   H3S17771   2.341   1.678   6.710  0.1246 -0.4856 -0.7068
  149DOPC   C2417772   2.398   1.549   6.546 -0.1724  0.2302  0.2900
  149DOPC   H4R17773   2.430   1.538   6.440 -1.3257 -1.4813  0.0767
  149DOPC   H4S17774   2.291   1.520   6.556 -0.7520  1.7003 -1.2009
  149DOPC   C2517775   2.471   1.435   6.629 -0.8613  0.5349  0.6546
  149DOPC   H5R17776   2.452   1.437   6.739  0.2489 -1.7269  0.9550
  149DOPC   H5S17777   2.581   1.449   6.623 -0.7027 -1.0976 -1.0543
  149DOPC   C2617778   2.439   1.296   6.570  0.0248  0.2483 -0.4380
  149DOPC   H6R17779   2.424   1.310   6.461  2.4991  0.7159 -0.7645
  149DOPC   H6S17780   2.348   1.264   6.626  1.4454 -1.7894  0.8346
  149DOPC   C2717781   2.552   1.195   6.590 -0.3982 -0.0414 -0.5422
  149DOPC   H7R17782   2.568   1.205   6.700 -3.9148 -1.5723  0.2343
  149DOPC   H7S17783   2.635   1.241   6.531 -0.2462 -1.7765 -1.7445
  149DOPC   C2817784   2.533   1.053   6.544  0.0224  0.0988  0.5235
  149DOPC   H8R17785   2.476   1.055   6.449  1.4392 -0.3397 -0.3622
  149DOPC   H8S17786   2.458   1.004   6.610 -0.8050 -1.8831 -1.7451
  149DOPC   C2917787   2.649   0.965   6.548  0.2869  0.7021 -0.5994
  149DOPC   H9R17788   2.742   1.019   6.525  1.7080 -1.6811 -0.8424
  149DOPC  C21017789   2.650   0.834   6.569  0.5886  0.4982  0.1233
  149DOPC  H10R17790   2.748   0.782   6.569  1.2191  1.6119 -1.4060
  149DOPC  C21117791   2.534   0.739   6.600  0.4744 -0.2823  0.1111
  149DOPC  H11R17792   2.439   0.797   6.607  0.7783  0.2021  0.2328
  149DOPC  H11S17793   2.551   0.685   6.695  0.9657  0.9890  0.7629
  149DOPC  C21217794   2.519   0.641   6.478  0.6996  0.2920 -0.1732
  149DOPC  H12R17795   2.431   0.581   6.510 -1.5259  1.3452 -3.6887
  149DOPC  H12S17796   2.607   0.575   6.465 -0.1148 -1.2035  1.3997
  149DOPC  C21317797   2.481   0.723   6.358  0.0711 -0.5184  0.3326
  149DOPC  H13R17798   2.504   0.664   6.266  1.1213 -0.4580  0.5397
  149DOPC  H13S17799   2.521   0.826   6.345 -2.6531  0.3574 -2.5176
  149DOPC  C21417800   2.331   0.748   6.344  0.3441  0.3226 -0.0400
  149DOPC  H14R17801   2.294   0.827   6.413 -1.2348  1.9867 -2.6012
  149DOPC  H14S17802   2.277   0.651   6.354  3.3002 -1.4540 -0.2285
  149DOPC  C21517803   2.302   0.801   6.203 -0.6696 -0.8861 -0.1257
  149DOPC  H15R17804   2.344   0.730   6.129 -1.2524  1.0530 -2.4233
  149DOPC  H15S17805   2.358   0.897   6.205  1.5957 -2.1530  0.7280
  149DOPC  C21617806   2.157   0.837   6.165  0.0441 -0.2157  0.8714
  149DOPC  H16R17807   2.110   0.910   6.235 -0.6110  1.6001 -1.3648
  149DOPC  H16S17808   2.087   0.751   6.150 -1.4298  1.0577  0.1974
  149DOPC  C21717809   2.151   0.903   6.028  0.7129 -0.6298 -0.3436
  149DOPC  H17R17810   2.188   0.838   5.946  1.0345 -0.7745 -0.0829
  149DOPC  H17S17811   2.207   0.998   6.020  0.7363 -0.7393 -1.5527
  149DOPC  C21817812   2.003   0.939   5.987 -0.1574 -0.6658 -0.6022
  149DOPC  H18R17813   1.958   0.992   6.074  1.2611 -0.7350  0.2030
  149DOPC  H18S17814   1.940   0.849   5.970 -1.0423 -0.1519 -0.1048
  149DOPC  H18T17815   2.009   1.013   5.903 -1.2531  0.8961  0.6243
  149DOPC   C3317816   2.821   2.297   6.547  0.2357 -0.3920  0.7017
  149DOPC   H3X17817   2.880   2.311   6.454  0.1428  0.9102  0.8241
  149DOPC   H3Y17818   2.775   2.392   6.582  0.1635 -0.0466 -0.2879
  149DOPC   C3417819   2.710   2.197   6.509 -0.0351  0.4396 -0.1496
  149DOPC   H4X17820   2.642   2.179   6.595  0.4157  1.9078  0.5550
  149DOPC   H4Y17821   2.760   2.101   6.484  2.2144  0.9839  1.9416
  149DOPC   C3517822   2.626   2.248   6.391 -0.7527 -0.1129  0.1061
  149DOPC   H5X17823   2.693   2.254   6.302 -0.8330 -1.3593 -0.0632
  149DOPC   H5Y17824   2.587   2.349   6.412  0.9256  0.5509  0.1519
  149DOPC   C3617825   2.511   2.150   6.369  0.5134  0.0747 -0.1524
  149DOPC   H6X17826   2.449   2.167   6.459 -0.0011  2.4200 -0.8708
  149DOPC   H6Y17827   2.447   2.189   6.287 -1.5353  0.0319  1.3600
  149DOPC   C3717828   2.556   2.010   6.320  0.0251  0.4058  0.2723
  149DOPC   H7X17829   2.617   2.027   6.229  0.0471 -0.2994  0.1487
  149DOPC   H7Y17830   2.607   1.958   6.404 -0.9684 -2.3296 -0.7111
  149DOPC   C3817831   2.441   1.922   6.276  0.9009  0.1031  0.2704
  149DOPC   H8X17832   2.396   1.963   6.183 -2.3354 -2.0180  0.7432
  149DOPC   H8Y17833   2.360   1.920   6.352 -0.0100  0.8255 -0.6512
  149DOPC   C3917834   2.478   1.775   6.253  0.1742  0.0145 -0.2661
  149DOPC   H9X17835   2.462   1.716   6.345  0.8658  0.0611 -0.1110
  149DOPC  C31017836   2.501   1.727   6.126  0.2051 -0.1233 -0.4085
  149DOPC  H10X17837   2.527   1.621   6.112 -1.5720 -0.6906  0.2187
  149DOPC  C31117838   2.502   1.812   6.002  0.6235  0.6154 -0.0681
  149DOPC  H11X17839   2.493   1.922   6.015 -0.4907  1.0970 -3.7783
  149DOPC  H11Y17840   2.412   1.776   5.948  0.8618 -2.1590  1.2108
  149DOPC  C31217841   2.622   1.791   5.914  0.7366 -0.0516 -0.1302
  149DOPC  H12X17842   2.614   1.843   5.816  1.4202  0.7409  0.2225
  149DOPC  H12Y17843   2.635   1.683   5.894  0.0492 -0.1482 -0.0658
  149DOPC  C31317844   2.754   1.846   5.971  0.2542 -0.2991 -0.4898
  149DOPC  H13X17845   2.735   1.955   5.979 -0.1802 -0.2856 -1.4877
  149DOPC  H13Y17846   2.767   1.807   6.074 -1.4554  0.3796  0.0126
  149DOPC  C31417847   2.876   1.823   5.891 -0.5580 -0.5103  0.6021
  149DOPC  H14X17848   2.901   1.715   5.886  1.5023 -0.1250  1.4441
  149DOPC  H14Y17849   2.857   1.855   5.786  0.4292  1.7683  1.0500
  149DOPC  C31517850   2.999   1.903   5.926  0.0946  0.1045 -0.1061
  149DOPC  H15X17851   3.056   1.858   6.010  3.7515  1.9222 -1.4170
  149DOPC  H15Y17852   2.968   2.009   5.938 -1.7748 -0.1328 -2.1094
  149DOPC  C31617853   3.104   1.898   5.817 -0.8450 -0.4570  0.0750
  149DOPC  H16X17854   3.128   1.790   5.802  0.3997 -0.1232 -0.4489
  149DOPC  H16Y17855   3.058   1.937   5.723 -0.9198  2.2676  1.1641
  149DOPC  C31717856   3.244   1.962   5.843  0.0717  0.4904 -0.7710
  149DOPC  H17X17857   3.314   1.949   5.758  1.1341  0.6908  0.0481
  149DOPC  H17Y17858   3.240   2.072   5.856  0.6761  0.3489  0.9563
  149DOPC  C31817859   3.298   1.907   5.982 -0.3852 -0.2702 -0.7270
  149DOPC  H18X17860   3.249   1.964   6.065  1.9467  2.1989 -0.9173
  149DOPC  H18Y17861   3.282   1.799   6.004 -3.8117  0.5391  1.6533
  149DOPC  H18Z17862   3.406   1.934   5.984 -0.1042 -1.3493 -0.6710
  150DOPC     N17863   6.372   5.352   7.045 -1.0121 -0.2823 -0.9439
  150DOPC   C1217864   6.407   5.498   7.024  0.0825 -0.2928 -0.5458
  150DOPC  H12A17865   6.399   5.516   6.918 -1.8157  1.3966 -0.1642
  150DOPC  H12B17866   6.509   5.520   7.050 -0.0018  0.1289 -0.5618
  150DOPC   C1317867   6.243   5.321   6.983 -0.2949 -0.3772 -0.0716
  150DOPC  H13A17868   6.213   5.219   6.998  0.7665 -1.0149 -1.9045
  150DOPC  H13B17869   6.172   5.383   7.036  1.7727  2.2752 -0.1395
  150DOPC  H13C17870   6.242   5.355   6.880  1.6836  2.9022  0.8271
  150DOPC   C1417871   6.344   5.334   7.194 -0.1222 -0.0040 -0.7301
  150DOPC  H14A17872   6.355   5.229   7.220  2.1015  0.4340  0.4286
  150DOPC  H14B17873   6.411   5.386   7.261  3.8799 -2.7125 -2.2479
  150DOPC  H14C17874   6.244   5.369   7.211 -0.0171  0.4425 -1.0181
  150DOPC   C1517875   6.485   5.268   6.995 -0.1424  0.8328  0.5260
  150DOPC  H15A17876   6.503   5.294   6.891 -1.8012 -1.2883 -0.3592
  150DOPC  H15B17877   6.468   5.161   6.994  2.7437  0.2862 -0.0094
  150DOPC  H15C17878   6.576   5.272   7.053 -0.8384  0.7180  1.6603
  150DOPC   C1117879   6.311   5.594   7.088 -0.4120  0.2445 -0.4631
  150DOPC  H11A17880   6.308   5.575   7.197 -2.6771  0.2289 -0.4782
  150DOPC  H11B17881   6.352   5.697   7.078 -0.6672  0.5854  1.5695
  150DOPC     P17882   6.152   5.664   6.884  0.1118  0.2504  0.4723
  150DOPC   O1317883   6.158   5.808   6.912  0.0591 -0.2390 -0.2379
  150DOPC   O1417884   6.025   5.618   6.820  0.6349 -0.2564 -0.2296
  150DOPC   O1217885   6.187   5.589   7.021  0.5820  0.0300 -0.3748
  150DOPC   O1117886   6.279   5.624   6.780  0.4586 -0.5466 -0.0955
  150DOPC    C117887   6.348   5.735   6.723  0.2256  0.4525 -0.3250
  150DOPC    HA17888   6.446   5.696   6.689  1.2153  0.5069  2.2340
  150DOPC    HB17889   6.378   5.815   6.795  0.7959  0.9218 -1.0764
  150DOPC    C217890   6.262   5.778   6.594  0.0370 -0.1441 -0.0194
  150DOPC    HS17891   6.164   5.814   6.632  0.0707  1.2543 -1.1678
  150DOPC   O2117892   6.229   5.668   6.513  0.2524  0.6652  0.1469
  150DOPC   C2117893   6.134   5.693   6.418 -0.6660  0.0164  0.2896
  150DOPC   O2217894   6.068   5.791   6.409 -0.1241  0.0010  0.0069
  150DOPC   C2217895   6.138   5.587   6.308  0.2321  0.1295 -0.5320
  150DOPC   H2R17896   6.158   5.487   6.352 -0.3751 -0.2475 -1.0851
  150DOPC   H2S17897   6.229   5.615   6.251  0.0099  2.0208 -0.0384
  150DOPC    C317898   6.343   5.889   6.517 -0.0011 -0.0089  0.5363
  150DOPC    HX17899   6.355   5.981   6.580  1.1209 -1.1257  2.0300
  150DOPC    HY17900   6.272   5.909   6.434 -2.3717 -3.0981  1.6110
  150DOPC   O3117901   6.463   5.844   6.452 -0.5541  0.4796  0.5702
  150DOPC   C3117902   6.576   5.865   6.514 -1.0697  0.2080 -0.4667
  150DOPC   O3217903   6.594   5.920   6.618  0.7001 -0.1049 -0.0712
  150DOPC   C3217904   6.694   5.802   6.435  0.1255  0.0112 -0.6075
  150DOPC   H2X17905   6.785   5.836   6.488 -0.3493  0.4753 -0.0847
  150DOPC   H2Y17906   6.687   5.694   6.463  0.7324  0.8719  3.4015
  150DOPC   C2317907   6.005   5.586   6.226 -0.2892 -0.1096  0.5396
  150DOPC   H3R17908   6.004   5.685   6.177 -0.5956 -0.3919 -0.0356
  150DOPC   H3S17909   5.913   5.576   6.288 -1.7068  0.2641 -1.4385
  150DOPC   C2417910   6.018   5.489   6.109 -0.5625 -0.0414 -0.8900
  150DOPC   H4R17911   6.032   5.388   6.155 -0.9142  0.5268  0.5053
  150DOPC   H4S17912   6.100   5.522   6.042 -0.4563  0.4091 -0.5450
  150DOPC   C2517913   5.889   5.493   6.016 -0.0701 -0.2219  0.1318
  150DOPC   H5R17914   5.804   5.482   6.087 -0.8459  1.2127 -0.5326
  150DOPC   H5S17915   5.892   5.402   5.953 -0.7971 -0.6140  0.6392
  150DOPC   C2617916   5.882   5.619   5.930  0.7624 -0.0195 -0.2520
  150DOPC   H6R17917   5.972   5.624   5.866 -0.5693  0.7577 -2.1872
  150DOPC   H6S17918   5.881   5.710   5.994  1.2883 -2.3062  3.2473
  150DOPC   C2717919   5.750   5.617   5.840 -0.4432 -0.1403 -1.3243
  150DOPC   H7R17920   5.653   5.595   5.889  0.5039 -0.0552  0.6794
  150DOPC   H7S17921   5.777   5.539   5.765 -1.1477  0.4177 -2.1859
  150DOPC   C2817922   5.742   5.743   5.753  0.4162  0.0138 -1.0173
  150DOPC   H8R17923   5.702   5.828   5.812  0.0295  0.5821 -2.0653
  150DOPC   H8S17924   5.663   5.740   5.675 -1.7703  0.8120  1.0331
  150DOPC   C2917925   5.874   5.784   5.684  0.6963  0.7800  0.4715
  150DOPC   H9R17926   5.951   5.707   5.670  1.5811  1.8512 -0.8524
  150DOPC  C21017927   5.916   5.909   5.668 -0.4389 -0.1870 -0.5665
  150DOPC  H10R17928   6.024   5.925   5.652 -0.1880 -1.2767 -0.0792
  150DOPC  C21117929   5.849   6.041   5.691  0.1199  0.6072 -0.8049
  150DOPC  H11R17930   5.895   6.090   5.780  0.2549  0.2058 -0.6522
  150DOPC  H11S17931   5.743   6.021   5.719 -0.2463 -1.6306 -3.4347
  150DOPC  C21217932   5.854   6.141   5.573  0.1332  0.2229  0.0476
  150DOPC  H12R17933   5.800   6.098   5.486  0.0088  1.9296 -0.7647
  150DOPC  H12S17934   5.962   6.156   5.549  0.5573 -2.1131  0.2475
  150DOPC  C21317935   5.792   6.279   5.611  0.6858  0.9307  0.7721
  150DOPC  H13R17936   5.845   6.305   5.706  0.5804 -1.3662  1.5044
  150DOPC  H13S17937   5.686   6.280   5.642 -0.3308  2.6828 -2.3736
  150DOPC  C21417938   5.834   6.387   5.501  0.8749 -0.7936 -0.0519
  150DOPC  H14R17939   5.781   6.367   5.405  0.8696 -0.4012 -0.1294
  150DOPC  H14S17940   5.942   6.380   5.473  0.6779  0.8922 -1.3582
  150DOPC  C21517941   5.807   6.534   5.537 -0.1155  0.2062 -0.2583
  150DOPC  H15R17942   5.706   6.544   5.582 -0.5444 -0.2754 -1.0917
  150DOPC  H15S17943   5.801   6.604   5.452  1.1413  0.7741  0.0921
  150DOPC  C21617944   5.907   6.578   5.640  0.0103 -0.1394 -0.3712
  150DOPC  H16R17945   5.998   6.516   5.622  2.1953  1.8297  2.7894
  150DOPC  H16S17946   5.877   6.562   5.745  0.7580  4.0025  0.6665
  150DOPC  C21717947   5.941   6.726   5.641  0.1223 -0.9860  0.2052
  150DOPC  H17R17948   5.996   6.765   5.553 -1.8074 -0.7872 -0.9680
  150DOPC  H17S17949   6.011   6.736   5.727 -2.0683  1.3358  1.8648
  150DOPC  C21817950   5.827   6.826   5.672  0.0448 -0.0331 -0.5858
  150DOPC  H18R17951   5.879   6.924   5.682  1.8767 -1.0324  0.3056
  150DOPC  H18S17952   5.796   6.814   5.778  1.9134 -0.3703 -0.0283
  150DOPC  H18T17953   5.749   6.827   5.593 -0.6881  1.1848  0.1167
  150DOPC   C3317954   6.692   5.835   6.286 -0.0800  0.1583 -0.1262
  150DOPC   H3X17955   6.700   5.943   6.260  1.4255  0.1972  0.4088
  150DOPC   H3Y17956   6.598   5.797   6.240  0.3198 -0.8475 -0.1272
  150DOPC   C3417957   6.797   5.763   6.212 -0.2160 -0.0009  0.1259
  150DOPC   H4X17958   6.774   5.655   6.225  2.3435 -0.6220 -0.1285
  150DOPC   H4Y17959   6.896   5.773   6.261 -0.5620 -2.1302  1.4166
  150DOPC   C3517960   6.796   5.775   6.055 -0.4875 -0.1116 -0.2150
  150DOPC   H5X17961   6.809   5.881   6.026  0.0171 -0.7483 -2.4805
  150DOPC   H5Y17962   6.696   5.745   6.016 -1.0361  1.1741  0.1739
  150DOPC   C3617963   6.907   5.685   5.990  0.4144 -0.9334 -0.1388
  150DOPC   H6X17964   7.010   5.718   6.016  0.4909 -0.5797 -0.8650
  150DOPC   H6Y17965   6.907   5.583   6.036  2.3817 -0.1721  1.7202
  150DOPC   C3717966   6.903   5.670   5.835  1.2128 -0.2874  0.3912
  150DOPC   H7X17967   6.934   5.766   5.787 -0.6465 -0.3234 -1.0154
  150DOPC   H7Y17968   6.979   5.593   5.810  0.6434 -0.7255 -0.0088
  150DOPC   C3817969   6.766   5.622   5.773  0.5345  0.1739  0.3705
  150DOPC   H8X17970   6.693   5.705   5.779  0.3257 -0.0534  1.0397
  150DOPC   H8Y17971   6.721   5.545   5.840  0.0538  0.6788  0.6376
  150DOPC   C3917972   6.789   5.557   5.638 -0.3688 -0.0652  0.4631
  150DOPC   H9X17973   6.802   5.449   5.627 -0.9691 -0.0796 -0.1798
  150DOPC  C31017974   6.757   5.619   5.517  0.5068 -0.6710 -0.1214
  150DOPC  H10X17975   6.746   5.556   5.428 -0.5566 -0.8873  0.1496
  150DOPC  C31117976   6.707   5.760   5.498  0.0355  0.1011  0.1064
  150DOPC  H11X17977   6.787   5.835   5.518 -0.4630  0.8561 -0.6709
  150DOPC  H11Y17978   6.612   5.767   5.555 -0.4966  0.2749 -0.7920
  150DOPC  C31217979   6.660   5.773   5.349  0.0405  0.0771 -0.0372
  150DOPC  H12X17980   6.744   5.757   5.278 -0.8222  0.0149 -1.0536
  150DOPC  H12Y17981   6.627   5.878   5.338 -2.2999 -0.5646  0.4085
  150DOPC  C31317982   6.543   5.682   5.302  0.1544  0.0144  0.7103
  150DOPC  H13X17983   6.568   5.574   5.298  2.2215  0.4875 -1.1247
  150DOPC  H13Y17984   6.455   5.704   5.366 -0.8255  0.6909 -0.8184
  150DOPC  C31417985   6.491   5.711   5.153  0.8589 -1.2908 -0.4134
  150DOPC  H14X17986   6.414   5.640   5.115  0.7527 -1.6832  0.5034
  150DOPC  H14Y17987   6.446   5.811   5.138  3.3226 -0.2707 -1.5445
  150DOPC  C31517988   6.603   5.713   5.049  0.5720  0.4170  0.5997
  150DOPC  H15X17989   6.654   5.616   5.064 -1.5874 -0.6034  1.9625
  150DOPC  H15Y17990   6.662   5.807   5.054  0.0288  0.7357  1.3597
  150DOPC  C31617991   6.553   5.711   4.903 -0.6195  0.1544 -0.7279
  150DOPC  H16X17992   6.457   5.655   4.901 -0.3806 -0.2422 -1.6278
  150DOPC  H16Y17993   6.515   5.814   4.885 -0.5197  0.2804 -0.2301
  150DOPC  C31717994   6.652   5.652   4.797 -0.8570 -0.1198  0.1718
  150DOPC  H17X17995   6.746   5.709   4.812  1.1529 -3.1006 -0.3453
  150DOPC  H17Y17996   6.680   5.548   4.824 -0.5832 -0.4870 -1.4437
  150DOPC  C31817997   6.607   5.679   4.656 -0.3616 -0.1208 -0.2168
  150DOPC  H18X17998   6.525   5.611   4.623  0.9928 -2.0340  0.2348
  150DOPC  H18Y17999   6.575   5.786   4.653 -1.8886 -0.5468 -0.3052
  150DOPC  H18Z18000   6.690   5.662   4.585  1.3735 -0.6534  1.8282
  151DOPC     N18001   1.444   3.254   7.223 -0.2770  0.8075  0.8162
  151DOPC   C1218002   1.413   3.162   7.105 -0.1111  0.0093 -0.2491
  151DOPC  H12A18003   1.505   3.159   7.048 -0.6503 -2.7532 -1.1243
  151DOPC  H12B18004   1.325   3.196   7.053  0.6593  2.4891 -0.0329
  151DOPC   C1318005   1.588   3.247   7.272 -0.6028 -0.4205 -0.0470
  151DOPC  H13A18006   1.656   3.312   7.218 -0.9582 -1.5177 -1.9170
  151DOPC  H13B18007   1.589   3.283   7.374  1.4013 -0.4837 -0.0094
  151DOPC  H13C18008   1.622   3.145   7.267 -1.6501 -0.9746  2.5829
  151DOPC   C1418009   1.347   3.220   7.329 -0.2530  0.0738  0.2038
  151DOPC  H14A18010   1.371   3.120   7.362 -0.8341  0.4471  1.8554
  151DOPC  H14B18011   1.349   3.297   7.405  2.7638 -1.0121  1.3530
  151DOPC  H14C18012   1.247   3.220   7.286  0.7533 -1.3302 -2.3539
  151DOPC   C1518013   1.418   3.395   7.162  0.4289 -0.3829 -0.7226
  151DOPC  H15A18014   1.429   3.474   7.234 -1.1488 -1.3266  0.6169
  151DOPC  H15B18015   1.313   3.397   7.134  0.5438  2.9410 -1.2495
  151DOPC  H15C18016   1.472   3.412   7.070 -0.7552 -1.3877 -1.6486
  151DOPC   C1118017   1.396   3.008   7.132  0.1172 -0.6474 -0.6890
  151DOPC  H11A18018   1.299   2.992   7.184  0.9159 -1.9044  0.4843
  151DOPC  H11B18019   1.383   2.945   7.041 -3.4051 -0.7614 -0.2203
  151DOPC     P18020   1.622   2.871   7.168  0.3986 -0.1203 -0.0079
  151DOPC   O1318021   1.663   2.785   7.287  0.2246  0.4552  0.4842
  151DOPC   O1418022   1.720   2.965   7.109 -0.1819  0.4549  0.6175
  151DOPC   O1218023   1.495   2.952   7.216  0.0733  0.5901  0.6297
  151DOPC   O1118024   1.562   2.779   7.048  0.2661 -0.3244 -0.2834
  151DOPC    C118025   1.660   2.711   6.976 -0.0070 -0.5477 -0.7513
  151DOPC    HA18026   1.678   2.616   7.029 -0.1302 -0.8957 -1.3270
  151DOPC    HB18027   1.755   2.768   6.967  0.6837 -0.5625  3.8272
  151DOPC    C218028   1.608   2.668   6.831 -0.6437 -1.0013 -0.2825
  151DOPC    HS18029   1.530   2.590   6.840 -0.1987 -1.3513  0.6566
  151DOPC   O2118030   1.717   2.629   6.746 -0.4596 -0.1813 -0.4448
  151DOPC   C2118031   1.780   2.516   6.794  0.0774 -0.2807  0.8756
  151DOPC   O2218032   1.741   2.443   6.882 -0.2596 -0.0514 -1.0508
  151DOPC   C2218033   1.919   2.506   6.738 -0.0290 -0.2061 -0.9369
  151DOPC   H2R18034   1.997   2.524   6.815  0.2244 -2.4546 -0.6081
  151DOPC   H2S18035   1.919   2.575   6.650 -0.8987  1.6432  0.4335
  151DOPC    C318036   1.533   2.798   6.762 -0.4298 -0.1758 -0.0442
  151DOPC    HX18037   1.607   2.881   6.768 -1.7981  1.1593 -0.8668
  151DOPC    HY18038   1.447   2.823   6.827 -1.0809 -0.6178 -0.7129
  151DOPC   O3118039   1.499   2.781   6.624  0.6314 -0.2125 -0.4516
  151DOPC   C3118040   1.410   2.696   6.600  0.0136 -0.1772  0.1858
  151DOPC   O3218041   1.333   2.642   6.679  0.2757  0.0571  0.3987
  151DOPC   C3218042   1.396   2.697   6.448  0.3672 -0.2766  0.1856
  151DOPC   H2X18043   1.460   2.777   6.405  0.6867 -0.4169  0.3959
  151DOPC   H2Y18044   1.432   2.602   6.402 -1.8859 -0.5192 -1.2306
  151DOPC   C2318045   1.963   2.362   6.685 -0.3333  0.3415 -0.3116
  151DOPC   H3R18046   1.956   2.288   6.768  0.3379 -0.5468 -1.0191
  151DOPC   H3S18047   2.064   2.382   6.644 -1.6290 -0.0991 -4.1422
  151DOPC   C2418048   1.884   2.324   6.566 -0.7656  0.2788 -0.2124
  151DOPC   H4R18049   1.907   2.391   6.481 -1.1244 -0.6747 -1.0820
  151DOPC   H4S18050   1.778   2.329   6.599 -0.4289  2.5529  0.7069
  151DOPC   C2518051   1.923   2.180   6.530  0.0221  0.8632  0.7081
  151DOPC   H5R18052   1.910   2.124   6.624 -3.0665  0.5243  0.1832
  151DOPC   H5S18053   2.028   2.172   6.492  0.3600  2.8823  1.1049
  151DOPC   C2618054   1.832   2.108   6.430 -0.2564  0.4667 -0.7206
  151DOPC   H6R18055   1.724   2.105   6.456  0.2240 -2.5873  1.5887
  151DOPC   H6S18056   1.860   2.000   6.431 -1.1267  0.2353 -0.6462
  151DOPC   C2718057   1.844   2.157   6.280 -0.1672 -0.4070 -0.3881
  151DOPC   H7R18058   1.820   2.266   6.279  2.1874  0.1509 -1.0251
  151DOPC   H7S18059   1.766   2.101   6.222 -1.7025  1.0162  0.2166
  151DOPC   C2818060   1.987   2.148   6.213  1.2724  0.8772 -0.2307
  151DOPC   H8R18061   2.056   2.211   6.273  0.0711  2.4821 -0.4595
  151DOPC   H8S18062   1.978   2.203   6.117 -1.0158 -0.9293 -1.1382
  151DOPC   C2918063   2.035   2.009   6.197 -0.2703 -0.4717 -1.2409
  151DOPC   H9R18064   1.996   1.933   6.267 -1.2334 -0.8098 -2.1174
  151DOPC  C21018065   2.090   1.951   6.091 -0.0683 -0.1993  0.4700
  151DOPC  H10R18066   2.140   1.854   6.106  1.2580  0.5712  1.3007
  151DOPC  C21118067   2.112   2.019   5.956  0.2713 -0.5874 -0.4298
  151DOPC  H11R18068   2.012   2.066   5.939 -0.2969 -0.8808  1.7708
  151DOPC  H11S18069   2.132   1.942   5.878  0.4538 -1.6571  0.6468
  151DOPC  C21218070   2.215   2.137   5.963 -1.1310 -0.3426 -0.3906
  151DOPC  H12R18071   2.315   2.088   5.961 -0.4695  0.9561 -2.3822
  151DOPC  H12S18072   2.220   2.204   6.052  2.8897  0.0308 -0.6868
  151DOPC  C21318073   2.217   2.236   5.848 -0.0660 -0.1131 -0.2208
  151DOPC  H13R18074   2.287   2.318   5.874 -1.9429  1.2617  0.7350
  151DOPC  H13S18075   2.112   2.273   5.844 -0.7722 -1.8978  0.5207
  151DOPC  C21418076   2.258   2.163   5.720 -0.2876 -0.6097 -0.7808
  151DOPC  H14R18077   2.199   2.073   5.694  0.0517 -0.6441 -1.4574
  151DOPC  H14S18078   2.354   2.116   5.751  0.5783 -0.2971 -2.8259
  151DOPC  C21518079   2.291   2.262   5.609  0.4790 -0.8545  0.4197
  151DOPC  H15R18080   2.359   2.340   5.650 -1.1219  1.3042 -0.8164
  151DOPC  H15S18081   2.199   2.315   5.575  2.0879  1.4327 -0.6386
  151DOPC  C21618082   2.361   2.195   5.480  0.3011 -0.1948 -0.5066
  151DOPC  H16R18083   2.304   2.106   5.444  0.4885 -0.5406  0.0320
  151DOPC  H16S18084   2.464   2.161   5.504  0.6844 -0.6456 -2.6302
  151DOPC  C21718085   2.363   2.296   5.370 -0.6109 -0.3796  0.4153
  151DOPC  H17R18086   2.404   2.388   5.418  2.7182 -2.3746  1.7570
  151DOPC  H17S18087   2.267   2.329   5.326  1.1595  1.9538 -2.0567
  151DOPC  C21818088   2.446   2.238   5.256  0.5448  0.6313  0.0708
  151DOPC  H18R18089   2.453   2.127   5.261  1.5696  0.7129  0.7238
  151DOPC  H18S18090   2.549   2.280   5.253  0.5554  0.5748 -0.4743
  151DOPC  H18T18091   2.394   2.265   5.162  2.2089  0.7724 -0.8565
  151DOPC   C3318092   1.255   2.729   6.398  1.0988  0.1559  0.4599
  151DOPC   H3X18093   1.221   2.822   6.449 -1.7210 -0.7989  0.4841
  151DOPC   H3Y18094   1.194   2.640   6.423  1.6951 -0.2142  0.6165
  151DOPC   C3418095   1.262   2.758   6.254 -0.7889  0.3189 -0.2118
  151DOPC   H4X18096   1.158   2.753   6.215 -0.4842 -0.4394 -0.9551
  151DOPC   H4Y18097   1.325   2.685   6.200 -0.6924  1.2396 -1.3842
  151DOPC   C3518098   1.303   2.908   6.225 -0.0388  0.2614 -0.4343
  151DOPC   H5X18099   1.372   2.934   6.308  0.4661  0.7921 -1.0114
  151DOPC   H5Y18100   1.211   2.970   6.235  0.2598  0.6606 -0.1163
  151DOPC   C3618101   1.363   2.928   6.089 -0.7696 -0.6592  0.4658
  151DOPC   H6X18102   1.398   3.033   6.075  1.5894 -1.3645  0.5365
  151DOPC   H6Y18103   1.456   2.867   6.080 -0.3853 -0.1265  0.7337
  151DOPC   C3718104   1.265   2.881   5.972  0.1192  0.1960 -0.6657
  151DOPC   H7X18105   1.226   2.778   5.985  1.0806  0.0991  2.1853
  151DOPC   H7Y18106   1.178   2.950   5.963  0.6420  0.9022 -0.3839
  151DOPC   C3818107   1.347   2.873   5.843  0.3836  0.1327  0.2161
  151DOPC   H8X18108   1.438   2.811   5.861 -0.7018 -1.5967 -0.0941
  151DOPC   H8Y18109   1.374   2.977   5.816 -1.2306  0.6662  0.6011
  151DOPC   C3918110   1.271   2.810   5.723 -0.6657 -0.7419 -0.6947
  151DOPC   H9X18111   1.233   2.711   5.752  0.2013 -0.5002  1.4262
  151DOPC  C31018112   1.263   2.859   5.597  0.4557  0.0567 -0.2231
  151DOPC  H10X18113   1.210   2.800   5.520 -1.0810  0.3200  0.5877
  151DOPC  C31118114   1.306   2.998   5.552 -0.3118 -0.6919 -0.0595
  151DOPC  H11X18115   1.385   3.037   5.620  0.2159 -0.7821 -0.6055
  151DOPC  H11Y18116   1.221   3.069   5.552  0.7416  0.5978 -0.2062
  151DOPC  C31218117   1.385   2.980   5.421 -0.0381 -0.2713 -0.5087
  151DOPC  H12X18118   1.468   2.907   5.427 -0.1798 -0.3511  0.6411
  151DOPC  H12Y18119   1.428   3.078   5.392  0.2623 -0.2730 -0.0795
  151DOPC  C31318120   1.304   2.936   5.297  0.1724  0.1795 -0.3811
  151DOPC  H13X18121   1.355   2.941   5.198 -0.0069 -0.1319 -0.4903
  151DOPC  H13Y18122   1.280   2.830   5.319 -4.1672  1.2119  0.8517
  151DOPC  C31418123   1.177   3.021   5.265 -0.0156  0.2738 -0.2850
  151DOPC  H14X18124   1.099   3.015   5.345 -0.2048  1.4936 -0.3530
  151DOPC  H14Y18125   1.204   3.129   5.269 -0.1993  0.3559 -1.1277
  151DOPC  C31518126   1.105   2.972   5.138  0.2724  0.2904 -0.5150
  151DOPC  H15X18127   1.075   2.867   5.159  0.0648  0.7555  1.7291
  151DOPC  H15Y18128   1.171   2.968   5.049  1.0641  0.8235  0.0418
  151DOPC  C31618129   0.980   3.045   5.094  0.0663  0.2814 -0.5482
  151DOPC  H16X18130   0.922   2.979   5.027 -1.9416  1.3739  0.0444
  151DOPC  H16Y18131   0.926   3.069   5.188  1.0907  2.1396 -0.3884
  151DOPC  C31718132   1.018   3.171   5.011 -0.0250  0.3769  0.1771
  151DOPC  H17X18133   1.098   3.233   5.057 -1.2425  1.2105  1.2355
  151DOPC  H17Y18134   1.062   3.134   4.916  0.3280 -0.9858  0.8487
  151DOPC  C31818135   0.901   3.264   4.983  0.1793  0.3642  0.3073
  151DOPC  H18X18136   0.824   3.203   4.931  1.1912 -1.1221  0.4926
  151DOPC  H18Y18137   0.869   3.307   5.081  3.5052  0.1283  1.6090
  151DOPC  H18Z18138   0.930   3.352   4.921 -1.1849  0.0196 -0.8742
  152DOPC     N18139   4.485   0.679   7.205  0.2639  0.0794  0.4157
  152DOPC   C1218140   4.439   0.736   7.069 -0.2013 -0.1693  0.0291
  152DOPC  H12A18141   4.333   0.716   7.061  0.0116 -1.2577 -0.2503
  152DOPC  H12B18142   4.497   0.680   6.998  2.3743  2.5893 -0.2634
  152DOPC   C1318143   4.442   0.538   7.224 -0.5296 -0.3114  1.0274
  152DOPC  H13A18144   4.459   0.506   7.326  1.4134  0.0727  0.8495
  152DOPC  H13B18145   4.336   0.520   7.210 -0.6910  1.1335  0.1959
  152DOPC  H13C18146   4.487   0.482   7.144  0.3938  1.8095 -0.0142
  152DOPC   C1418147   4.430   0.759   7.320 -0.1752 -0.5237 -0.2181
  152DOPC  H14A18148   4.322   0.762   7.315 -0.1588  1.1823 -0.1870
  152DOPC  H14B18149   4.463   0.701   7.404 -1.0544  0.8304  1.1041
  152DOPC  H14C18150   4.465   0.861   7.309 -0.0145 -0.4052  1.2330
  152DOPC   C1518151   4.637   0.694   7.217 -0.0688  0.1107  0.0334
  152DOPC  H15A18152   4.688   0.648   7.133  1.0274  1.2419  0.0537
  152DOPC  H15B18153   4.683   0.651   7.304  2.0720 -1.2899 -1.6744
  152DOPC  H15C18154   4.667   0.797   7.208 -0.5754  0.1699 -1.1132
  152DOPC   C1118155   4.470   0.880   7.045  0.5701  0.0192  0.0090
  152DOPC  H11A18156   4.577   0.905   7.063 -0.0361  3.2134 -0.1745
  152DOPC  H11B18157   4.460   0.898   6.935 -0.0126 -1.8781 -0.2806
  152DOPC     P18158   4.240   0.990   7.109 -0.1823  0.0882 -0.1010
  152DOPC   O1318159   4.199   1.086   7.204 -0.0664  0.2143 -0.4243
  152DOPC   O1418160   4.169   0.859   7.104  0.5573  0.1409 -0.1667
  152DOPC   O1218161   4.397   0.972   7.130 -0.2777 -0.3552 -0.2818
  152DOPC   O1118162   4.235   1.047   6.964  0.2791 -0.2756  0.3200
  152DOPC    C118163   4.185   0.961   6.859  0.3752  0.0783  0.9574
  152DOPC    HA18164   4.236   0.862   6.860  1.4746  0.5734 -1.0677
  152DOPC    HB18165   4.229   0.994   6.763  0.1215 -0.7277  0.5586
  152DOPC    C218166   4.029   0.954   6.846  0.4311  0.2586 -0.9001
  152DOPC    HS18167   3.988   0.895   6.931  0.8000  1.7470  0.3640
  152DOPC   O2118168   3.980   0.910   6.717 -0.2424  0.2291 -0.3281
  152DOPC   C2118169   3.969   0.771   6.704 -0.3769  0.3258  0.0278
  152DOPC   O2218170   4.019   0.692   6.783 -0.0226  0.3487 -0.0132
  152DOPC   C2218171   3.918   0.736   6.569  0.1265 -0.4706  0.0199
  152DOPC   H2R18172   3.854   0.822   6.539 -0.7120  0.3506  3.7057
  152DOPC   H2S18173   3.858   0.643   6.573 -0.2013 -0.4027 -2.2286
  152DOPC    C318174   3.967   1.095   6.864  0.2200  0.4491  0.0937
  152DOPC    HX18175   4.000   1.159   6.779 -0.0474 -0.9420 -1.0864
  152DOPC    HY18176   4.010   1.138   6.956  0.3602 -0.2761  0.3685
  152DOPC   O3118177   3.820   1.081   6.876  0.3519 -0.1913 -0.9125
  152DOPC   C3118178   3.761   1.196   6.868 -0.4522 -1.0809  0.5981
  152DOPC   O3218179   3.817   1.306   6.872 -0.2051 -0.2494  0.2666
  152DOPC   C3218180   3.611   1.164   6.866 -0.1829 -0.0703 -0.5594
  152DOPC   H2X18181   3.597   1.064   6.821  1.6919 -1.9921  2.7960
  152DOPC   H2Y18182   3.579   1.164   6.973  0.6016 -2.4335 -0.2799
  152DOPC   C2318183   4.036   0.728   6.465  0.5987 -1.0639  0.6155
  152DOPC   H3R18184   3.992   0.702   6.366 -2.4256 -0.2383  1.6277
  152DOPC   H3S18185   4.117   0.657   6.491  1.4175 -0.4018 -0.0232
  152DOPC   C2418186   4.111   0.864   6.438  0.1346  0.5616 -0.0201
  152DOPC   H4R18187   4.202   0.863   6.500  0.9482 -0.8580 -1.1802
  152DOPC   H4S18188   4.050   0.945   6.484  0.0828 -0.3085  1.4991
  152DOPC   C2518189   4.151   0.898   6.291  0.0753 -0.1526  0.0823
  152DOPC   H5R18190   4.188   1.003   6.284 -0.1180 -0.1008 -0.1834
  152DOPC   H5S18191   4.059   0.903   6.228 -1.2965 -0.2383  1.9697
  152DOPC   C2618192   4.268   0.821   6.246 -0.1903  0.6562 -0.0682
  152DOPC   H6R18193   4.230   0.718   6.228  2.8571 -0.6887  0.5116
  152DOPC   H6S18194   4.348   0.823   6.322  0.9984  2.6760 -1.2684
  152DOPC   C2718195   4.330   0.869   6.116 -0.0531 -0.0236 -0.3670
  152DOPC   H7R18196   4.429   0.819   6.107 -0.2712 -0.5313  0.0054
  152DOPC   H7S18197   4.356   0.977   6.125  1.3096 -0.2090 -1.6804
  152DOPC   C2818198   4.244   0.861   5.989 -0.4624  0.3097  0.6979
  152DOPC   H8R18199   4.295   0.911   5.904 -2.0919 -1.7188 -1.5905
  152DOPC   H8S18200   4.150   0.916   6.008 -0.0748  0.0299  4.1879
  152DOPC   C2918201   4.218   0.714   5.960  0.3180  0.0015 -0.2499
  152DOPC   H9R18202   4.211   0.639   6.040  0.3788  0.7915  0.5060
  152DOPC  C21018203   4.187   0.661   5.837 -0.2203  0.2221 -0.3382
  152DOPC  H10R18204   4.180   0.551   5.831  2.8254 -0.0818 -0.2530
  152DOPC  C21118205   4.152   0.745   5.715  0.3596 -0.8311  0.5665
  152DOPC  H11R18206   4.222   0.730   5.630 -2.5486 -3.4159 -1.6385
  152DOPC  H11S18207   4.166   0.853   5.738  0.5713 -0.8533  0.5436
  152DOPC  C21218208   4.007   0.707   5.674 -0.5855  0.8279  0.0330
  152DOPC  H12R18209   3.983   0.599   5.664 -2.0598  1.0663  0.6731
  152DOPC  H12S18210   3.990   0.749   5.572 -0.2819  1.3595  0.2000
  152DOPC  C21318211   3.898   0.771   5.760  0.3596 -0.4519 -0.0316
  152DOPC  H13R18212   3.888   0.711   5.853 -0.6305  0.2740  0.3484
  152DOPC  H13S18213   3.801   0.751   5.710  1.4208 -1.1604 -1.9253
  152DOPC  C21418214   3.905   0.919   5.799 -0.8330 -0.3094  0.3457
  152DOPC  H14R18215   3.958   0.974   5.718 -2.0624  0.8273  0.2810
  152DOPC  H14S18216   3.951   0.945   5.897 -0.6918  0.2833  0.1285
  152DOPC  C21518217   3.775   0.990   5.769 -0.1283 -0.3998  0.4594
  152DOPC  H15R18218   3.740   0.965   5.666  1.2288  0.0062 -0.1231
  152DOPC  H15S18219   3.808   1.095   5.752  0.4427 -0.6978 -0.3356
  152DOPC  C21618220   3.661   0.981   5.874  0.1976 -0.1842 -0.4406
  152DOPC  H16R18221   3.704   1.017   5.970 -0.3781  0.5593 -0.4524
  152DOPC  H16S18222   3.648   0.871   5.883 -0.6903  0.0978  2.8673
  152DOPC  C21718223   3.534   1.053   5.825 -0.3615 -0.1917 -0.9738
  152DOPC  H17R18224   3.502   1.019   5.724 -0.7452 -0.1098 -0.8836
  152DOPC  H17S18225   3.548   1.163   5.819 -0.1040 -0.1923 -0.4122
  152DOPC  C21818226   3.417   1.030   5.929  0.0116 -0.3809  0.2059
  152DOPC  H18R18227   3.314   1.019   5.889 -0.0226  0.6952 -0.0355
  152DOPC  H18S18228   3.419   1.110   6.006 -1.2774 -0.8545  0.7569
  152DOPC  H18T18229   3.439   0.936   5.984 -2.1412 -1.0984 -0.0757
  152DOPC   C3318230   3.543   1.281   6.787 -0.1319  0.6230  0.6864
  152DOPC   H3X18231   3.576   1.377   6.832  0.6692  1.3073 -1.2702
  152DOPC   H3Y18232   3.435   1.289   6.812 -0.1716  1.6865  0.2154
  152DOPC   C3418233   3.551   1.251   6.639  0.0316 -0.1551 -0.2324
  152DOPC   H4X18234   3.496   1.158   6.612  1.7143 -1.4899  0.6914
  152DOPC   H4Y18235   3.659   1.242   6.615  0.8452  1.5651  2.3215
  152DOPC   C3518236   3.491   1.362   6.554  0.1414 -0.1819  0.3309
  152DOPC   H5X18237   3.517   1.337   6.449  3.5233 -1.0541  1.2505
  152DOPC   H5Y18238   3.559   1.449   6.566  1.7376 -1.3864  0.3880
  152DOPC   C3618239   3.339   1.395   6.568 -0.2136  0.2054 -0.3749
  152DOPC   H6X18240   3.327   1.452   6.663 -0.8419 -0.1871 -0.2103
  152DOPC   H6Y18241   3.305   1.464   6.488  0.4823  1.2647  0.2155
  152DOPC   C3718242   3.235   1.278   6.564  0.0285  0.4700  0.3874
  152DOPC   H7X18243   3.240   1.219   6.658 -1.6339  1.5169  1.1992
  152DOPC   H7Y18244   3.135   1.324   6.581  0.7958  2.6136 -0.5978
  152DOPC   C3818245   3.262   1.180   6.445  0.3332  0.3912 -0.4418
  152DOPC   H8X18246   3.365   1.142   6.457  0.4012  0.3070 -1.2424
  152DOPC   H8Y18247   3.254   1.243   6.354  0.7001  0.0592 -0.7014
  152DOPC   C3918248   3.172   1.064   6.442 -0.2349 -0.2521 -0.1257
  152DOPC   H9X18249   3.187   1.001   6.531  2.0483 -0.1795 -0.3801
  152DOPC  C31018250   3.069   1.038   6.366 -0.2570 -0.2123  0.0155
  152DOPC  H10X18251   2.996   0.960   6.392 -0.6617  0.8086  2.1214
  152DOPC  C31118252   3.029   1.115   6.242  0.1126  0.2001  0.1319
  152DOPC  H11X18253   3.047   1.224   6.256  2.3006  0.2392 -2.2895
  152DOPC  H11Y18254   2.920   1.095   6.233 -0.0632  1.4471 -0.7234
  152DOPC  C31218255   3.096   1.067   6.108 -0.4175  0.3703  0.7564
  152DOPC  H12X18256   3.206   1.076   6.114 -0.3340  0.2037 -0.4160
  152DOPC  H12Y18257   3.044   1.126   6.030 -0.0134  1.7040  1.4671
  152DOPC  C31318258   3.061   0.922   6.065 -0.3802  0.7552  0.1471
  152DOPC  H13X18259   2.960   0.905   6.110 -0.6852  0.9301 -0.4607
  152DOPC  H13Y18260   3.053   0.907   5.955  2.2572 -1.5566  0.1758
  152DOPC  C31418261   3.160   0.809   6.109  0.3363 -0.1741 -0.2754
  152DOPC  H14X18262   3.261   0.833   6.069  0.1944  0.0133 -0.5244
  152DOPC  H14Y18263   3.161   0.824   6.218 -0.4391 -0.6322 -0.1941
  152DOPC  C31518264   3.105   0.678   6.078  0.2481  0.3080 -0.1717
  152DOPC  H15X18265   3.182   0.602   6.105  0.3864  0.9950  1.4844
  152DOPC  H15Y18266   3.082   0.661   5.970 -1.6021  1.9231 -0.0741
  152DOPC  C31618267   2.974   0.632   6.151  0.4666  0.2007 -0.3987
  152DOPC  H16X18268   2.894   0.709   6.144 -0.3453 -0.7109 -1.4408
  152DOPC  H16Y18269   2.928   0.544   6.102  1.4151 -0.9557  0.7247
  152DOPC  C31718270   3.015   0.599   6.295  0.2548 -0.2482  0.8872
  152DOPC  H17X18271   3.085   0.513   6.301  0.1077 -0.5401 -0.9307
  152DOPC  H17Y18272   3.056   0.690   6.344 -0.3438  0.7254 -0.3396
  152DOPC  C31818273   2.898   0.566   6.385  0.1167 -0.3541 -0.4300
  152DOPC  H18X18274   2.836   0.657   6.399 -1.3242 -1.0063 -2.2228
  152DOPC  H18Y18275   2.829   0.491   6.342  0.7771 -1.4244  0.3126
  152DOPC  H18Z18276   2.937   0.533   6.484  0.7700 -0.0044 -0.5667
  153DOPC     N18277   4.735   6.314   7.123  0.0810  0.3128 -0.5232
  153DOPC   C1218278   4.737   6.450   7.060 -0.8312  0.4377  0.0396
  153DOPC  H12A18279   4.695   6.525   7.126  0.9353  1.1801  0.3497
  153DOPC  H12B18280   4.685   6.438   6.966  1.2718 -0.2879 -1.0882
  153DOPC   C1318281   4.787   6.208   7.037 -0.1292  0.2236  0.4297
  153DOPC  H13A18282   4.784   6.114   7.089 -1.1493 -0.1837 -0.3309
  153DOPC  H13B18283   4.726   6.193   6.949  1.8902 -3.8309 -0.5213
  153DOPC  H13C18284   4.890   6.221   7.005  0.0342 -1.4496  0.1764
  153DOPC   C1418285   4.596   6.274   7.156 -0.1928  0.2951 -0.8784
  153DOPC  H14A18286   4.535   6.267   7.068  1.2599  0.8165 -1.9787
  153DOPC  H14B18287   4.592   6.180   7.209 -1.7253 -0.0318 -1.5314
  153DOPC  H14C18288   4.556   6.351   7.220  1.2005  1.6667 -1.5857
  153DOPC   C1518289   4.815   6.317   7.253  0.1858  0.1639  0.3686
  153DOPC  H15A18290   4.766   6.388   7.317  0.5409  0.1241  0.6930
  153DOPC  H15B18291   4.917   6.352   7.241  0.4967  0.5581  3.3234
  153DOPC  H15C18292   4.818   6.222   7.305 -1.7242  0.5755  1.2947
  153DOPC   C1118293   4.878   6.505   7.015 -0.0071  0.3674  0.3734
  153DOPC  H11A18294   4.864   6.587   6.941  1.1041 -2.0488 -2.7493
  153DOPC  H11B18295   4.928   6.536   7.110  0.2512  0.6290  0.1557
  153DOPC     P18296   5.107   6.435   6.912 -0.3088 -0.0892  0.4426
  153DOPC   O1318297   5.159   6.315   6.847  0.1855  0.3930  0.4064
  153DOPC   O1418298   5.183   6.494   7.028  0.4509  0.0282 -0.2153
  153DOPC   O1218299   4.954   6.408   6.945 -0.5736  0.6194  0.0222
  153DOPC   O1118300   5.084   6.543   6.804 -0.2955  0.0697 -0.2914
  153DOPC    C118301   5.013   6.512   6.683  0.2459  0.2083  0.2347
  153DOPC    HA18302   4.914   6.471   6.713  1.7625 -1.4098  3.6559
  153DOPC    HB18303   5.065   6.431   6.628 -0.1644 -0.4019  0.7201
  153DOPC    C218304   4.999   6.641   6.603  0.0986  0.6184 -0.6880
  153DOPC    HS18305   4.935   6.624   6.513 -1.3393  0.8458  0.2610
  153DOPC   O2118306   5.126   6.700   6.570  0.0705 -0.5072 -0.7433
  153DOPC   C2118307   5.195   6.638   6.476  0.9398 -0.0689 -0.7185
  153DOPC   O2218308   5.160   6.541   6.412  0.4083  0.4177 -0.0217
  153DOPC   C2218309   5.310   6.726   6.431  0.3016 -0.4806  0.5175
  153DOPC   H2R18310   5.398   6.701   6.495  0.5648 -0.0120  0.3441
  153DOPC   H2S18311   5.285   6.834   6.441 -0.9565 -0.8091  0.9748
  153DOPC    C318312   4.906   6.742   6.678 -0.0851  0.0062  0.0326
  153DOPC    HX18313   4.945   6.760   6.780  0.2107 -0.0312 -0.0739
  153DOPC    HY18314   4.805   6.697   6.691 -0.0002  0.2016  1.5388
  153DOPC   O3118315   4.890   6.867   6.609 -0.5786  0.0425  0.3410
  153DOPC   C3118316   4.988   6.958   6.625 -0.2722 -0.2414 -0.5179
  153DOPC   O3218317   5.097   6.935   6.681  0.5446 -0.0611 -0.1749
  153DOPC   C3218318   4.951   7.097   6.566 -0.5590 -0.0692 -0.3071
  153DOPC   H2X18319   4.843   7.100   6.538 -0.3322 -0.8157 -1.2970
  153DOPC   H2Y18320   4.971   7.176   6.641 -1.1579 -0.6356  0.4695
  153DOPC   C2318321   5.347   6.694   6.281  0.0506  0.1388  0.1130
  153DOPC   H3R18322   5.258   6.699   6.215 -0.1452  0.6546  0.4174
  153DOPC   H3S18323   5.383   6.588   6.278  1.7622  0.6883 -0.1264
  153DOPC   C2418324   5.454   6.786   6.225  0.8758 -0.2568  0.9249
  153DOPC   H4R18325   5.532   6.777   6.304  2.4662 -0.0172 -0.5500
  153DOPC   H4S18326   5.409   6.886   6.242 -0.7814 -0.6925 -0.6306
  153DOPC   C2518327   5.509   6.761   6.088  0.0050  0.2550 -0.8048
  153DOPC   H5R18328   5.552   6.659   6.087 -2.2511 -0.7641 -0.5720
  153DOPC   H5S18329   5.587   6.835   6.058  1.1248  0.3459  2.0910
  153DOPC   C2618330   5.416   6.749   5.971  0.8187  0.2615  0.2016
  153DOPC   H6R18331   5.350   6.839   5.975  2.4369  1.4249  2.4132
  153DOPC   H6S18332   5.353   6.658   5.982 -0.9380  1.5463  1.5199
  153DOPC   C2718333   5.479   6.754   5.835  0.6152  0.0948 -0.0502
  153DOPC   H7R18334   5.550   6.669   5.828  0.1663 -0.7489  3.4873
  153DOPC   H7S18335   5.552   6.837   5.826 -0.6344  1.1538 -0.7569
  153DOPC   C2818336   5.378   6.770   5.717 -0.1091 -0.8306 -0.2848
  153DOPC   H8R18337   5.433   6.794   5.624 -1.9130  3.9137 -0.3808
  153DOPC   H8S18338   5.310   6.854   5.744  1.9480  0.2989  1.6694
  153DOPC   C2918339   5.282   6.656   5.683  0.1345 -0.2343 -0.0055
  153DOPC   H9R18340   5.209   6.631   5.760 -0.9132 -0.8402 -1.1562
  153DOPC  C21018341   5.280   6.568   5.580 -0.5872  0.2964  0.3599
  153DOPC  H10R18342   5.209   6.485   5.571  0.7092 -0.7020 -1.1417
  153DOPC  C21118343   5.378   6.568   5.472 -0.3835 -1.1848  0.4594
  153DOPC  H11R18344   5.407   6.463   5.449  2.1001 -0.2220 -1.1889
  153DOPC  H11S18345   5.473   6.618   5.499  0.1473 -2.0093  0.1458
  153DOPC  C21218346   5.319   6.637   5.353 -0.1880  0.0718 -0.1371
  153DOPC  H12R18347   5.397   6.632   5.274 -2.3482  0.6269 -2.4277
  153DOPC  H12S18348   5.298   6.744   5.374  3.8146  0.8744  0.6864
  153DOPC  C21318349   5.205   6.557   5.291  0.2387 -0.2070  0.3377
  153DOPC  H13R18350   5.118   6.565   5.360 -1.0187 -0.6388 -1.1334
  153DOPC  H13S18351   5.248   6.455   5.289  1.6776  0.3513  1.3512
  153DOPC  C21418352   5.165   6.616   5.157  0.5638 -0.3988  0.2484
  153DOPC  H14R18353   5.087   6.549   5.113 -0.3009  1.9888 -2.0862
  153DOPC  H14S18354   5.255   6.607   5.093  1.8995 -2.9787  2.2500
  153DOPC  C21518355   5.122   6.763   5.158 -0.7754 -0.8100  0.2307
  153DOPC  H15R18356   5.212   6.825   5.179  0.0827 -1.6123 -0.9423
  153DOPC  H15S18357   5.048   6.776   5.240 -0.8913 -1.3319  0.2112
  153DOPC  C21618358   5.055   6.806   5.024 -0.9373  0.1650 -0.5919
  153DOPC  H16R18359   5.123   6.784   4.939  1.3678 -1.8092  1.5898
  153DOPC  H16S18360   5.034   6.915   5.026 -0.9872  0.1835 -1.7087
  153DOPC  C21718361   4.921   6.744   4.992  0.3330  0.0696  0.4213
  153DOPC  H17R18362   4.849   6.754   5.076 -0.4087 -1.1804 -0.0299
  153DOPC  H17S18363   4.932   6.634   4.981 -0.3283 -0.1602  1.8026
  153DOPC  C21818364   4.846   6.796   4.867 -0.3923 -0.3329  0.1857
  153DOPC  H18R18365   4.746   6.749   4.850  0.0497 -1.3400  0.3082
  153DOPC  H18S18366   4.906   6.784   4.775 -0.3841  1.0599 -0.0159
  153DOPC  H18T18367   4.817   6.903   4.882  2.0998  0.1920  1.8725
  153DOPC   C3318368   5.028   7.117   6.437 -0.2863  0.0397  0.3991
  153DOPC   H3X18369   5.135   7.096   6.459 -0.4704  0.2732  1.6137
  153DOPC   H3Y18370   5.005   7.218   6.398 -0.2850  0.1396  0.6535
  153DOPC   C3418371   4.982   7.026   6.323  0.5093 -0.9220 -0.2329
  153DOPC   H4X18372   4.876   7.046   6.294  0.4443  0.8881  1.0970
  153DOPC   H4Y18373   4.985   6.920   6.357 -0.1622 -0.7975  0.2376
  153DOPC   C3518374   5.073   7.054   6.202  0.1251 -0.0767  0.0478
  153DOPC   H5X18375   5.179   7.027   6.220  1.0470  4.1730  2.2750
  153DOPC   H5Y18376   5.074   7.164   6.188 -0.2838  0.0105  0.6873
  153DOPC   C3618377   5.036   6.991   6.068 -0.0913  0.3785 -0.0860
  153DOPC   H6X18378   4.935   7.021   6.032 -0.9056 -2.4076 -0.3675
  153DOPC   H6Y18379   5.110   7.027   5.994 -0.2767  2.5336  0.7027
  153DOPC   C3718380   5.029   6.840   6.056 -0.1317  0.2675 -1.4377
  153DOPC   H7X18381   5.129   6.799   6.082  0.1899  2.2610  0.9008
  153DOPC   H7Y18382   4.956   6.794   6.126  0.4771  0.0347 -0.9435
  153DOPC   C3818383   5.009   6.807   5.905 -0.6194 -0.5406  0.4702
  153DOPC   H8X18384   5.093   6.856   5.851 -0.3233  1.3446  2.4899
  153DOPC   H8Y18385   4.911   6.850   5.873 -0.5353 -1.1728 -0.6899
  153DOPC   C3918386   4.980   6.661   5.902 -0.6820  0.5286  0.4347
  153DOPC   H9X18387   4.989   6.615   6.001 -0.2400 -0.8800 -0.2379
  153DOPC  C31018388   4.922   6.590   5.803 -0.0436 -0.2587  0.3121
  153DOPC  H10X18389   4.909   6.480   5.804 -1.3486 -0.1838 -1.7323
  153DOPC  C31118390   4.859   6.645   5.675  0.5764  0.9089  0.4941
  153DOPC  H11X18391   4.911   6.732   5.629  2.3938 -0.3577  0.0618
  153DOPC  H11Y18392   4.755   6.678   5.697 -1.2020 -3.1972 -0.8023
  153DOPC  C31218393   4.839   6.538   5.569 -0.5987 -1.0945 -0.0084
  153DOPC  H12X18394   4.796   6.453   5.626  0.3156  0.2924  2.9235
  153DOPC  H12Y18395   4.939   6.509   5.530 -0.6670  0.6440 -1.6231
  153DOPC  C31318396   4.755   6.585   5.453  0.6472 -0.0724 -0.2019
  153DOPC  H13X18397   4.653   6.613   5.488  2.0498  5.6970  0.3454
  153DOPC  H13Y18398   4.793   6.681   5.413 -0.3605  1.1397  1.5946
  153DOPC  C31418399   4.754   6.482   5.331 -0.5025 -0.3880 -0.8539
  153DOPC  H14X18400   4.684   6.521   5.255  1.2164 -0.4714 -2.5645
  153DOPC  H14Y18401   4.853   6.477   5.280 -0.1932  0.0188 -0.2998
  153DOPC  C31518402   4.717   6.337   5.362 -0.1969 -0.5010 -0.0804
  153DOPC  H15X18403   4.801   6.275   5.400 -0.1191  0.9929  2.4222
  153DOPC  H15Y18404   4.685   6.301   5.262 -3.0495  1.2496  0.0602
  153DOPC  C31618405   4.590   6.310   5.444 -0.7325 -0.4422 -0.2835
  153DOPC  H16X18406   4.614   6.328   5.551 -0.8203 -0.1673 -0.3086
  153DOPC  H16Y18407   4.512   6.387   5.425 -1.0806 -0.4314  1.0396
  153DOPC  C31718408   4.532   6.169   5.440 -0.0780  0.2337 -0.2068
  153DOPC  H17X18409   4.513   6.145   5.333  0.8433  0.0261 -0.3352
  153DOPC  H17Y18410   4.612   6.100   5.474  2.2175  0.7333 -3.9925
  153DOPC  C31818411   4.402   6.146   5.517  0.1863 -0.0906 -0.1604
  153DOPC  H18X18412   4.354   6.050   5.487 -2.2640  0.9559  0.1852
  153DOPC  H18Y18413   4.406   6.146   5.628 -3.5229  0.6429  0.1034
  153DOPC  H18Z18414   4.334   6.227   5.482 -0.3614 -0.8692 -0.9584
  154DOPC     N18415   5.972   4.471   7.214 -0.3453  0.5872  0.1083
  154DOPC   C1218416   6.049   4.385   7.112  0.2157 -0.5949  0.8572
  154DOPC  H12A18417   6.130   4.449   7.082 -1.4895  0.7658 -1.1823
  154DOPC  H12B18418   5.987   4.372   7.025  1.9331 -1.3244 -0.3090
  154DOPC   C1318419   6.051   4.485   7.336 -0.6472 -0.2552  0.1990
  154DOPC  H13A18420   5.988   4.516   7.418 -0.1157 -2.2196  1.3990
  154DOPC  H13B18421   6.096   4.391   7.365  1.1730  0.5854  0.2911
  154DOPC  H13C18422   6.135   4.554   7.338 -0.2297 -0.7677  1.7122
  154DOPC   C1418423   5.847   4.412   7.254  0.1384 -0.3336  0.0277
  154DOPC  H14A18424   5.862   4.308   7.280  0.9671 -0.5591 -1.2649
  154DOPC  H14B18425   5.794   4.471   7.327 -1.3651 -0.7784 -0.6551
  154DOPC  H14C18426   5.788   4.404   7.164 -0.6037  2.7084  0.1413
  154DOPC   C1518427   5.936   4.606   7.158  0.3741  0.4628 -1.2016
  154DOPC  H15A18428   5.881   4.599   7.065 -0.3568  0.1080 -0.7490
  154DOPC  H15B18429   6.023   4.666   7.133  0.8238  0.6703  0.7158
  154DOPC  H15C18430   5.877   4.658   7.233  0.9264  1.0048 -1.1316
  154DOPC   C1118431   6.085   4.246   7.156  0.0136 -0.8676 -0.1269
  154DOPC  H11A18432   6.154   4.196   7.084 -0.8016 -1.0514 -0.7914
  154DOPC  H11B18433   6.155   4.256   7.242  1.7050 -0.0973 -1.5286
  154DOPC     P18434   5.902   4.083   7.071 -0.4031 -0.5539 -0.5212
  154DOPC   O1318435   5.755   4.097   7.098  0.0615 -0.0801 -0.2304
  154DOPC   O1418436   5.950   3.946   7.061 -0.3910  0.3090  0.3632
  154DOPC   O1218437   5.982   4.155   7.192 -0.4360 -0.0926 -0.3187
  154DOPC   O1118438   5.939   4.177   6.940 -0.0300 -0.6815  0.0250
  154DOPC    C118439   5.968   4.126   6.811 -0.2582  0.3540  0.0131
  154DOPC    HA18440   6.035   4.037   6.817  2.9347  2.4806 -1.1312
  154DOPC    HB18441   6.040   4.191   6.757 -0.5407 -0.9352 -1.9990
  154DOPC    C218442   5.841   4.101   6.731  0.5684 -0.0872  0.8364
  154DOPC    HS18443   5.766   4.039   6.786 -1.8881  1.4280 -0.6139
  154DOPC   O2118444   5.875   4.038   6.606 -0.1310 -0.8405 -0.0921
  154DOPC   C2118445   5.873   3.903   6.598 -0.5363  0.3361 -0.1401
  154DOPC   O2218446   5.843   3.824   6.689 -0.0913 -0.2981  0.3769
  154DOPC   C2218447   5.917   3.866   6.447  0.0257 -0.5645  0.1195
  154DOPC   H2R18448   6.027   3.859   6.445  0.2255  1.5342  0.9092
  154DOPC   H2S18449   5.889   3.958   6.391 -3.9448 -0.9866  1.0665
  154DOPC    C318450   5.768   4.230   6.697 -0.0114 -0.3784  0.4382
  154DOPC    HX18451   5.859   4.286   6.667 -0.0773 -0.6406 -0.2682
  154DOPC    HY18452   5.726   4.269   6.792 -1.2703 -0.1349 -0.2080
  154DOPC   O3118453   5.662   4.221   6.606 -0.3290 -0.2972 -0.6883
  154DOPC   C3118454   5.651   4.334   6.531 -0.2455  0.0685  0.4585
  154DOPC   O3218455   5.708   4.437   6.557  0.1370  0.6469 -0.1312
  154DOPC   C3218456   5.556   4.313   6.409 -0.2927 -0.3643  0.0003
  154DOPC   H2X18457   5.455   4.299   6.453  0.0625 -1.3272  0.5482
  154DOPC   H2Y18458   5.553   4.403   6.344  1.8914  0.1720  0.5576
  154DOPC   C2318459   5.842   3.739   6.403 -0.0377  0.0483 -0.1661
  154DOPC   H3R18460   5.742   3.729   6.452 -0.3444 -0.2608 -0.8443
  154DOPC   H3S18461   5.896   3.653   6.448 -2.4802 -1.3095  0.3921
  154DOPC   C2418462   5.828   3.722   6.255  0.5776 -0.6087 -0.1524
  154DOPC   H4R18463   5.773   3.629   6.226 -1.8603  1.3837 -2.4783
  154DOPC   H4S18464   5.929   3.706   6.212  0.2244  1.8321 -2.1396
  154DOPC   C2518465   5.745   3.828   6.182 -0.5031 -0.0636 -1.2736
  154DOPC   H5R18466   5.805   3.920   6.166  0.7991 -1.1097 -2.6038
  154DOPC   H5S18467   5.659   3.859   6.246 -0.3220 -1.2588 -0.4376
  154DOPC   C2618468   5.689   3.764   6.055  0.3036  0.2574 -0.1879
  154DOPC   H6R18469   5.618   3.836   6.010  0.9040  0.0773 -1.4566
  154DOPC   H6S18470   5.634   3.673   6.086  0.1388  0.6539  0.7289
  154DOPC   C2718471   5.801   3.740   5.951 -0.3810 -0.1708 -0.0154
  154DOPC   H7R18472   5.883   3.687   6.006 -0.1566  0.8072  0.6187
  154DOPC   H7S18473   5.837   3.841   5.922 -0.9318  0.2359  0.6773
  154DOPC   C2818474   5.756   3.661   5.828  0.1239  0.3545 -0.0952
  154DOPC   H8R18475   5.841   3.689   5.761  0.7110 -0.3606  0.3343
  154DOPC   H8S18476   5.659   3.684   5.780  0.1201 -1.1154 -0.8322
  154DOPC   C2918477   5.743   3.509   5.858  0.1584  0.7277  0.3784
  154DOPC   H9R18478   5.643   3.479   5.892 -0.4135 -0.4651 -2.1429
  154DOPC  C21018479   5.832   3.407   5.845  0.1937 -0.0733 -0.1509
  154DOPC  H10R18480   5.801   3.306   5.876  2.1674 -1.0935 -1.3042
  154DOPC  C21118481   5.981   3.421   5.822 -0.4690 -0.1980  0.3473
  154DOPC  H11R18482   6.046   3.385   5.905 -0.8760 -1.1261  0.2708
  154DOPC  H11S18483   6.013   3.527   5.806  2.5517 -0.7400  2.0888
  154DOPC  C21218484   6.037   3.363   5.694 -0.2082 -0.4214 -0.0255
  154DOPC  H12R18485   6.045   3.253   5.682  0.0013 -0.6077  1.5944
  154DOPC  H12S18486   6.141   3.403   5.687  0.1418 -1.2996  0.0969
  154DOPC  C21318487   5.980   3.413   5.562  0.0632  0.2456  0.0728
  154DOPC  H13R18488   6.062   3.398   5.488 -0.5967 -2.9123 -0.1620
  154DOPC  H13S18489   5.952   3.520   5.570 -2.3470 -0.1839 -1.6404
  154DOPC  C21418490   5.853   3.345   5.509  0.0961 -0.1462 -0.3502
  154DOPC  H14R18491   5.774   3.349   5.587  0.5882 -1.0609  0.2141
  154DOPC  H14S18492   5.876   3.236   5.502  0.3080 -0.1867  0.8891
  154DOPC  C21518493   5.804   3.405   5.375 -0.0304 -0.2164 -0.1625
  154DOPC  H15R18494   5.720   3.348   5.330 -0.7478 -0.1096  1.0087
  154DOPC  H15S18495   5.888   3.402   5.302  0.4982  1.3867  0.3359
  154DOPC  C21618496   5.753   3.549   5.382  0.4204 -0.9095 -0.4343
  154DOPC  H16R18497   5.838   3.614   5.414  0.1012 -0.1381 -1.0995
  154DOPC  H16S18498   5.664   3.555   5.448  0.8141 -0.0433  0.0383
  154DOPC  C21718499   5.697   3.593   5.248 -0.2456  0.1327  0.8945
  154DOPC  H17R18500   5.635   3.510   5.207  0.9287  0.1283 -0.9876
  154DOPC  H17S18501   5.785   3.602   5.180 -1.4486  1.0157 -0.5913
  154DOPC  C21818502   5.621   3.719   5.256  0.6691  0.0478 -0.2873
  154DOPC  H18R18503   5.525   3.703   5.311  0.2174  0.8178 -0.8272
  154DOPC  H18S18504   5.613   3.772   5.159  1.9248 -0.8752 -0.9168
  154DOPC  H18T18505   5.672   3.794   5.321  1.1053  0.7927 -1.4682
  154DOPC   C3318506   5.594   4.195   6.317 -0.2378  0.0994 -0.0751
  154DOPC   H3X18507   5.632   4.107   6.374  2.6643  2.0815  1.2740
  154DOPC   H3Y18508   5.682   4.219   6.255 -0.3902 -0.2472 -0.4307
  154DOPC   C3418509   5.472   4.148   6.234 -0.2560 -0.1369  0.3210
  154DOPC   H4X18510   5.407   4.094   6.306  0.3175 -0.0668  0.8941
  154DOPC   H4Y18511   5.513   4.065   6.172 -0.1828  0.0698  0.0895
  154DOPC   C3518512   5.417   4.267   6.150 -0.5859 -0.5623 -0.3482
  154DOPC   H5X18513   5.363   4.336   6.219  0.1512 -0.3623  0.0335
  154DOPC   H5Y18514   5.342   4.231   6.077 -0.5813 -0.5566 -0.3562
  154DOPC   C3618515   5.516   4.348   6.074 -0.4412 -0.2678 -0.0614
  154DOPC   H6X18516   5.590   4.392   6.145 -0.6058 -1.3801  0.8257
  154DOPC   H6Y18517   5.567   4.277   6.005  0.3193 -2.7255  2.8082
  154DOPC   C3718518   5.441   4.471   6.020  0.8393 -1.0164 -0.0798
  154DOPC   H7X18519   5.341   4.440   5.983 -0.4699  0.9181  1.6076
  154DOPC   H7Y18520   5.424   4.551   6.096 -1.5028 -1.9520  0.4768
  154DOPC   C3818521   5.513   4.532   5.892  0.3495  0.2516  0.6523
  154DOPC   H8X18522   5.434   4.585   5.835  0.2557 -0.8548 -0.3022
  154DOPC   H8Y18523   5.536   4.441   5.832 -1.0173 -0.1515  0.7056
  154DOPC   C3918524   5.632   4.620   5.933 -0.2478 -0.1240  0.2237
  154DOPC   H9X18525   5.658   4.626   6.040  1.3967 -0.4930 -0.1278
  154DOPC  C31018526   5.711   4.692   5.852 -0.1382  0.3554 -0.1328
  154DOPC  H10X18527   5.794   4.751   5.894  0.3110 -1.3680  1.5488
  154DOPC  C31118528   5.709   4.699   5.707  0.7855  0.0820  0.8212
  154DOPC  H11X18529   5.626   4.640   5.665  2.5535 -0.6494 -1.8888
  154DOPC  H11Y18530   5.795   4.646   5.662  0.5840 -0.0068  0.5434
  154DOPC  C31218531   5.679   4.838   5.650 -0.6685 -0.0789 -0.5390
  154DOPC  H12X18532   5.749   4.908   5.700  0.6024 -0.1899 -2.1058
  154DOPC  H12Y18533   5.573   4.870   5.664 -0.3240  0.8899 -0.0949
  154DOPC  C31318534   5.691   4.852   5.494 -0.4011  0.4442  0.1537
  154DOPC  H13X18535   5.779   4.795   5.458  0.9793  1.9318  1.0526
  154DOPC  H13Y18536   5.596   4.817   5.447  0.0036 -0.6170  0.1206
  154DOPC  C31418537   5.718   4.999   5.448 -0.2047  0.1252  0.0306
  154DOPC  H14X18538   5.636   5.065   5.483 -0.1851 -0.6207  1.5746
  154DOPC  H14Y18539   5.816   5.032   5.486  0.1449 -2.1032  1.2365
  154DOPC  C31518540   5.735   5.022   5.297 -0.4265 -0.1303  0.0856
  154DOPC  H15X18541   5.820   4.955   5.272 -0.3856 -0.4486  1.0471
  154DOPC  H15Y18542   5.766   5.129   5.287  0.7678 -0.4880 -0.2057
  154DOPC  C31618543   5.623   4.985   5.207 -0.4609  0.6820  0.8068
  154DOPC  H16X18544   5.619   4.874   5.212 -2.4909  0.6149 -0.8090
  154DOPC  H16Y18545   5.517   5.010   5.230 -1.9527 -3.1594 -0.9726
  154DOPC  C31718546   5.667   5.015   5.057 -0.1648  0.8567 -0.4233
  154DOPC  H17X18547   5.664   5.125   5.046 -0.4346  0.7785 -1.2655
  154DOPC  H17Y18548   5.769   4.973   5.043 -0.7143 -0.4415 -0.7740
  154DOPC  C31818549   5.569   4.950   4.955 -0.7895 -0.0175  0.0638
  154DOPC  H18X18550   5.589   4.841   4.947 -2.0161 -0.2496 -0.0936
  154DOPC  H18Y18551   5.460   4.959   4.975 -0.6627 -1.7863  1.8836
  154DOPC  H18Z18552   5.584   5.009   4.862 -1.6492  2.2690  1.2909
  155DOPC     N18553   1.118   2.701   7.443 -0.0879 -0.0431 -0.1918
  155DOPC   C1218554   1.251   2.656   7.373  0.2317 -0.6041 -0.2598
  155DOPC  H12A18555   1.285   2.567   7.423  1.1090  1.1544  2.5294
  155DOPC  H12B18556   1.321   2.731   7.405  1.5346 -1.5851 -0.7411
  155DOPC   C1318557   1.017   2.594   7.426 -0.2354 -0.7444  0.1968
  155DOPC  H13A18558   0.933   2.627   7.484 -0.7325 -0.7117 -0.5313
  155DOPC  H13B18559   0.985   2.583   7.323 -0.3648 -0.9277  0.2566
  155DOPC  H13C18560   1.053   2.504   7.473 -1.5696 -1.4354 -0.0809
  155DOPC   C1418561   1.070   2.826   7.377 -0.3945  0.1940  0.2643
  155DOPC  H14A18562   1.131   2.915   7.382 -2.1899  1.4570  0.6831
  155DOPC  H14B18563   1.074   2.801   7.272 -1.6836 -1.6319  0.6077
  155DOPC  H14C18564   0.967   2.849   7.399 -1.4212 -1.0283 -2.6933
  155DOPC   C1518565   1.149   2.714   7.585  0.3014  0.2402  0.1814
  155DOPC  H15A18566   1.056   2.748   7.627 -0.0672  0.4088 -0.7472
  155DOPC  H15B18567   1.225   2.788   7.603  0.7640 -0.0451 -0.5579
  155DOPC  H15C18568   1.169   2.623   7.640  2.1031 -0.5517 -1.6335
  155DOPC   C1118569   1.251   2.639   7.219 -0.7155 -0.5841 -0.3716
  155DOPC  H11A18570   1.213   2.734   7.175  0.1504  0.6203  1.3821
  155DOPC  H11B18571   1.357   2.631   7.187 -0.9922  0.9844 -1.8267
  155DOPC     P18572   1.213   2.395   7.198 -0.1512 -0.0673  0.1284
  155DOPC   O1318573   1.103   2.296   7.195  0.3733  0.0992  0.3865
  155DOPC   O1418574   1.306   2.379   7.310  0.1453 -0.4270  0.6183
  155DOPC   O1218575   1.164   2.539   7.183  0.7289 -0.2073 -0.9079
  155DOPC   O1118576   1.295   2.362   7.070 -0.0208  0.2609 -0.3554
  155DOPC    C118577   1.282   2.430   6.944  0.5088 -0.1125  0.2327
  155DOPC    HA18578   1.380   2.415   6.895  0.5862 -0.2677  0.4340
  155DOPC    HB18579   1.267   2.540   6.948 -0.4635 -0.2541  0.8523
  155DOPC    C218580   1.155   2.374   6.866 -0.4703  0.3891 -0.7244
  155DOPC    HS18581   1.067   2.380   6.933  0.9233 -0.0580  1.2384
  155DOPC   O2118582   1.188   2.236   6.830  0.0500 -0.0737  0.0956
  155DOPC   C2118583   1.084   2.156   6.810  0.4641 -0.2901 -0.5644
  155DOPC   O2218584   0.968   2.193   6.819  0.0088 -0.3417 -0.2196
  155DOPC   C2218585   1.138   2.023   6.764 -0.5384 -1.3946  0.0313
  155DOPC   H2R18586   1.186   1.978   6.853  0.4280  0.5141  0.5127
  155DOPC   H2S18587   1.214   2.041   6.685 -0.7235  1.3167  0.3800
  155DOPC    C318588   1.130   2.456   6.736 -0.9233  0.5860  0.4609
  155DOPC    HX18589   1.221   2.428   6.679 -1.1356 -0.0696  0.4464
  155DOPC    HY18590   1.130   2.566   6.752 -0.0337  0.7175 -0.3424
  155DOPC   O3118591   1.023   2.413   6.659  0.2774 -0.1574 -0.0769
  155DOPC   C3118592   0.905   2.471   6.669 -0.1027  0.3052 -0.1296
  155DOPC   O3218593   0.879   2.556   6.754  0.3263  0.0632  0.3169
  155DOPC   C3218594   0.805   2.417   6.563 -0.1992  0.5678  0.6195
  155DOPC   H2X18595   0.867   2.371   6.484 -0.7394 -1.6932  1.4352
  155DOPC   H2Y18596   0.744   2.339   6.613 -0.9551 -1.2007 -2.7883
  155DOPC   C2318597   1.032   1.922   6.713  0.4682 -0.4315  0.0970
  155DOPC   H3R18598   0.938   1.895   6.766 -0.0722 -1.4238 -1.3153
  155DOPC   H3S18599   1.085   1.825   6.707 -2.1096 -2.0261  1.1598
  155DOPC   C2418600   1.001   1.958   6.566  0.4546  0.1742 -0.2336
  155DOPC   H4R18601   0.964   1.868   6.513  2.1335 -1.6051  1.4874
  155DOPC   H4S18602   1.085   2.004   6.509 -0.0639  0.9054 -0.4298
  155DOPC   C2518603   0.874   2.043   6.545  0.0042  0.1738 -0.1755
  155DOPC   H5R18604   0.905   2.144   6.580  2.7884 -0.0896 -1.6370
  155DOPC   H5S18605   0.787   2.011   6.607 -1.3630  1.8529 -1.1492
  155DOPC   C2618606   0.833   2.042   6.399 -0.5635  0.2929 -0.4304
  155DOPC   H6R18607   0.745   2.109   6.388  0.0680  1.0696 -0.8495
  155DOPC   H6S18608   0.798   1.938   6.378 -3.5243  0.7112  1.7833
  155DOPC   C2718609   0.937   2.104   6.303  0.1909  0.5261  0.3153
  155DOPC   H7R18610   1.030   2.044   6.316  0.1947  0.5874  0.5937
  155DOPC   H7S18611   0.958   2.207   6.341 -2.0699  1.5779 -1.0983
  155DOPC   C2818612   0.876   2.085   6.162  0.6399  0.1312 -0.9175
  155DOPC   H8R18613   0.844   1.979   6.162 -0.2055  0.3844 -1.2843
  155DOPC   H8S18614   0.957   2.100   6.088  1.0846  0.6973 -0.3373
  155DOPC   C2918615   0.762   2.174   6.143 -0.2655 -0.3158 -0.1530
  155DOPC   H9R18616   0.668   2.118   6.134  0.6495 -1.6078 -2.3372
  155DOPC  C21018617   0.770   2.306   6.121  0.1186  0.0609  0.6281
  155DOPC  H10R18618   0.676   2.363   6.116  0.1776  0.1194  0.1503
  155DOPC  C21118619   0.895   2.395   6.126 -0.1321 -0.5499 -0.1942
  155DOPC  H11R18620   0.994   2.369   6.169  1.7510  3.8355 -1.2890
  155DOPC  H11S18621   0.870   2.493   6.172  0.4053 -0.9785  1.0521
  155DOPC  C21218622   0.930   2.435   5.985  0.5879 -0.2492 -0.1460
  155DOPC  H12R18623   0.957   2.349   5.920  2.6778  2.4918 -3.2180
  155DOPC  H12S18624   1.019   2.502   5.988 -0.0812  0.6667 -0.1565
  155DOPC  C21318625   0.817   2.503   5.909  0.3060 -0.2996 -0.4808
  155DOPC  H13R18626   0.774   2.577   5.980  0.2135 -0.2802 -0.5570
  155DOPC  H13S18627   0.743   2.428   5.875 -1.3753  0.6990  0.8507
  155DOPC  C21418628   0.870   2.571   5.786 -0.4655  0.4015  1.0008
  155DOPC  H14R18629   0.953   2.642   5.808 -1.4493  1.4768  1.2724
  155DOPC  H14S18630   0.792   2.639   5.747  0.7481  0.0377 -2.4970
  155DOPC  C21518631   0.911   2.493   5.662  0.2719  0.4043 -0.0430
  155DOPC  H15R18632   0.818   2.442   5.629 -0.8909  0.5164  2.7554
  155DOPC  H15S18633   0.987   2.420   5.698 -0.5164 -0.0208  0.7954
  155DOPC  C21618634   0.982   2.569   5.553 -0.2655  0.2318  0.3167
  155DOPC  H16R18635   1.091   2.589   5.564  0.0748 -1.2270 -0.2465
  155DOPC  H16S18636   0.946   2.674   5.556  1.8954  1.1112 -1.4103
  155DOPC  C21718637   0.964   2.509   5.413  0.1181 -0.8610  0.7939
  155DOPC  H17R18638   0.855   2.504   5.391  0.0612  0.5589  0.6454
  155DOPC  H17S18639   1.014   2.410   5.410 -0.1014 -1.0044  1.5965
  155DOPC  C21818640   1.022   2.607   5.306  0.1120  0.3950  0.0787
  155DOPC  H18R18641   1.132   2.594   5.307  0.3104  1.9296 -0.3057
  155DOPC  H18S18642   0.995   2.712   5.329 -0.3124  0.7866 -2.0359
  155DOPC  H18T18643   0.989   2.579   5.204  1.4864  0.6276 -0.4470
  155DOPC   C3318644   0.734   2.541   6.500  0.0854  0.2823  0.2964
  155DOPC   H3X18645   0.673   2.591   6.577  1.2450 -0.5442  1.7952
  155DOPC   H3Y18646   0.661   2.498   6.428 -0.0373  0.9749 -0.0025
  155DOPC   C3418647   0.832   2.640   6.439  0.3440  0.1507 -0.3555
  155DOPC   H4X18648   0.895   2.598   6.359 -1.4575  0.0522 -1.8018
  155DOPC   H4Y18649   0.895   2.691   6.515 -1.8530 -0.3539  1.9768
  155DOPC   C3518650   0.758   2.757   6.361 -0.3583 -0.1844  0.0912
  155DOPC   H5X18651   0.677   2.799   6.424 -1.0018 -0.0016 -0.8430
  155DOPC   H5Y18652   0.718   2.704   6.272  0.5425  0.8664 -0.9720
  155DOPC   C3618653   0.842   2.873   6.302 -0.5654 -0.6551 -0.8091
  155DOPC   H6X18654   0.879   2.932   6.389 -1.4752 -0.5057 -0.5147
  155DOPC   H6Y18655   0.932   2.830   6.254  0.9109  0.0569  1.1485
  155DOPC   C3718656   0.769   2.974   6.210 -0.3631  0.4447  0.8566
  155DOPC   H7X18657   0.678   3.021   6.252 -0.5347 -0.4346  1.4978
  155DOPC   H7Y18658   0.833   3.060   6.179  1.0201 -0.6072  0.7007
  155DOPC   C3818659   0.715   2.919   6.070 -0.2570  0.3273 -0.4007
  155DOPC   H8X18660   0.647   2.994   6.025  0.3253  0.7388 -0.6003
  155DOPC   H8Y18661   0.651   2.829   6.083  0.9502 -0.6037 -0.7776
  155DOPC   C3918662   0.827   2.880   5.977  0.6260 -0.2995 -0.3727
  155DOPC   H9X18663   0.908   2.826   6.029  0.6813 -0.5458 -0.7090
  155DOPC  C31018664   0.858   2.934   5.866  0.1115  0.3231  0.0089
  155DOPC  H10X18665   0.951   2.896   5.822  2.4455  1.4443  3.6029
  155DOPC  C31118666   0.791   3.035   5.778  0.0263 -0.6234  0.3623
  155DOPC  H11X18667   0.879   3.092   5.741 -1.6357  1.7404 -0.1065
  155DOPC  H11Y18668   0.732   3.109   5.836  0.8277 -0.5038  1.0425
  155DOPC  C31218669   0.683   2.987   5.671 -0.2931  0.3566  1.0664
  155DOPC  H12X18670   0.637   3.081   5.633  0.2098 -0.5604 -2.0434
  155DOPC  H12Y18671   0.608   2.929   5.730 -3.4322  1.6982 -1.3344
  155DOPC  C31318672   0.743   2.901   5.562 -0.4411 -0.3382  0.2079
  155DOPC  H13X18673   0.842   2.942   5.534 -0.3864 -1.5511 -1.5498
  155DOPC  H13Y18674   0.763   2.797   5.593  1.0086 -0.8806 -2.2811
  155DOPC  C31418675   0.666   2.906   5.429  0.3913  0.0871 -0.9292
  155DOPC  H14X18676   0.563   2.871   5.452  1.5397 -2.3620  1.0418
  155DOPC  H14Y18677   0.662   3.014   5.403 -1.0537 -0.0992 -1.5533
  155DOPC  C31518678   0.724   2.815   5.328  0.3419 -0.1303  0.5622
  155DOPC  H15X18679   0.746   2.712   5.364  1.9056  0.0583  0.1883
  155DOPC  H15Y18680   0.820   2.858   5.293 -0.4579  1.0717 -0.2282
  155DOPC  C31618681   0.627   2.807   5.206  0.2214 -0.6129 -0.1561
  155DOPC  H16X18682   0.534   2.758   5.241 -0.9664  2.8192  2.0526
  155DOPC  H16Y18683   0.608   2.913   5.182 -0.1811  0.0251  2.6502
  155DOPC  C31718684   0.686   2.734   5.089  0.4708  0.9814  0.1849
  155DOPC  H17X18685   0.639   2.768   4.995  1.1172  0.2109 -0.4325
  155DOPC  H17Y18686   0.794   2.759   5.076  0.0237  1.8930 -2.2890
  155DOPC  C31818687   0.649   2.583   5.101 -0.4132  0.2397  0.1466
  155DOPC  H18X18688   0.693   2.524   5.018 -1.7475 -0.6923  0.0607
  155DOPC  H18Y18689   0.696   2.533   5.189  0.3499  0.0775 -0.3526
  155DOPC  H18Z18690   0.538   2.572   5.099 -0.4150  0.3979 -0.9265
  156DOPC     N18691   6.644   6.513   7.354  0.2905 -0.3287  0.3600
  156DOPC   C1218692   6.584   6.520   7.212  0.0445  0.8293 -0.1612
  156DOPC  H12A18693   6.481   6.552   7.214 -0.0333  0.7104 -1.5867
  156DOPC  H12B18694   6.601   6.419   7.178  0.9481  1.6226 -2.2475
  156DOPC   C1318695   6.786   6.477   7.362  0.0235  0.9835 -0.3624
  156DOPC  H13A18696   6.815   6.388   7.308 -0.9833 -0.6740  1.7137
  156DOPC  H13B18697   6.852   6.550   7.317  1.1086  1.3798  1.7383
  156DOPC  H13C18698   6.825   6.467   7.462 -0.4043 -1.2980 -0.3821
  156DOPC   C1418699   6.565   6.406   7.433 -0.5350 -0.3768 -0.0634
  156DOPC  H14A18700   6.481   6.456   7.479 -0.1295  0.3294 -0.0832
  156DOPC  H14B18701   6.536   6.324   7.369 -1.3042  0.4741 -0.8196
  156DOPC  H14C18702   6.624   6.363   7.513 -0.9831 -2.0304 -0.5828
  156DOPC   C1518703   6.623   6.641   7.424 -0.3753 -0.0894  1.0647
  156DOPC  H15A18704   6.696   6.655   7.503  3.1268 -0.7356 -1.7938
  156DOPC  H15B18705   6.526   6.648   7.471  0.1603  2.3009  1.9615
  156DOPC  H15C18706   6.634   6.715   7.346  1.1343 -2.3106 -0.9789
  156DOPC   C1118707   6.653   6.609   7.105  0.2449 -0.2421  0.0489
  156DOPC  H11A18708   6.760   6.581   7.104 -0.0593 -1.4523  0.0472
  156DOPC  H11B18709   6.599   6.588   7.010  0.6682  0.8779 -0.4566
  156DOPC     P18710   6.500   6.816   7.108  0.1699 -0.0018  0.0036
  156DOPC   O1318711   6.507   6.963   7.141  0.2454 -0.5940  0.2293
  156DOPC   O1418712   6.396   6.740   7.178 -0.7257  0.6912  0.4268
  156DOPC   O1218713   6.645   6.749   7.135 -0.2377 -0.1036 -0.2778
  156DOPC   O1118714   6.491   6.809   6.949  0.4492 -0.1443 -0.1423
  156DOPC    C118715   6.587   6.850   6.849 -0.1493  0.7754 -0.3678
  156DOPC    HA18716   6.643   6.764   6.805  0.0602  0.1301  1.1057
  156DOPC    HB18717   6.667   6.911   6.896  2.0500 -1.2793 -1.2331
  156DOPC    C218718   6.521   6.933   6.738  0.1388 -0.0157  0.3433
  156DOPC    HS18719   6.461   7.014   6.786  0.5752 -0.5490  1.8521
  156DOPC   O2118720   6.435   6.841   6.661 -0.0715 -0.0096  0.4169
  156DOPC   C2118721   6.311   6.884   6.639 -0.4615  0.0110  0.3041
  156DOPC   O2218722   6.263   6.991   6.675  0.3318 -0.2337 -0.1230
  156DOPC   C2218723   6.228   6.782   6.561  0.3371 -0.1340  0.1380
  156DOPC   H2R18724   6.142   6.768   6.629 -0.0666 -2.4178 -0.7251
  156DOPC   H2S18725   6.282   6.685   6.556  1.5198  0.5516 -1.3578
  156DOPC    C318726   6.629   6.989   6.644  0.1844  1.0170 -1.1607
  156DOPC    HX18727   6.698   6.907   6.615  0.6333  1.5153 -1.5214
  156DOPC    HY18728   6.697   7.059   6.697 -0.5986 -1.4764  3.7656
  156DOPC   O3118729   6.575   7.045   6.526 -0.1616 -0.5695  0.0824
  156DOPC   C3118730   6.512   7.159   6.547 -0.1028 -0.3541  1.1504
  156DOPC   O3218731   6.522   7.231   6.643  0.2466 -0.3456 -0.0755
  156DOPC   C3218732   6.437   7.202   6.413 -0.0914  0.4788 -0.6898
  156DOPC   H2X18733   6.455   7.309   6.391  2.4766  0.6214  1.5701
  156DOPC   H2Y18734   6.488   7.153   6.327  1.5037  0.0190  0.4700
  156DOPC   C2318735   6.173   6.818   6.419  0.5811  0.5698 -0.0669
  156DOPC   H3R18736   6.134   6.922   6.412 -1.3957 -0.0585  0.8011
  156DOPC   H3S18737   6.092   6.746   6.396  0.8582 -0.4115  1.7929
  156DOPC   C2418738   6.289   6.802   6.324 -0.0208  0.2013 -0.1721
  156DOPC   H4R18739   6.350   6.710   6.339  0.0065 -0.2772 -2.6637
  156DOPC   H4S18740   6.349   6.895   6.327 -2.5132  1.9341 -1.0733
  156DOPC   C2518741   6.244   6.785   6.177  0.0956  0.4342  0.4114
  156DOPC   H5R18742   6.300   6.854   6.110  0.8155 -0.5560 -0.0200
  156DOPC   H5S18743   6.141   6.827   6.172  0.2816  0.7630 -1.8340
  156DOPC   C2618744   6.266   6.643   6.124  0.0155 -0.1427 -0.1483
  156DOPC   H6R18745   6.213   6.562   6.179  0.7506 -0.7061 -0.2436
  156DOPC   H6S18746   6.372   6.612   6.112 -0.6872 -1.9065 -2.6113
  156DOPC   C2718747   6.199   6.635   5.980 -0.4454 -0.0059 -0.7908
  156DOPC   H7R18748   6.263   6.709   5.927 -0.4269  0.9789  0.5596
  156DOPC   H7S18749   6.092   6.665   5.977 -0.3474  0.3933 -0.4656
  156DOPC   C2818750   6.224   6.494   5.925 -0.4342  0.2479  0.1417
  156DOPC   H8R18751   6.155   6.424   5.977 -0.5219  0.4168  0.2530
  156DOPC   H8S18752   6.328   6.461   5.943  0.0591  1.3285 -0.6163
  156DOPC   C2918753   6.213   6.493   5.778  0.0852 -0.4800  1.0662
  156DOPC   H9R18754   6.202   6.593   5.736 -0.2334  0.9605  4.2707
  156DOPC  C21018755   6.224   6.385   5.700 -0.1791 -0.7733  0.6355
  156DOPC  H10R18756   6.207   6.407   5.593  1.1535 -0.2067  0.5261
  156DOPC  C21118757   6.253   6.249   5.736  0.0197 -0.2948  0.2519
  156DOPC  H11R18758   6.172   6.178   5.707  1.6269 -2.5776  1.0242
  156DOPC  H11S18759   6.266   6.232   5.845 -0.4485 -0.3754  0.2976
  156DOPC  C21218760   6.378   6.204   5.666 -0.3248  0.5773 -0.4322
  156DOPC  H12R18761   6.399   6.100   5.698 -1.7151  0.3396 -0.2169
  156DOPC  H12S18762   6.470   6.262   5.690  0.4554  0.5637 -3.1249
  156DOPC  C21318763   6.349   6.192   5.510  0.1320 -0.5745 -0.3315
  156DOPC  H13R18764   6.355   6.296   5.471 -0.1995 -0.2720  0.4062
  156DOPC  H13S18765   6.246   6.162   5.481  0.6048 -3.9639  1.0480
  156DOPC  C21418766   6.436   6.079   5.438  1.1273 -0.9987  1.7157
  156DOPC  H14R18767   6.384   5.981   5.442 -1.7438  0.4688  3.3558
  156DOPC  H14S18768   6.527   6.066   5.501  0.6534 -0.3961  2.5522
  156DOPC  C21518769   6.459   6.114   5.285 -0.3057  0.1047 -0.6844
  156DOPC  H15R18770   6.495   6.022   5.235 -2.7677 -1.3199 -0.0202
  156DOPC  H15S18771   6.536   6.193   5.276 -1.1876  0.9391 -0.9952
  156DOPC  C21618772   6.328   6.154   5.212  0.3560  0.8071 -0.4560
  156DOPC  H16R18773   6.289   6.245   5.263 -2.4698  0.3190 -1.5359
  156DOPC  H16S18774   6.250   6.076   5.227  1.0980 -0.3517 -2.2724
  156DOPC  C21718775   6.357   6.181   5.060 -0.0010 -0.0423  0.3989
  156DOPC  H17R18776   6.261   6.179   5.003  0.2864 -0.6991 -0.0784
  156DOPC  H17S18777   6.413   6.099   5.011 -0.9101  1.2023 -3.0566
  156DOPC  C21818778   6.437   6.307   5.041  0.0418  0.0720 -0.2077
  156DOPC  H18R18779   6.446   6.320   4.931 -0.1393 -0.0024 -0.2330
  156DOPC  H18S18780   6.537   6.319   5.086  0.0241  3.3173 -0.7729
  156DOPC  H18T18781   6.384   6.399   5.075 -0.2315  0.2565 -1.0894
  156DOPC   C3318782   6.285   7.170   6.417  0.0987 -1.1529 -0.4607
  156DOPC   H3X18783   6.241   7.222   6.504  0.8397  1.4811 -1.5873
  156DOPC   H3Y18784   6.275   7.060   6.434 -0.7191 -1.3676 -2.0449
  156DOPC   C3418785   6.208   7.198   6.291 -0.0523 -0.6781 -0.0891
  156DOPC   H4X18786   6.165   7.301   6.290  2.4296  0.5846  3.0409
  156DOPC   H4Y18787   6.121   7.129   6.299  0.8213 -1.6315  1.8393
  156DOPC   C3518788   6.271   7.152   6.161  0.0718  0.3750  0.3281
  156DOPC   H5X18789   6.332   7.061   6.177 -0.2391  0.4250  2.0716
  156DOPC   H5Y18790   6.338   7.236   6.134  0.2483  0.0725 -0.1817
  156DOPC   C3618791   6.175   7.116   6.044  0.1242 -0.3167  0.4536
  156DOPC   H6X18792   6.102   7.038   6.073 -0.8338 -0.0158 -1.0769
  156DOPC   H6Y18793   6.131   7.214   6.017  0.3149 -0.5917 -0.9391
  156DOPC   C3718794   6.254   7.084   5.911 -0.3192  0.0975 -1.0834
  156DOPC   H7X18795   6.324   7.168   5.887  2.3876 -0.1666  4.2447
  156DOPC   H7Y18796   6.303   6.986   5.927  0.0993  0.5988  1.0982
  156DOPC   C3818797   6.169   7.079   5.791  0.0135  0.1028  0.1860
  156DOPC   H8X18798   6.111   7.174   5.788 -0.9272 -0.4544  0.2751
  156DOPC   H8Y18799   6.092   7.001   5.810 -0.9280  1.1456  0.7326
  156DOPC   C3918800   6.220   7.066   5.654 -0.2341  0.1413  0.6054
  156DOPC   H9X18801   6.150   7.100   5.576  0.6243  0.6905  0.0569
  156DOPC  C31018802   6.336   6.998   5.610 -0.2889 -0.6067 -0.1974
  156DOPC  H10X18803   6.375   7.006   5.507 -0.3396  2.3149 -0.0727
  156DOPC  C31118804   6.445   6.938   5.695  0.4494 -0.5223  0.3381
  156DOPC  H11X18805   6.396   6.899   5.787 -1.2576 -0.7974 -0.6527
  156DOPC  H11Y18806   6.516   7.017   5.727  0.2262 -0.6681  1.2344
  156DOPC  C31218807   6.510   6.825   5.618 -0.4952 -0.1630 -0.0762
  156DOPC  H12X18808   6.591   6.785   5.684 -0.9506 -0.3473  0.3774
  156DOPC  H12Y18809   6.547   6.843   5.515 -1.0875  0.4666 -0.1789
  156DOPC  C31318810   6.421   6.697   5.607 -0.0105  0.5210  1.0076
  156DOPC  H13X18811   6.422   6.647   5.706  0.6235 -0.2970  0.6010
  156DOPC  H13Y18812   6.317   6.729   5.581  0.3016  1.0615  0.3926
  156DOPC  C31418813   6.465   6.598   5.503  0.1559 -0.1188 -0.3492
  156DOPC  H14X18814   6.395   6.514   5.487 -1.0434  0.5401  1.1509
  156DOPC  H14Y18815   6.471   6.656   5.409  4.1810  1.3387  0.5982
  156DOPC  C31518816   6.602   6.531   5.525  0.7404 -0.0183  0.1479
  156DOPC  H15X18817   6.581   6.467   5.613  1.7170 -1.0239 -0.3379
  156DOPC  H15Y18818   6.677   6.611   5.544  1.5536 -0.3814 -1.4086
  156DOPC  C31618819   6.651   6.450   5.403 -0.5004  0.1771 -0.0273
  156DOPC  H16X18820   6.728   6.374   5.427 -0.5827  0.2629  0.5287
  156DOPC  H16Y18821   6.561   6.394   5.371 -1.4323  0.4568  1.9539
  156DOPC  C31718822   6.709   6.545   5.297 -0.0607  0.0488  0.9659
  156DOPC  H17X18823   6.724   6.478   5.209 -0.6672  2.4384 -1.0695
  156DOPC  H17Y18824   6.628   6.612   5.261 -0.6395 -0.8430  0.5741
  156DOPC  C31818825   6.838   6.617   5.330 -0.5644 -0.2674  0.0611
  156DOPC  H18X18826   6.886   6.575   5.421 -2.1467 -2.4579 -0.0324
  156DOPC  H18Y18827   6.905   6.613   5.241 -2.3809  1.6884 -1.5132
  156DOPC  H18Z18828   6.819   6.725   5.348  1.6459  0.1600  0.0790
  157DOPC     N18829   4.711   2.723   7.400  0.2115 -0.0267  0.0493
  157DOPC   C1218830   4.790   2.833   7.336 -0.5353 -1.0166  0.2610
  157DOPC  H12A18831   4.876   2.868   7.392 -0.5759 -0.8479  0.2196
  157DOPC  H12B18832   4.733   2.924   7.328 -1.9510 -1.7065  1.7706
  157DOPC   C1318833   4.587   2.708   7.324  0.1153 -0.2368  0.3109
  157DOPC  H13A18834   4.509   2.780   7.344 -1.6931 -1.2378 -2.4911
  157DOPC  H13B18835   4.611   2.709   7.219  0.6607 -0.6194  0.4253
  157DOPC  H13C18836   4.543   2.610   7.336 -1.0762  0.2344 -0.0687
  157DOPC   C1418837   4.673   2.752   7.540  0.4235  0.5539 -0.2889
  157DOPC  H14A18838   4.617   2.843   7.551  0.5707  0.5524  0.5874
  157DOPC  H14B18839   4.607   2.678   7.584 -0.0095  1.2002  0.1696
  157DOPC  H14C18840   4.760   2.764   7.603 -1.2424 -1.7491  2.7475
  157DOPC   C1518841   4.779   2.589   7.385 -0.3689  0.4016 -0.7324
  157DOPC  H15A18842   4.711   2.512   7.351 -0.1490  0.6325 -1.7525
  157DOPC  H15B18843   4.813   2.557   7.482 -1.9738  2.0863  0.4511
  157DOPC  H15C18844   4.864   2.594   7.318  0.0229  2.0771 -0.1582
  157DOPC   C1118845   4.862   2.808   7.200  0.7012  0.1758  0.2114
  157DOPC  H11A18846   4.792   2.766   7.125 -0.3969  0.4285  1.0697
  157DOPC  H11B18847   4.891   2.909   7.164 -0.6635  0.9073  1.0794
  157DOPC     P18848   5.111   2.752   7.268 -0.0961  0.2853 -0.0445
  157DOPC   O1318849   5.188   2.633   7.293  0.0258  0.0208  0.1925
  157DOPC   O1418850   5.089   2.834   7.387 -0.2327  0.1437 -0.0546
  157DOPC   O1218851   4.977   2.717   7.207  0.4197 -0.0739 -0.5330
  157DOPC   O1118852   5.183   2.829   7.152  0.4185 -0.0035  0.2556
  157DOPC    C118853   5.282   2.777   7.060 -0.3184  0.0291  0.7840
  157DOPC    HA18854   5.226   2.756   6.967 -0.6297  0.0604  0.9599
  157DOPC    HB18855   5.337   2.690   7.101 -0.7579 -0.0790  1.1607
  157DOPC    C218856   5.399   2.880   7.024  0.2570  0.4644  0.1814
  157DOPC    HS18857   5.435   2.923   7.120  1.3478  1.4812 -0.6695
  157DOPC   O2118858   5.336   2.985   6.947  0.1251  0.2378  0.5694
  157DOPC   C2118859   5.397   3.095   6.946  0.0873 -0.4109  0.7677
  157DOPC   O2218860   5.482   3.130   7.026 -0.3041 -0.2368  0.3205
  157DOPC   C2218861   5.359   3.173   6.819 -0.1797 -0.5762  0.1904
  157DOPC   H2R18862   5.281   3.248   6.845 -0.4527 -1.0983  0.9128
  157DOPC   H2S18863   5.324   3.101   6.742  2.3193 -1.2422 -0.4080
  157DOPC    C318864   5.503   2.807   6.930  0.3683  0.2495  0.2002
  157DOPC    HX18865   5.449   2.779   6.837  1.0557  0.0413 -0.1400
  157DOPC    HY18866   5.542   2.714   6.978  1.5448  1.3266  1.4084
  157DOPC   O3118867   5.613   2.891   6.888  0.1975  0.1821  0.2845
  157DOPC   C3118868   5.707   2.908   6.978 -0.0498  0.2139 -0.0685
  157DOPC   O3218869   5.709   2.858   7.090  0.0384  0.9046  0.4662
  157DOPC   C3218870   5.813   3.005   6.922 -0.3777  0.0516  0.0226
  157DOPC   H2X18871   5.784   3.112   6.927 -1.5638 -0.2456  0.0341
  157DOPC   H2Y18872   5.909   2.989   6.974 -0.6081 -0.4152  0.3104
  157DOPC   C2318873   5.486   3.238   6.755  0.2047 -0.5105 -0.6917
  157DOPC   H3R18874   5.467   3.239   6.645  0.7954  0.2293 -0.7935
  157DOPC   H3S18875   5.573   3.169   6.767 -1.1714 -2.1684  0.2188
  157DOPC   C2418876   5.522   3.374   6.815 -0.6017 -0.0004  0.7555
  157DOPC   H4R18877   5.562   3.369   6.919 -3.1505  1.7361  1.9164
  157DOPC   H4S18878   5.431   3.437   6.811 -0.0289  0.8101 -0.0286
  157DOPC   C2518879   5.621   3.444   6.732  0.0816  0.1865  0.8992
  157DOPC   H5R18880   5.659   3.539   6.776  1.0704 -0.6138  1.8051
  157DOPC   H5S18881   5.587   3.463   6.628  0.0192  0.0239  0.8905
  157DOPC   C2618882   5.745   3.358   6.706 -1.1092 -0.3588 -0.4920
  157DOPC   H6R18883   5.719   3.270   6.642  0.1290 -1.1141  0.0053
  157DOPC   H6S18884   5.785   3.320   6.802  1.4363  0.4437 -1.1628
  157DOPC   C2718885   5.852   3.437   6.632 -1.4001 -0.6515  0.5882
  157DOPC   H7R18886   5.879   3.528   6.689  0.7718  0.1142 -1.4996
  157DOPC   H7S18887   5.813   3.460   6.531  0.9109 -0.5983 -0.3597
  157DOPC   C2818888   5.979   3.350   6.605 -0.1921 -0.1747 -0.5180
  157DOPC   H8R18889   5.948   3.249   6.570 -0.0370 -1.4254  2.5551
  157DOPC   H8S18890   6.018   3.330   6.707 -0.4482 -1.9061 -0.7270
  157DOPC   C2918891   6.070   3.426   6.511 -0.1516 -0.5955 -0.4824
  157DOPC   H9R18892   6.117   3.511   6.561  0.4358 -2.2216  1.8679
  157DOPC  C21018893   6.089   3.406   6.381  0.7119 -0.2971  0.3512
  157DOPC  H10R18894   6.137   3.483   6.319 -0.4608  0.5018  0.4075
  157DOPC  C21118895   6.032   3.296   6.298 -0.1355 -0.5210 -0.5486
  157DOPC  H11R18896   6.060   3.199   6.344 -0.0530  0.2815  1.1814
  157DOPC  H11S18897   6.073   3.299   6.195  2.8226  1.2120  0.5577
  157DOPC  C21218898   5.876   3.297   6.285 -0.0844 -0.6066  0.2417
  157DOPC  H12R18899   5.846   3.395   6.241 -0.3497 -0.4893  0.6716
  157DOPC  H12S18900   5.822   3.288   6.382 -1.6408  2.1051 -0.2654
  157DOPC  C21318901   5.827   3.179   6.194  0.2304  0.2498 -0.3071
  157DOPC  H13R18902   5.881   3.086   6.225  3.9584  1.6012 -2.0780
  157DOPC  H13S18903   5.871   3.201   6.094 -0.5990 -0.4252 -0.8429
  157DOPC  C21418904   5.672   3.165   6.185  0.0998  0.2637  0.1295
  157DOPC  H14R18905   5.652   3.067   6.135 -0.9835  0.1391  0.7767
  157DOPC  H14S18906   5.632   3.246   6.120 -2.1844 -0.2439  0.7948
  157DOPC  C21518907   5.580   3.157   6.310  0.4551  0.3063  0.1577
  157DOPC  H15R18908   5.474   3.144   6.279  0.3474 -1.5473  1.1662
  157DOPC  H15S18909   5.598   3.248   6.372  0.4868  0.1205  0.4228
  157DOPC  C21618910   5.615   3.022   6.395  0.2919 -0.3179  0.2320
  157DOPC  H16R18911   5.713   3.046   6.442  1.0691 -1.0786 -0.9513
  157DOPC  H16S18912   5.631   2.939   6.324 -1.4570 -0.4804 -0.0134
  157DOPC  C21718913   5.518   2.981   6.494 -0.3773  0.2026  0.1819
  157DOPC  H17R18914   5.424   2.975   6.434  0.4361 -1.1710 -0.9944
  157DOPC  H17S18915   5.497   3.056   6.574  2.0136  1.1137  0.0197
  157DOPC  C21818916   5.545   2.846   6.557 -0.4057 -0.4598  0.1467
  157DOPC  H18R18917   5.554   2.770   6.477 -1.4330  1.6016 -2.0604
  157DOPC  H18S18918   5.449   2.819   6.607  0.2189 -2.8060  0.1786
  157DOPC  H18T18919   5.631   2.850   6.627 -1.1014  1.0878  0.9817
  157DOPC   C3318920   5.834   2.977   6.768  0.4964  0.4334  0.6211
  157DOPC   H3X18921   5.908   3.051   6.731  0.2059  0.6522  0.4786
  157DOPC   H3Y18922   5.738   2.996   6.715 -0.2811  0.9676  2.1442
  157DOPC   C3418923   5.880   2.836   6.735  0.2409 -0.2204  0.0791
  157DOPC   H4X18924   5.896   2.833   6.625 -1.2367 -0.7114 -0.1392
  157DOPC   H4Y18925   5.799   2.762   6.756  1.0007 -1.3617 -0.8406
  157DOPC   C3518926   6.008   2.793   6.796 -0.0441  0.4789 -0.7542
  157DOPC   H5X18927   6.020   2.831   6.900  1.3074  0.6272 -0.9460
  157DOPC   H5Y18928   6.097   2.846   6.755  0.3644 -1.1068 -1.9926
  157DOPC   C3618929   6.022   2.644   6.790 -0.4842 -0.0707  0.2218
  157DOPC   H6X18930   5.937   2.599   6.845 -0.0527  1.3646  2.1837
  157DOPC   H6Y18931   6.008   2.616   6.683 -0.6582 -0.1084  0.2561
  157DOPC   C3718932   6.149   2.584   6.854 -0.6494 -0.3749 -0.4161
  157DOPC   H7X18933   6.234   2.639   6.808  0.1759 -3.3749 -2.8225
  157DOPC   H7Y18934   6.155   2.598   6.964  2.6548 -1.2051 -0.3813
  157DOPC   C3818935   6.178   2.428   6.824 -0.4392  0.3780  0.4168
  157DOPC   H8X18936   6.260   2.397   6.893 -0.5248 -0.0650  0.3245
  157DOPC   H8Y18937   6.218   2.419   6.721  1.5176  3.1637  0.8094
  157DOPC   C3918938   6.048   2.348   6.844  0.1180  0.1321 -0.1943
  157DOPC   H9X18939   6.013   2.348   6.949  1.4601 -0.4847  0.2787
  157DOPC  C31018940   5.989   2.265   6.760 -0.0737 -0.1430 -0.0152
  157DOPC  H10X18941   5.892   2.219   6.784  0.3701 -0.6495  0.8523
  157DOPC  C31118942   6.042   2.233   6.619  0.4482  0.3012 -0.5046
  157DOPC  H11X18943   5.990   2.140   6.588 -1.0327  0.0382  2.3507
  157DOPC  H11Y18944   6.150   2.207   6.630  0.3065 -0.7646 -1.5465
  157DOPC  C31218945   6.013   2.344   6.516  0.2279 -0.8376  0.0153
  157DOPC  H12X18946   6.078   2.426   6.553 -1.0485  0.2819 -0.1712
  157DOPC  H12Y18947   5.910   2.384   6.518  0.6411  0.4265 -1.6852
  157DOPC  C31318948   6.047   2.308   6.375  0.1169 -0.4794 -0.2316
  157DOPC  H13X18949   6.157   2.296   6.365  0.2461  0.1833  0.2712
  157DOPC  H13Y18950   6.000   2.213   6.343 -1.2294  0.8248 -2.3870
  157DOPC  C31418951   5.999   2.422   6.278  1.0020  0.3081  0.4247
  157DOPC  H14X18952   5.889   2.436   6.282  1.1164  1.4648 -0.0013
  157DOPC  H14Y18953   6.040   2.523   6.296 -1.6395  1.2724  1.4924
  157DOPC  C31518954   6.041   2.393   6.135  1.2155  0.1163  0.2607
  157DOPC  H15X18955   6.010   2.291   6.105  0.0732  0.7527 -0.8230
  157DOPC  H15Y18956   6.151   2.394   6.120  1.0632 -0.2461 -0.9810
  157DOPC  C31618957   5.969   2.496   6.038 -0.3170 -0.0678 -0.4370
  157DOPC  H16X18958   5.861   2.475   6.053 -0.2545 -0.1180 -0.0426
  157DOPC  H16Y18959   6.008   2.594   6.074  1.6083 -1.1042  0.4986
  157DOPC  C31718960   6.010   2.477   5.893 -0.2624 -0.2830  0.0732
  157DOPC  H17X18961   6.119   2.497   5.885 -0.4783  0.8866 -0.0603
  157DOPC  H17Y18962   5.991   2.369   5.876  1.9599 -1.1628  2.3867
  157DOPC  C31818963   5.927   2.565   5.797  0.1244  0.1879 -0.5788
  157DOPC  H18X18964   5.940   2.674   5.817  1.0292  0.3304 -1.8164
  157DOPC  H18Y18965   5.964   2.546   5.694 -0.1613 -0.3445 -0.5860
  157DOPC  H18Z18966   5.817   2.548   5.799  0.0554  0.4390 -1.5382
  158DOPC     N18967   3.826   5.853   6.954 -0.2871 -0.1755 -0.7026
  158DOPC   C1218968   3.836   5.881   6.807 -0.3358  0.3684  0.0096
  158DOPC  H12A18969   3.931   5.857   6.762 -1.1817 -1.4046 -0.9894
  158DOPC  H12B18970   3.833   5.988   6.795  1.0134  0.6692  1.9800
  158DOPC   C1318971   3.937   5.914   7.025 -0.4724  0.1828 -0.4701
  158DOPC  H13A18972   3.934   6.022   7.021 -1.4604  0.1815 -0.0216
  158DOPC  H13B18973   3.935   5.899   7.132  1.1361 -1.5233 -0.6173
  158DOPC  H13C18974   4.032   5.881   6.985 -0.5226  0.9489 -1.2321
  158DOPC   C1418975   3.825   5.711   6.979  0.3853  0.0894 -0.3497
  158DOPC  H14A18976   3.915   5.655   6.958 -0.5468 -1.3089 -0.6688
  158DOPC  H14B18977   3.802   5.679   7.080  2.2336 -5.2668 -1.3418
  158DOPC  H14C18978   3.754   5.655   6.922  0.2055 -2.4992  2.1931
  158DOPC   C1518979   3.699   5.909   6.999 -0.2383  0.8840  0.3517
  158DOPC  H15A18980   3.695   6.014   6.973 -1.1118  1.0621  1.1629
  158DOPC  H15B18981   3.668   5.889   7.100 -0.6220  3.0028  0.7112
  158DOPC  H15C18982   3.619   5.862   6.944 -0.6821 -0.2996  1.9325
  158DOPC   C1118983   3.728   5.808   6.714 -0.0454 -0.6340 -0.4149
  158DOPC  H11A18984   3.629   5.832   6.758  0.5107  1.9465 -0.4061
  158DOPC  H11B18985   3.731   5.858   6.614 -1.3904  0.7634  0.2059
  158DOPC     P18986   3.865   5.595   6.619 -0.1094 -0.0537  0.5501
  158DOPC   O1318987   3.851   5.450   6.657 -0.3001  0.1179  0.4151
  158DOPC   O1418988   3.999   5.662   6.637 -0.0321  0.1577  0.8715
  158DOPC   O1218989   3.759   5.667   6.707  0.4278 -0.7687  0.0136
  158DOPC   O1118990   3.804   5.623   6.471 -0.0388 -0.3454 -0.1499
  158DOPC    C118991   3.671   5.582   6.450 -0.1033  0.1382  0.2115
  158DOPC    HA18992   3.610   5.597   6.542 -0.5238  2.2536 -0.3521
  158DOPC    HB18993   3.665   5.474   6.426  2.8244 -0.0200 -0.0945
  158DOPC    C218994   3.613   5.671   6.343 -0.1220 -0.0299 -0.6609
  158DOPC    HS18995   3.677   5.676   6.253 -1.3869 -0.7842 -1.6309
  158DOPC   O2118996   3.606   5.801   6.395  0.3959  0.2013 -0.4016
  158DOPC   C2118997   3.653   5.900   6.319 -0.3802  0.1632  0.3854
  158DOPC   O2218998   3.734   5.891   6.228 -0.2895  0.3727 -0.7147
  158DOPC   C2218999   3.602   6.029   6.380 -0.0586  0.5035 -1.0079
  158DOPC   H2R19000   3.641   6.030   6.484 -0.7203  0.4741 -0.7544
  158DOPC   H2S19001   3.492   6.014   6.393  0.2196  0.2566  1.7702
  158DOPC    C319002   3.463   5.623   6.304 -0.2808 -0.1512  0.5499
  158DOPC    HX19003   3.396   5.648   6.389 -0.1005  4.2027 -0.3871
  158DOPC    HY19004   3.465   5.512   6.302  0.6351 -0.1306 -0.5975
  158DOPC   O3119005   3.417   5.685   6.178 -0.6017 -0.0989 -0.6081
  158DOPC   C3119006   3.344   5.792   6.196  0.3540 -0.2564 -0.1036
  158DOPC   O3219007   3.313   5.854   6.298 -0.2158  0.0337  0.5543
  158DOPC   C3219008   3.274   5.821   6.060 -0.1322 -0.2345 -0.2219
  158DOPC   H2X19009   3.346   5.783   5.984  0.7266 -2.0028  1.3847
  158DOPC   H2Y19010   3.177   5.767   6.059  0.8040 -2.0038 -0.8309
  158DOPC   C2319011   3.654   6.155   6.311  0.2420  0.6696 -0.1245
  158DOPC   H3R19012   3.759   6.137   6.281 -0.7211 -2.9375 -1.9306
  158DOPC   H3S19013   3.645   6.252   6.364 -0.8160  0.2802  0.4275
  158DOPC   C2419014   3.578   6.159   6.178  0.3556 -0.5716  0.4195
  158DOPC   H4R19015   3.470   6.163   6.205  0.0859 -1.7451 -0.3600
  158DOPC   H4S19016   3.593   6.076   6.105  1.2657 -1.0427  1.1219
  158DOPC   C2519017   3.617   6.285   6.112  0.0807  0.1932  0.7515
  158DOPC   H5R19018   3.725   6.288   6.082 -0.4595  0.7444 -1.3303
  158DOPC   H5S19019   3.599   6.373   6.177 -1.0720  1.1783 -0.8322
  158DOPC   C2619020   3.533   6.300   5.981 -0.5561  0.0406 -0.2749
  158DOPC   H6R19021   3.428   6.330   5.998 -0.1658  0.8889  0.7948
  158DOPC   H6S19022   3.524   6.200   5.934 -2.9549 -0.4100  1.0235
  158DOPC   C2719023   3.605   6.382   5.879 -0.4728 -0.1101  0.3197
  158DOPC   H7R19024   3.710   6.349   5.873 -0.0549  0.8536  1.7180
  158DOPC   H7S19025   3.600   6.489   5.910 -0.4411  0.4359 -1.4536
  158DOPC   C2819026   3.541   6.369   5.736 -0.2686  0.2583 -0.5364
  158DOPC   H8R19027   3.440   6.413   5.743  0.1007  0.8409  2.5352
  158DOPC   H8S19028   3.513   6.263   5.723  0.5071 -0.1245  0.7380
  158DOPC   C2919029   3.624   6.408   5.617  1.2009  1.1365  0.4062
  158DOPC   H9R19030   3.682   6.325   5.573 -1.0143  0.7022 -1.9438
  158DOPC  C21019031   3.604   6.518   5.552  0.2933  0.4665 -0.0894
  158DOPC  H10R19032   3.665   6.529   5.461 -0.5157  0.5917 -0.6227
  158DOPC  C21119033   3.523   6.640   5.582  0.6390 -0.0127 -0.6690
  158DOPC  H11R19034   3.489   6.646   5.688 -0.0859 -4.3105 -0.4883
  158DOPC  H11S19035   3.427   6.629   5.527  1.2469 -0.8474 -1.5872
  158DOPC  C21219036   3.596   6.770   5.535 -0.4388 -0.3466  0.0898
  158DOPC  H12R19037   3.606   6.774   5.424  2.0582  0.5306  0.2868
  158DOPC  H12S19038   3.694   6.788   5.584 -0.7538  0.3394  0.4820
  158DOPC  C21319039   3.504   6.887   5.571 -0.5560 -0.0160  0.1436
  158DOPC  H13R19040   3.482   6.890   5.680  0.4953 -0.2710  0.3737
  158DOPC  H13S19041   3.404   6.865   5.528  0.4159 -1.0317 -1.7393
  158DOPC  C21419042   3.541   7.018   5.510  0.2527  0.3834  1.0523
  158DOPC  H14R19043   3.578   7.014   5.405  2.7532  3.0292  1.7333
  158DOPC  H14S19044   3.631   7.048   5.567  0.5818  1.4821 -0.0016
  158DOPC  C21519045   3.430   7.127   5.514 -0.0640 -0.6124  0.9979
  158DOPC  H15R19046   3.422   7.164   5.618  0.6439  0.0600  0.8233
  158DOPC  H15S19047   3.335   7.086   5.473  0.7194 -0.1803 -1.4226
  158DOPC  C21619048   3.459   7.255   5.430 -0.0806  0.1481  0.5720
  158DOPC  H16R19049   3.568   7.245   5.411 -0.5323 -1.2286 -1.5128
  158DOPC  H16S19050   3.420   7.347   5.479 -1.1430 -0.4562  0.9016
  158DOPC  C21719051   3.382   7.258   5.296  0.2999 -0.0894 -0.3826
  158DOPC  H17R19052   3.401   7.354   5.243  0.4911  0.3106  0.3957
  158DOPC  H17S19053   3.274   7.258   5.323  0.4017  0.5054  0.0528
  158DOPC  C21819054   3.406   7.135   5.209 -0.3120  0.5168  0.1235
  158DOPC  H18R19055   3.375   7.148   5.103  0.3363 -0.7121 -0.2324
  158DOPC  H18S19056   3.353   7.043   5.240  3.0288 -1.0931  1.5468
  158DOPC  H18T19057   3.513   7.110   5.197 -0.8943 -1.2589 -1.9929
  158DOPC   C3319058   3.252   5.974   6.051  0.1680  0.1762  0.0696
  158DOPC   H3X19059   3.331   6.033   6.102 -0.2690 -1.0192  2.2790
  158DOPC   H3Y19060   3.164   5.993   6.117 -1.1713 -2.1729 -0.8900
  158DOPC   C3419061   3.228   6.008   5.908  0.4144  0.5709  0.2115
  158DOPC   H4X19062   3.158   5.930   5.871 -0.8696  1.5192  0.5607
  158DOPC   H4Y19063   3.323   5.997   5.852 -0.8948 -2.5054 -1.7028
  158DOPC   C3519064   3.173   6.148   5.890  0.2517  0.1317  0.1860
  158DOPC   H5X19065   3.232   6.223   5.948 -1.4733  3.4678 -2.0483
  158DOPC   H5Y19066   3.069   6.148   5.929  0.4146  1.9022  0.7191
  158DOPC   C3619067   3.173   6.193   5.737  0.6265  1.0286 -0.2008
  158DOPC   H6X19068   3.275   6.196   5.693  1.0968 -1.2953  0.6196
  158DOPC   H6Y19069   3.122   6.118   5.674 -0.1468  0.2967  1.2567
  158DOPC   C3719070   3.094   6.318   5.699  0.0451 -0.4620 -0.2624
  158DOPC   H7X19071   2.989   6.313   5.735 -0.6204  1.5751 -1.7364
  158DOPC   H7Y19072   3.140   6.407   5.747 -0.2792 -0.4667  0.0630
  158DOPC   C3819073   3.078   6.331   5.549  0.0055  0.0872  0.0373
  158DOPC   H8X19074   3.008   6.413   5.522 -0.5712 -0.2695  0.4305
  158DOPC   H8Y19075   3.044   6.236   5.503 -0.2784  1.7760 -3.6047
  158DOPC   C3919076   3.220   6.373   5.498  0.5925  0.0009  0.5458
  158DOPC   H9X19077   3.303   6.354   5.567  0.4033 -1.2371  0.4521
  158DOPC  C31019078   3.245   6.438   5.378 -0.0809 -0.7822  0.0250
  158DOPC  H10X19079   3.350   6.468   5.365  0.1386 -0.3389  2.3735
  158DOPC  C31119080   3.148   6.477   5.272 -0.0638  0.1539 -0.0945
  158DOPC  H11X19081   3.181   6.578   5.241  0.8911  0.4602  1.7724
  158DOPC  H11Y19082   3.048   6.487   5.317 -0.5942  0.7733 -1.3459
  158DOPC  C31219083   3.128   6.376   5.157 -0.0919  0.7676  0.1450
  158DOPC  H12X19084   3.086   6.287   5.209  2.5805 -0.3821  0.5431
  158DOPC  H12Y19085   3.222   6.355   5.101  1.8658  4.9866  1.4172
  158DOPC  C31319086   3.020   6.419   5.054  0.4712  0.0595 -0.0207
  158DOPC  H13X19087   2.927   6.449   5.107  0.5300  0.6496 -0.2514
  158DOPC  H13Y19088   3.050   6.516   5.010  0.1248 -0.3417 -1.1988
  158DOPC  C31419089   2.998   6.310   4.945  0.1473 -0.0108 -0.0727
  158DOPC  H14X19090   3.094   6.305   4.890 -0.7014  0.0989 -1.6340
  158DOPC  H14Y19091   2.962   6.215   4.989 -0.1911  0.0538 -0.2033
  158DOPC  C31519092   2.883   6.360   4.847 -0.1062  0.7833  0.1452
  158DOPC  H15X19093   2.924   6.440   4.781  1.7379 -0.8284 -0.7647
  158DOPC  H15Y19094   2.791   6.385   4.904  0.6590  2.3436  0.7721
  158DOPC  C31619095   2.836   6.246   4.749 -1.3121 -0.1870 -0.4176
  158DOPC  H16X19096   2.920   6.217   4.683 -1.0187  0.0759 -0.1615
  158DOPC  H16Y19097   2.810   6.154   4.806 -0.5874  1.0055  1.9950
  158DOPC  C31719098   2.713   6.278   4.659  0.4879 -0.2758  0.4468
  158DOPC  H17X19099   2.748   6.351   4.583 -0.4484 -1.3825 -1.1036
  158DOPC  H17Y19100   2.675   6.188   4.608 -2.3073  0.9564  0.2007
  158DOPC  C31819101   2.590   6.331   4.725  0.5542  0.0843 -0.6080
  158DOPC  H18X19102   2.601   6.425   4.782 -2.5622 -0.1073  0.5122
  158DOPC  H18Y19103   2.529   6.376   4.644  1.5690  0.1373 -1.3632
  158DOPC  H18Z19104   2.532   6.263   4.791 -0.1945  0.7534 -0.5646
  159DOPC     N19105   6.904   1.975   7.559  0.1945 -0.4308  0.2401
  159DOPC   C1219106   6.952   2.012   7.417  0.2476 -0.0237  0.5037
  159DOPC  H12A19107   6.955   2.119   7.403  0.8718  0.2377  2.4497
  159DOPC  H12B19108   6.887   1.971   7.341  0.8208 -1.9220  0.9913
  159DOPC   C1319109   6.962   2.064   7.665  0.3415  0.1386 -0.1684
  159DOPC  H13A19110   6.919   2.036   7.760  0.9690 -0.8747 -0.1709
  159DOPC  H13B19111   7.068   2.048   7.677  0.2220  0.6315  1.8647
  159DOPC  H13C19112   6.941   2.167   7.639  2.7301  0.9826  0.9064
  159DOPC   C1419113   6.935   1.832   7.586  0.1840  0.0568 -0.1959
  159DOPC  H14A19114   6.876   1.769   7.521 -1.0703  0.2827  0.6851
  159DOPC  H14B19115   7.035   1.802   7.558  0.5070 -0.0030  0.9671
  159DOPC  H14C19116   6.913   1.792   7.684  1.0146  0.6701  0.2542
  159DOPC   C1519117   6.753   1.991   7.559 -0.6041 -0.4017 -0.4939
  159DOPC  H15A19118   6.735   2.097   7.551 -2.1122 -0.3700  2.1470
  159DOPC  H15B19119   6.719   1.967   7.659  0.6292  3.0423  0.8840
  159DOPC  H15C19120   6.697   1.942   7.481 -1.8997  0.7026 -0.2933
  159DOPC   C1119121   7.101   1.971   7.398 -0.7781 -0.0433  0.0542
  159DOPC  H11A19122   7.142   2.046   7.328  0.4499  0.7789  1.5867
  159DOPC  H11B19123   7.137   1.983   7.503 -1.1658 -0.4435  0.2355
  159DOPC     P19124   7.126   1.791   7.205 -0.4963 -0.2594 -0.0576
  159DOPC   O1319125   7.151   1.647   7.203 -0.6866 -1.1960 -0.5642
  159DOPC   O1419126   7.220   1.883   7.131 -0.2666  0.3350 -0.6471
  159DOPC   O1219127   7.121   1.839   7.357  0.0487 -0.7763 -0.0164
  159DOPC   O1119128   6.986   1.825   7.146  0.2983 -0.3829  0.1970
  159DOPC    C119129   6.879   1.737   7.134 -0.0193  0.0853 -0.4790
  159DOPC    HA19130   6.792   1.803   7.115  1.1933  1.1413 -2.7977
  159DOPC    HB19131   6.858   1.683   7.229  0.2534  1.0964  0.1653
  159DOPC    C219132   6.886   1.644   7.008  0.3310  0.0846  0.5303
  159DOPC    HS19133   6.970   1.571   7.014  1.2147  1.0164 -0.1964
  159DOPC   O2119134   6.910   1.714   6.887  0.0180 -0.0520 -0.3966
  159DOPC   C2119135   7.029   1.710   6.827  0.1257  0.4857  0.2327
  159DOPC   O2219136   7.117   1.633   6.864 -0.8032  0.0371 -0.3020
  159DOPC   C2219137   7.020   1.813   6.709 -0.1500 -0.1102  0.4928
  159DOPC   H2R19138   7.040   1.915   6.747  1.5471 -0.1124 -0.3034
  159DOPC   H2S19139   6.922   1.794   6.660  0.7521 -3.3605 -0.3246
  159DOPC    C319140   6.758   1.563   6.992  0.5076 -0.4897 -0.6185
  159DOPC    HX19141   6.677   1.639   6.985  0.3956 -0.5700 -0.2356
  159DOPC    HY19142   6.742   1.502   7.083  0.5949 -2.4452 -1.8613
  159DOPC   O3119143   6.754   1.493   6.873 -0.7091  0.3889 -0.6423
  159DOPC   C3119144   6.807   1.362   6.878 -0.1500  0.1533  0.1653
  159DOPC   O3219145   6.852   1.318   6.980  0.0464 -0.2205  0.4473
  159DOPC   C3219146   6.825   1.305   6.737 -0.0083 -0.6352  0.6712
  159DOPC   H2X19147   6.743   1.231   6.723 -0.7187  0.1585  0.5630
  159DOPC   H2Y19148   6.811   1.394   6.673  1.9017  0.1112  1.2102
  159DOPC   C2319149   7.134   1.784   6.602 -0.2721  0.0647  0.4814
  159DOPC   H3R19150   7.137   1.675   6.583  0.9347  0.1239  0.2035
  159DOPC   H3S19151   7.227   1.805   6.660 -0.0763 -0.2430  0.2834
  159DOPC   C2419152   7.117   1.861   6.471  0.4583  0.3535 -0.8030
  159DOPC   H4R19153   7.207   1.847   6.407  1.7123  1.7802  0.5844
  159DOPC   H4S19154   7.106   1.968   6.497 -2.1023  0.3166 -1.4591
  159DOPC   C2519155   6.997   1.826   6.387  0.4359  0.5959 -0.2402
  159DOPC   H5R19156   6.911   1.828   6.457 -0.4643 -0.6512 -1.2440
  159DOPC   H5S19157   7.004   1.721   6.350  3.0678  1.1093 -1.3974
  159DOPC   C2619158   6.968   1.909   6.263  0.1370 -0.0691 -0.1383
  159DOPC   H6R19159   6.887   1.874   6.195  0.7249  0.4100 -1.1143
  159DOPC   H6S19160   7.058   1.904   6.198 -0.0871  0.3404 -0.4844
  159DOPC   C2719161   6.928   2.058   6.278 -0.2702  0.2145 -0.0740
  159DOPC   H7R19162   6.980   2.093   6.370  1.3312  0.7506 -1.1440
  159DOPC   H7S19163   6.820   2.058   6.307 -0.2168 -0.2246  0.1363
  159DOPC   C2819164   6.964   2.141   6.163  1.1127  0.0586  0.7366
  159DOPC   H8R19165   7.074   2.154   6.157  0.9129  1.7124  0.0380
  159DOPC   H8S19166   6.925   2.245   6.174 -1.3870 -0.8593  1.3711
  159DOPC   C2919167   6.916   2.094   6.032  0.2186 -0.3517  0.7961
  159DOPC   H9R19168   6.806   2.085   6.024  0.2709 -0.7432  0.4512
  159DOPC  C21019169   7.000   2.061   5.933  0.2920  0.8845  0.4644
  159DOPC  H10R19170   6.952   2.026   5.841 -2.5088  0.8068  1.8368
  159DOPC  C21119171   7.147   2.086   5.925 -0.0554 -0.0824 -0.6484
  159DOPC  H11R19172   7.190   1.990   5.960 -1.9144  0.0847  2.4899
  159DOPC  H11S19173   7.171   2.172   5.992  1.0516 -0.2840 -0.7677
  159DOPC  C21219174   7.192   2.115   5.782  0.4759 -0.3950  0.8069
  159DOPC  H12R19175   7.152   2.034   5.718  1.7792 -1.1277  0.8921
  159DOPC  H12S19176   7.303   2.105   5.774  0.5494  0.8790 -0.1632
  159DOPC  C21319177   7.150   2.251   5.722  0.5632  0.2029 -0.1505
  159DOPC  H13R19178   7.169   2.325   5.802  0.9735 -0.3491  0.2718
  159DOPC  H13S19179   7.039   2.251   5.714  0.6451 -1.5428 -2.3129
  159DOPC  C21419180   7.214   2.290   5.591  0.4564  0.0266  0.4254
  159DOPC  H14R19181   7.311   2.235   5.580  0.0019 -0.8493  0.7220
  159DOPC  H14S19182   7.229   2.399   5.574 -1.1192  0.1234 -0.5384
  159DOPC  C21519183   7.143   2.231   5.466 -0.1666 -0.4144 -0.4394
  159DOPC  H15R19184   7.037   2.265   5.470  0.2425  1.0484 -1.0867
  159DOPC  H15S19185   7.160   2.122   5.465  1.5310 -0.1903  0.7645
  159DOPC  C21619186   7.192   2.290   5.336  0.4071  0.6246  0.6189
  159DOPC  H16R19187   7.146   2.390   5.326 -1.3215 -0.3617 -2.9336
  159DOPC  H16S19188   7.137   2.233   5.258  0.8847  2.7525 -1.3579
  159DOPC  C21719189   7.346   2.289   5.308  0.2228  0.2091 -0.3506
  159DOPC  H17R19190   7.399   2.367   5.367  1.1968 -1.4275  1.0533
  159DOPC  H17S19191   7.357   2.311   5.200 -2.9848 -1.5493 -1.1758
  159DOPC  C21819192   7.401   2.150   5.335 -0.5666 -0.0466  0.2981
  159DOPC  H18R19193   7.505   2.146   5.297 -0.7106 -0.7626 -0.0299
  159DOPC  H18S19194   7.342   2.083   5.269 -1.6965  0.1518  1.0773
  159DOPC  H18T19195   7.400   2.124   5.443  1.8304  0.9879  0.6233
  159DOPC   C3319196   6.959   1.240   6.717  0.1448  0.5000 -0.2717
  159DOPC   H3X19197   6.954   1.167   6.632 -0.3952 -1.8179  1.6315
  159DOPC   H3Y19198   6.988   1.176   6.803  1.4670  0.5130 -0.6713
  159DOPC   C3419199   7.070   1.343   6.683 -0.5349  0.9078  0.6232
  159DOPC   H4X19200   7.102   1.396   6.775  1.0637  1.1498 -0.0423
  159DOPC   H4Y19201   7.020   1.415   6.614 -1.1677  2.1072  2.2616
  159DOPC   C3519202   7.203   1.292   6.608  0.3200 -0.1802 -0.5632
  159DOPC   H5X19203   7.164   1.245   6.516 -1.0683  2.5049 -1.4427
  159DOPC   H5Y19204   7.255   1.222   6.678  0.1124 -1.0384 -1.2517
  159DOPC   C3619205   7.293   1.406   6.564 -0.1837 -0.3992 -0.1349
  159DOPC   H6X19206   7.236   1.470   6.493  1.2730  1.5212  0.3597
  159DOPC   H6Y19207   7.315   1.480   6.644 -0.9675  0.9251 -1.1035
  159DOPC   C3719208   7.413   1.354   6.482  0.1538  0.8638 -0.6948
  159DOPC   H7X19209   7.482   1.295   6.547  0.8872  3.0662  0.6469
  159DOPC   H7Y19210   7.378   1.286   6.401 -2.1435 -0.6641  1.4031
  159DOPC   C3819211   7.500   1.464   6.414 -0.3283 -0.4725 -0.2635
  159DOPC   H8X19212   7.598   1.457   6.467 -1.0690  1.6508  1.5908
  159DOPC   H8Y19213   7.458   1.561   6.448  2.4211  0.9792 -0.7305
  159DOPC   C3919214   7.518   1.464   6.268 -0.5942  0.4477  0.5057
  159DOPC   H9X19215   7.597   1.395   6.232  2.3696  2.1977  3.1728
  159DOPC  C31019216   7.445   1.533   6.174 -0.6248  0.1422 -0.4420
  159DOPC  H10X19217   7.467   1.524   6.066 -0.0292  2.5624 -0.5750
  159DOPC  C31119218   7.329   1.627   6.208  0.0008  0.2931 -0.3482
  159DOPC  H11X19219   7.367   1.730   6.188  0.2532  0.7475  2.1629
  159DOPC  H11Y19220   7.295   1.627   6.313  1.2498  1.3881  0.0807
  159DOPC  C31219221   7.210   1.618   6.120  0.8224  0.4271 -0.4447
  159DOPC  H12X19222   7.129   1.687   6.152  1.1515  2.1843 -3.0761
  159DOPC  H12Y19223   7.165   1.517   6.130 -1.3449  1.4657  0.8981
  159DOPC  C31319224   7.235   1.625   5.972 -0.3357  0.1224  0.5444
  159DOPC  H13X19225   7.161   1.686   5.916  0.8923  0.6707 -0.5458
  159DOPC  H13Y19226   7.335   1.664   5.944 -0.8541  0.0437 -1.5669
  159DOPC  C31419227   7.235   1.491   5.904 -0.1617 -0.3168  1.0179
  159DOPC  H14X19228   7.312   1.413   5.925  0.4565 -1.1820 -3.4511
  159DOPC  H14Y19229   7.136   1.449   5.933 -0.1029 -1.4398 -0.3108
  159DOPC  C31519230   7.227   1.502   5.747  0.0656  0.2695  0.4938
  159DOPC  H15X19231   7.328   1.541   5.724  0.1527  0.5201  1.2502
  159DOPC  H15Y19232   7.148   1.557   5.691 -0.5714  0.1546  1.2558
  159DOPC  C31619233   7.221   1.361   5.685 -0.3530  0.4931 -0.3620
  159DOPC  H16X19234   7.289   1.300   5.748 -0.0803  1.3624  0.2057
  159DOPC  H16Y19235   7.119   1.317   5.684 -0.1386 -0.1208  1.2741
  159DOPC  C31719236   7.264   1.352   5.539 -0.4359  0.3187  0.1572
  159DOPC  H17X19237   7.191   1.419   5.488 -0.1372  1.7216  1.5026
  159DOPC  H17Y19238   7.368   1.384   5.519 -0.3596 -1.2630 -2.3875
  159DOPC  C31819239   7.250   1.220   5.467  0.3604 -0.1082 -0.5242
  159DOPC  H18X19240   7.261   1.234   5.357  0.6258 -2.5288 -0.8713
  159DOPC  H18Y19241   7.338   1.156   5.489 -0.8231 -1.9889 -1.0138
  159DOPC  H18Z19242   7.156   1.163   5.481 -0.1293  1.0853  1.5116
  160DOPC     N19243   1.584   6.612   6.720  0.0668 -0.1850 -0.2270
  160DOPC   C1219244   1.651   6.504   6.631  0.7125  1.0329  0.3532
  160DOPC  H12A19245   1.734   6.454   6.679  0.6029 -3.0737 -3.1527
  160DOPC  H12B19246   1.716   6.554   6.561  0.7346 -1.0717 -1.2276
  160DOPC   C1319247   1.666   6.734   6.757  0.3990  0.3215  0.2878
  160DOPC  H13A19248   1.695   6.786   6.666  1.5420 -1.1311 -0.2168
  160DOPC  H13B19249   1.606   6.800   6.817 -1.5037 -0.9249 -0.1400
  160DOPC  H13C19250   1.744   6.701   6.823 -0.2785 -0.4611  0.7086
  160DOPC   C1419251   1.547   6.537   6.849  0.6442  0.0699  0.1589
  160DOPC  H14A19252   1.502   6.603   6.922  2.7187 -0.1705  1.7388
  160DOPC  H14B19253   1.477   6.458   6.824 -0.8173  1.7148 -1.1928
  160DOPC  H14C19254   1.636   6.494   6.893 -0.0249  0.5471  2.0838
  160DOPC   C1519255   1.456   6.664   6.663 -0.3576  0.4364  0.2701
  160DOPC  H15A19256   1.486   6.725   6.579  1.8257 -0.6380  0.1901
  160DOPC  H15B19257   1.404   6.730   6.731  0.0598  0.7244  0.3166
  160DOPC  H15C19258   1.395   6.577   6.647  0.4547 -0.0990  0.0315
  160DOPC   C1119259   1.552   6.405   6.562 -0.0933 -0.3790 -0.3828
  160DOPC  H11A19260   1.467   6.453   6.509 -0.2867 -0.3721 -0.0737
  160DOPC  H11B19261   1.609   6.341   6.492 -0.3074 -1.0431  0.0401
  160DOPC     P19262   1.538   6.181   6.702  0.0429 -0.1571  0.0691
  160DOPC   O1319263   1.448   6.127   6.810  0.5511 -0.6535 -0.0610
  160DOPC   O1419264   1.686   6.185   6.723 -0.1681  0.6800 -0.1104
  160DOPC   O1219265   1.480   6.320   6.648  0.3141  0.3155  0.2250
  160DOPC   O1119266   1.520   6.084   6.578  0.0593 -0.1170  0.2534
  160DOPC    C119267   1.401   6.053   6.512 -0.2004 -0.1899 -0.9657
  160DOPC    HA19268   1.405   6.045   6.401  0.9877 -0.5601 -0.9111
  160DOPC    HB19269   1.327   6.135   6.518 -1.1517 -1.0864  0.0520
  160DOPC    C219270   1.335   5.915   6.551  0.3422 -0.7100  0.7629
  160DOPC    HS19271   1.340   5.902   6.661 -2.0067 -0.8954  0.8914
  160DOPC   O2119272   1.414   5.815   6.486  0.0842  0.8363  0.4015
  160DOPC   C2119273   1.428   5.702   6.557  0.3509  0.0600 -0.9005
  160DOPC   O2219274   1.364   5.676   6.658  0.7640 -0.2855 -0.5682
  160DOPC   C2219275   1.542   5.611   6.505  0.2728  0.7059  0.4144
  160DOPC   H2R19276   1.627   5.614   6.576  0.0615  0.9874  0.6586
  160DOPC   H2S19277   1.570   5.651   6.405 -0.9170 -3.3612 -1.7762
  160DOPC    C319278   1.177   5.910   6.532 -1.0580  0.4841 -0.3946
  160DOPC    HX19279   1.126   5.977   6.604  1.1085  0.7568  1.0051
  160DOPC    HY19280   1.154   5.804   6.555  0.0207 -0.0039 -1.4485
  160DOPC   O3119281   1.136   5.952   6.404  0.4584 -0.1796 -0.1376
  160DOPC   C3119282   1.000   5.954   6.387  0.0068 -0.7391 -0.0386
  160DOPC   O3219283   0.916   5.940   6.472  0.3075  0.0999  0.0797
  160DOPC   C3219284   0.986   6.006   6.246  0.5351 -1.1448 -0.4191
  160DOPC   H2X19285   0.937   6.106   6.245 -1.7671 -2.1757  0.4324
  160DOPC   H2Y19286   1.087   6.003   6.200  1.3811  0.1230  1.2651
  160DOPC   C2319287   1.474   5.475   6.487  0.3041 -0.4983  0.4271
  160DOPC   H3R19288   1.382   5.481   6.424  0.6735  0.6910 -0.0383
  160DOPC   H3S19289   1.431   5.427   6.577 -2.4401 -2.2516 -1.6247
  160DOPC   C2419290   1.568   5.375   6.430 -0.2505 -0.5985 -0.3128
  160DOPC   H4R19291   1.657   5.363   6.494  0.8288  1.1469 -1.4257
  160DOPC   H4S19292   1.607   5.419   6.336 -0.3305 -0.9069 -0.4939
  160DOPC   C2519293   1.519   5.233   6.398  0.5126 -0.0361 -0.7101
  160DOPC   H5R19294   1.457   5.188   6.478 -0.9972 -0.8250 -2.2647
  160DOPC   H5S19295   1.599   5.157   6.380 -1.1113 -1.9317 -0.3101
  160DOPC   C2619296   1.431   5.226   6.272  0.2347 -0.1155  0.4161
  160DOPC   H6R19297   1.355   5.307   6.276 -1.8693 -2.0187  0.4519
  160DOPC   H6S19298   1.363   5.139   6.274 -1.1254  0.7795 -1.9552
  160DOPC   C2719299   1.499   5.230   6.137  0.3383 -0.3984 -0.9730
  160DOPC   H7R19300   1.590   5.167   6.145  0.9186  0.4753 -0.5056
  160DOPC   H7S19301   1.548   5.328   6.119 -0.8712  0.7069  1.2308
  160DOPC   C2819302   1.413   5.192   6.014 -0.4526 -0.6279 -0.3757
  160DOPC   H8R19303   1.328   5.263   6.008 -0.8140 -1.0522 -0.3112
  160DOPC   H8S19304   1.370   5.092   6.037 -0.3645 -0.4421  0.6672
  160DOPC   C2919305   1.499   5.196   5.889  0.1527  0.4685 -0.2376
  160DOPC   H9R19306   1.597   5.147   5.894 -0.7735 -1.3793  2.6079
  160DOPC  C21019307   1.458   5.255   5.776 -0.3033  0.3151 -0.4446
  160DOPC  H10R19308   1.532   5.284   5.700 -0.9997  0.0804 -1.2310
  160DOPC  C21119309   1.322   5.321   5.760  0.2601  0.0298 -0.3137
  160DOPC  H11R19310   1.317   5.421   5.808  3.6780  0.1056  0.1271
  160DOPC  H11S19311   1.249   5.253   5.809 -0.5625  1.0457 -0.0946
  160DOPC  C21219312   1.298   5.328   5.605 -0.3751 -0.5538 -0.1101
  160DOPC  H12R19313   1.195   5.362   5.580  0.4572  2.1963 -0.0782
  160DOPC  H12S19314   1.308   5.229   5.554  0.0372  0.2182 -1.5754
  160DOPC  C21319315   1.384   5.430   5.535 -0.0586 -0.5416  0.8783
  160DOPC  H13R19316   1.490   5.402   5.555  1.1235  1.3565 -2.0960
  160DOPC  H13S19317   1.365   5.528   5.584  0.3880 -0.3205  0.6140
  160DOPC  C21419318   1.373   5.442   5.387  0.3214  0.2811 -0.1488
  160DOPC  H14R19319   1.430   5.355   5.348 -0.6533  0.0231 -1.0512
  160DOPC  H14S19320   1.429   5.532   5.353  0.1057 -0.0107 -1.3187
  160DOPC  C21519321   1.229   5.438   5.335 -0.1859  0.6494 -0.0644
  160DOPC  H15R19322   1.157   5.483   5.406 -0.7044 -0.0631 -0.1196
  160DOPC  H15S19323   1.199   5.331   5.325  1.1099  0.4881 -3.3197
  160DOPC  C21619324   1.219   5.510   5.199 -0.5085  0.4369 -0.1101
  160DOPC  H16R19325   1.252   5.613   5.225  0.4233 -0.3224  1.9806
  160DOPC  H16S19326   1.114   5.507   5.164 -0.9502  1.7032  1.0069
  160DOPC  C21719327   1.327   5.458   5.104 -0.7748 -1.0852  0.2824
  160DOPC  H17R19328   1.304   5.352   5.079 -1.9221 -0.9124  0.5319
  160DOPC  H17S19329   1.429   5.443   5.145 -1.0161 -0.7158  1.0311
  160DOPC  C21819330   1.327   5.536   4.972  0.5555 -0.4297  0.1969
  160DOPC  H18R19331   1.229   5.586   4.955  0.9652  0.3512  0.1073
  160DOPC  H18S19332   1.375   5.482   4.888  0.2135 -0.9581  0.3313
  160DOPC  H18T19333   1.397   5.622   4.980  0.7501  0.2191 -5.1653
  160DOPC   C3319334   0.892   5.915   6.163  0.5479 -0.1516  0.3046
  160DOPC   H3X19335   0.795   5.917   6.217  1.0845 -0.5318  1.3212
  160DOPC   H3Y19336   0.932   5.811   6.175  1.7963  0.3500  0.7104
  160DOPC   C3419337   0.898   5.952   6.018 -0.2099  0.3751 -0.0640
  160DOPC   H4X19338   0.858   5.861   5.970  0.6747  1.1902 -2.5252
  160DOPC   H4Y19339   0.996   5.961   5.966 -1.0826  0.2595 -1.7894
  160DOPC   C3519340   0.804   6.068   5.982 -0.3740  0.0772 -0.3466
  160DOPC   H5X19341   0.866   6.160   5.986  0.0119 -0.1878 -0.1207
  160DOPC   H5Y19342   0.724   6.076   6.059 -1.6624  2.0953 -1.7797
  160DOPC   C3619343   0.735   6.053   5.839 -0.1357 -0.1754 -0.0067
  160DOPC   H6X19344   0.812   6.048   5.760 -1.1457  1.7808 -1.2064
  160DOPC   H6Y19345   0.673   5.961   5.837 -1.0842  0.4377  0.0901
  160DOPC   C3719346   0.653   6.176   5.807 -1.2614 -0.4823  0.6198
  160DOPC   H7X19347   0.571   6.197   5.878 -0.5551  0.5437  1.1727
  160DOPC   H7Y19348   0.712   6.270   5.815 -1.5809 -0.1744 -0.5244
  160DOPC   C3819349   0.598   6.162   5.666 -0.2034  0.0935 -0.8803
  160DOPC   H8X19350   0.518   6.238   5.659  1.0480  1.7168  1.2133
  160DOPC   H8Y19351   0.562   6.057   5.652 -1.4464  0.4286 -0.2740
  160DOPC   C3919352   0.706   6.198   5.560  0.1226 -0.1986  0.1624
  160DOPC   H9X19353   0.740   6.303   5.564  2.4907 -0.9615  2.1077
  160DOPC  C31019354   0.766   6.115   5.470  0.3439 -0.1355 -0.0901
  160DOPC  H10X19355   0.855   6.142   5.411 -0.2795  1.4317 -0.3490
  160DOPC  C31119356   0.734   5.970   5.450  0.0446 -0.2068 -0.0020
  160DOPC  H11X19357   0.728   5.945   5.342  0.3924 -1.1766  0.1902
  160DOPC  H11Y19358   0.635   5.940   5.491 -0.5809 -2.0310 -2.6139
  160DOPC  C31219359   0.826   5.867   5.522 -0.2843  0.2823  0.1346
  160DOPC  H12X19360   0.781   5.765   5.518 -0.4344  0.3145  0.9216
  160DOPC  H12Y19361   0.827   5.900   5.628  0.0903  1.7717 -0.3180
  160DOPC  C31319362   0.973   5.853   5.478  0.5083 -0.3141 -0.0576
  160DOPC  H13X19363   0.986   5.838   5.368  2.3058  1.6501 -0.1726
  160DOPC  H13Y19364   1.012   5.953   5.504 -1.1399  0.1771  0.6713
  160DOPC  C31419365   1.048   5.747   5.549  0.0218 -0.1874 -0.5621
  160DOPC  H14X19366   0.989   5.654   5.539  1.9413 -1.4788 -0.5519
  160DOPC  H14Y19367   1.149   5.741   5.501  1.2447 -0.3968  1.8641
  160DOPC  C31519368   1.068   5.775   5.704  0.3204  0.0371  0.7655
  160DOPC  H15X19369   0.975   5.815   5.749 -0.1142  2.5382 -1.9957
  160DOPC  H15Y19370   1.137   5.862   5.708  1.1562 -0.5306 -0.6737
  160DOPC  C31619371   1.107   5.642   5.774  0.6106  0.7915 -0.2194
  160DOPC  H16X19372   1.178   5.590   5.706  0.9505 -0.0246  0.7381
  160DOPC  H16Y19373   1.162   5.656   5.869 -0.3049 -0.3808  0.5225
  160DOPC  C31719374   0.988   5.553   5.821  0.0354 -0.2251  0.2901
  160DOPC  H17X19375   0.930   5.628   5.878  3.4256  2.2809  0.8096
  160DOPC  H17Y19376   0.927   5.534   5.730  2.5122  1.2671 -1.8261
  160DOPC  C31819377   1.029   5.432   5.901  0.2809 -0.6343 -0.2079
  160DOPC  H18X19378   1.074   5.363   5.827 -0.4707  0.1530 -1.4476
  160DOPC  H18Y19379   1.095   5.466   5.983  0.6051 -3.2975  0.7255
  160DOPC  H18Z19380   0.941   5.376   5.939 -0.4258 -1.0070 -2.2547
  161DOPC     N19381   3.260   6.118   6.752 -0.4421  0.0360  0.9366
  161DOPC   C1219382   3.277   6.237   6.650  0.3059 -0.0360  0.4453
  161DOPC  H12A19383   3.214   6.308   6.703  1.1705 -0.0452  1.5241
  161DOPC  H12B19384   3.219   6.199   6.568  0.7731 -1.7664  0.8859
  161DOPC   C1319385   3.109   6.087   6.784  0.0483 -0.4531 -0.5354
  161DOPC  H13A19386   3.056   6.177   6.810 -1.5729 -0.9129 -2.1286
  161DOPC  H13B19387   3.053   6.049   6.700 -1.5749 -0.3525  0.4727
  161DOPC  H13C19388   3.108   6.012   6.862  1.4714  2.2143  2.2572
  161DOPC   C1419389   3.326   6.147   6.884 -0.4818  0.3850  0.1424
  161DOPC  H14A19390   3.323   6.056   6.941 -1.2093 -0.1384 -0.7154
  161DOPC  H14B19391   3.427   6.186   6.874 -0.6795  0.4965 -1.8069
  161DOPC  H14C19392   3.265   6.224   6.928 -0.5001  0.7338 -0.4710
  161DOPC   C1519393   3.327   5.997   6.683  0.1221 -0.3418 -0.5110
  161DOPC  H15A19394   3.317   5.907   6.742  2.2296 -0.4309 -0.2129
  161DOPC  H15B19395   3.429   6.011   6.651 -0.5237  3.2373 -1.3833
  161DOPC  H15C19396   3.267   5.964   6.599 -1.5656 -0.2891  0.6073
  161DOPC   C1119397   3.408   6.295   6.603 -0.6229 -0.3321 -0.0668
  161DOPC  H11A19398   3.469   6.219   6.550 -0.5092  0.3023 -0.8720
  161DOPC  H11B19399   3.378   6.369   6.526 -0.6827 -1.0227 -0.7180
  161DOPC     P19400   3.455   6.486   6.775 -0.1132 -0.3238  0.5141
  161DOPC   O1319401   3.575   6.524   6.854  0.1280 -0.6558  0.0294
  161DOPC   O1419402   3.324   6.492   6.845  0.1120 -0.0308  0.6317
  161DOPC   O1219403   3.482   6.343   6.716  0.3283 -0.1385  0.1721
  161DOPC   O1119404   3.443   6.579   6.642 -0.0603 -0.2013  0.2851
  161DOPC    C119405   3.549   6.601   6.549 -0.5585 -0.3318 -0.0872
  161DOPC    HA19406   3.572   6.505   6.497  1.7168 -0.3632  0.8572
  161DOPC    HB19407   3.643   6.637   6.597  0.9793  0.1488 -3.1658
  161DOPC    C219408   3.515   6.709   6.438  0.0768  0.3396  0.0314
  161DOPC    HS19409   3.474   6.795   6.495  0.3247  0.1404  0.5080
  161DOPC   O2119410   3.421   6.646   6.348 -0.0478  0.0438 -0.1556
  161DOPC   C2119411   3.325   6.723   6.302 -0.2055  0.5491  0.4125
  161DOPC   O2219412   3.324   6.846   6.308 -0.6260 -0.2077 -0.6184
  161DOPC   C2219413   3.217   6.629   6.243  0.5441 -0.1540 -0.0218
  161DOPC   H2R19414   3.206   6.543   6.313  0.1836  0.0239  0.1447
  161DOPC   H2S19415   3.260   6.587   6.150  1.1749  0.2534  0.0852
  161DOPC    C319416   3.642   6.740   6.362  0.3994 -0.7306 -0.0385
  161DOPC    HX19417   3.709   6.803   6.424 -0.2565  0.3248 -0.3737
  161DOPC    HY19418   3.611   6.797   6.271 -2.4043 -1.6770  0.2186
  161DOPC   O3119419   3.693   6.612   6.314  0.5782  0.4735 -0.0399
  161DOPC   C3119420   3.824   6.607   6.297 -1.2646  0.3584  0.5589
  161DOPC   O3219421   3.896   6.704   6.308 -0.1320 -0.3773  0.0596
  161DOPC   C3219422   3.864   6.468   6.259 -0.4794  0.2970  0.1894
  161DOPC   H2X19423   3.827   6.391   6.329  1.5209 -0.8242  0.0915
  161DOPC   H2Y19424   3.827   6.449   6.156 -0.3633 -1.6473  0.4776
  161DOPC   C2319425   3.082   6.702   6.226  0.3390  0.2824  0.4206
  161DOPC   H3R19426   3.067   6.759   6.320  1.7365  1.4856 -0.0458
  161DOPC   H3S19427   3.002   6.625   6.214  0.3840  0.3594 -0.4816
  161DOPC   C2419428   3.085   6.788   6.101 -0.0714 -1.0104 -0.7095
  161DOPC   H4R19429   3.116   6.891   6.129  0.1225 -1.0015 -0.9580
  161DOPC   H4S19430   2.977   6.801   6.076  0.2843  1.5126 -1.1961
  161DOPC   C2519431   3.170   6.737   5.986 -0.0775  0.0121 -0.0879
  161DOPC   H5R19432   3.156   6.629   5.965  2.0909 -0.3464  0.0607
  161DOPC   H5S19433   3.278   6.759   6.000 -0.0139 -0.0597 -0.4689
  161DOPC   C2619434   3.119   6.806   5.853 -0.2147 -0.5660 -0.1346
  161DOPC   H6R19435   3.145   6.914   5.858  0.7626 -0.8151  0.5489
  161DOPC   H6S19436   3.011   6.795   5.832 -0.3384  1.7556 -0.9910
  161DOPC   C2719437   3.182   6.739   5.726 -0.5056  0.4471 -0.4397
  161DOPC   H7R19438   3.186   6.629   5.744 -1.2766  0.4526 -0.1929
  161DOPC   H7S19439   3.288   6.774   5.719  0.2627 -0.0010  4.5908
  161DOPC   C2819440   3.101   6.743   5.593 -0.5278  0.5932  0.3892
  161DOPC   H8R19441   2.999   6.711   5.624  0.1186 -0.6578  1.3010
  161DOPC   H8S19442   3.149   6.676   5.518  2.1215  0.4193  2.1157
  161DOPC   C2919443   3.098   6.886   5.540  0.5740 -0.7844 -0.3153
  161DOPC   H9R19444   3.103   6.959   5.622  2.0084 -0.3236 -0.7706
  161DOPC  C21019445   3.099   6.928   5.413  0.4455  0.4821  0.0259
  161DOPC  H10R19446   3.095   7.037   5.397  0.3701  0.2706 -1.5194
  161DOPC  C21119447   3.095   6.840   5.290  0.3144 -0.4802 -0.7265
  161DOPC  H11R19448   3.045   6.741   5.293  1.6003 -1.1297  0.1765
  161DOPC  H11S19449   3.197   6.808   5.260 -0.3778 -3.1859 -0.3882
  161DOPC  C21219450   3.018   6.917   5.186 -0.2999 -0.1931  0.3233
  161DOPC  H12R19451   3.063   7.018   5.173  0.2260 -0.7113 -2.3652
  161DOPC  H12S19452   2.914   6.921   5.223 -0.5705 -2.2630 -0.0873
  161DOPC  C21319453   3.025   6.847   5.043 -0.4322  0.0511 -0.4545
  161DOPC  H13R19454   2.981   6.746   5.052 -0.1962  0.1113  2.0296
  161DOPC  H13S19455   3.134   6.836   5.027  0.1254  1.9806  1.4974
  161DOPC  C21419456   2.954   6.927   4.932  0.8054  0.1236  0.1761
  161DOPC  H14R19457   3.011   7.020   4.917  1.9541 -0.8303 -1.8094
  161DOPC  H14S19458   2.855   6.961   4.971  2.0437  2.0066  1.8736
  161DOPC  C21519459   2.942   6.838   4.809 -0.5209  0.3359  0.5918
  161DOPC  H15R19460   2.899   6.902   4.729  1.3147  0.5862 -0.2453
  161DOPC  H15S19461   2.868   6.758   4.833  0.5097 -0.2734  1.8321
  161DOPC  C21619462   3.068   6.765   4.762  0.9494 -0.7802 -0.7098
  161DOPC  H16R19463   3.102   6.685   4.832 -0.1922 -0.0879  0.6991
  161DOPC  H16S19464   3.152   6.837   4.766  0.0640  0.2104  0.7741
  161DOPC  C21719465   3.052   6.684   4.629  0.8918 -0.5188  0.0868
  161DOPC  H17R19466   2.957   6.626   4.624  0.6826 -0.1863  0.1382
  161DOPC  H17S19467   3.121   6.597   4.621 -2.8180 -3.6947 -0.2903
  161DOPC  C21819468   3.058   6.779   4.509  0.2851 -0.3314  0.6967
  161DOPC  H18R19469   3.157   6.777   4.458  1.0450 -2.1159  2.1348
  161DOPC  H18S19470   3.044   6.886   4.534  0.2829 -0.0746 -0.3615
  161DOPC  H18T19471   2.968   6.755   4.448 -0.7329  0.1935  1.9371
  161DOPC   C3319472   4.021   6.462   6.244 -0.0112  0.0624  0.0365
  161DOPC   H3X19473   4.065   6.477   6.345  0.2160  1.0615 -0.1992
  161DOPC   H3Y19474   4.059   6.541   6.176 -1.7300 -0.5038 -1.6523
  161DOPC   C3419475   4.062   6.334   6.163 -0.4173  0.4635 -0.1166
  161DOPC   H4X19476   4.168   6.350   6.136 -0.2737 -0.4381 -0.0933
  161DOPC   H4Y19477   4.013   6.316   6.065 -0.2788 -2.2649  0.2509
  161DOPC   C3519478   4.061   6.206   6.245 -0.2682  0.3580 -0.6344
  161DOPC   H5X19479   3.959   6.164   6.229  0.8764 -1.8513 -2.7006
  161DOPC   H5Y19480   4.072   6.224   6.354  0.4250  2.4533 -1.0074
  161DOPC   C3619481   4.156   6.100   6.205 -0.0420  0.5491 -0.4957
  161DOPC   H6X19482   4.258   6.140   6.220  0.6307 -0.4304 -2.2195
  161DOPC   H6Y19483   4.139   6.007   6.264 -0.5363  0.0634 -1.3862
  161DOPC   C3719484   4.167   6.047   6.064  0.7058  0.2806 -0.2259
  161DOPC   H7X19485   4.171   6.134   5.995  0.2656  1.6972  1.4688
  161DOPC   H7Y19486   4.250   5.973   6.059 -3.2429 -4.8173  1.0740
  161DOPC   C3819487   4.054   5.947   6.018  1.2824 -0.4268  0.4260
  161DOPC   H8X19488   3.964   5.999   6.058  1.5677 -0.3285  0.9506
  161DOPC   H8Y19489   4.057   5.844   6.058  0.0657 -1.3721 -1.7823
  161DOPC   C3919490   4.067   5.936   5.863 -0.1509 -0.2443 -0.2164
  161DOPC   H9X19491   4.137   5.856   5.833  1.8019  2.0241 -2.1421
  161DOPC  C31019492   4.004   6.010   5.769 -0.7367 -0.1812  0.0592
  161DOPC  H10X19493   4.008   5.997   5.660  0.4052  0.9604 -0.0583
  161DOPC  C31119494   3.917   6.129   5.791  0.3284 -0.6384  0.2134
  161DOPC  H11X19495   3.889   6.146   5.897  0.7402  1.9159 -0.0222
  161DOPC  H11Y19496   3.824   6.104   5.736 -0.3450 -3.0156  2.2806
  161DOPC  C31219497   3.979   6.257   5.726  0.2450 -0.0290 -0.7809
  161DOPC  H12X19498   4.075   6.280   5.778 -1.0469  2.1445  0.8731
  161DOPC  H12Y19499   3.922   6.351   5.742  2.1053  0.8747  1.0382
  161DOPC  C31319500   4.006   6.233   5.574  0.9347 -0.3671  0.3347
  161DOPC  H13X19501   4.098   6.172   5.564  0.9367 -0.5373  1.2656
  161DOPC  H13Y19502   3.921   6.185   5.521  1.1373  0.3138 -0.6354
  161DOPC  C31419503   4.040   6.377   5.506  0.0147  0.5161 -0.3793
  161DOPC  H14X19504   3.961   6.452   5.528  0.9290  1.7254 -1.1376
  161DOPC  H14Y19505   4.140   6.400   5.548  0.7465 -2.4707 -0.2462
  161DOPC  C31519506   4.035   6.370   5.349  0.3121 -0.2107 -0.7644
  161DOPC  H15X19507   4.038   6.475   5.313  0.5966 -0.4023 -1.3070
  161DOPC  H15Y19508   3.935   6.326   5.331  0.2401 -1.1689  1.6307
  161DOPC  C31619509   4.130   6.282   5.263 -0.6702  0.4001 -0.1048
  161DOPC  H16X19510   4.223   6.337   5.235  0.7936 -1.2778  1.2228
  161DOPC  H16Y19511   4.158   6.188   5.315 -0.5367  1.1402  1.2074
  161DOPC  C31719512   4.073   6.245   5.129  0.6119  0.1913 -0.2292
  161DOPC  H17X19513   4.134   6.172   5.071  0.0584 -1.5407  1.2881
  161DOPC  H17Y19514   3.986   6.180   5.150  2.9778 -2.1675  3.5373
  161DOPC  C31819515   4.024   6.365   5.055  0.0756  0.1155  0.1756
  161DOPC  H18X19516   4.017   6.350   4.945  0.3944  2.1368 -0.1703
  161DOPC  H18Y19517   3.926   6.402   5.093  0.1954 -0.7297  1.3470
  161DOPC  H18Z19518   4.099   6.448   5.063 -0.3394  0.4920  0.2115
  162DOPC     N19519   7.371   6.662   6.947  0.0063 -0.2032  0.2688
  162DOPC   C1219520   7.523   6.686   6.915  0.6896 -0.0238  0.2067
  162DOPC  H12A19521   7.539   6.705   6.810  2.8682  1.0080  0.6709
  162DOPC  H12B19522   7.571   6.590   6.928  3.4148  1.4210  1.7052
  162DOPC   C1319523   7.335   6.720   7.082 -0.4361 -0.0052 -0.0958
  162DOPC  H13A19524   7.362   6.825   7.079  2.7868 -0.7486 -1.8158
  162DOPC  H13B19525   7.228   6.722   7.098 -0.2125  1.3892  1.6113
  162DOPC  H13C19526   7.380   6.664   7.163  0.5661 -0.8526 -1.2129
  162DOPC   C1419527   7.348   6.513   6.958  0.0828 -0.2090 -0.0872
  162DOPC  H14A19528   7.404   6.470   7.039 -1.5861  0.4173  1.4570
  162DOPC  H14B19529   7.250   6.488   6.996  1.3382 -1.0200  2.8701
  162DOPC  H14C19530   7.372   6.464   6.865 -1.2722 -1.1268  0.0185
  162DOPC   C1519531   7.282   6.723   6.848 -0.1275  0.2193  0.1138
  162DOPC  H15A19532   7.304   6.690   6.747 -0.7870  2.1201 -0.6991
  162DOPC  H15B19533   7.307   6.828   6.838  0.4463  0.0988  0.2449
  162DOPC  H15C19534   7.180   6.708   6.878 -0.2057 -0.8490 -0.6062
  162DOPC   C1119535   7.602   6.793   6.986  0.0086 -0.3454  0.0622
  162DOPC  H11A19536   7.599   6.760   7.092  0.5888 -0.4812  0.0385
  162DOPC  H11B19537   7.709   6.792   6.955  0.7821 -1.2881  2.4979
  162DOPC     P19538   7.559   6.998   6.831  0.0893 -0.0274  0.1950
  162DOPC   O1319539   7.608   7.137   6.854 -0.3369  0.3550  0.1901
  162DOPC   O1419540   7.424   6.987   6.772  0.2381 -0.1570 -0.5878
  162DOPC   O1219541   7.545   6.927   6.972 -0.0337 -0.3907  0.2944
  162DOPC   O1119542   7.665   6.908   6.756  0.2106  0.3982 -0.1066
  162DOPC    C119543   7.799   6.956   6.739 -0.3377 -0.3629  0.3579
  162DOPC    HA19544   7.879   6.879   6.745 -1.2092 -1.2366  1.1290
  162DOPC    HB19545   7.831   7.021   6.823  1.7591  0.0189 -0.6787
  162DOPC    C219546   7.806   7.030   6.601 -0.1434 -0.1947 -0.3519
  162DOPC    HS19547   7.726   7.107   6.605  1.3937  1.4307  3.2147
  162DOPC   O2119548   7.792   6.938   6.493 -0.3831  0.4377 -0.3327
  162DOPC   C2119549   7.745   6.987   6.382 -0.3334  0.1697  0.6372
  162DOPC   O2219550   7.696   7.095   6.371 -0.1841 -0.4589  0.7046
  162DOPC   C2219551   7.755   6.876   6.280  0.4558 -0.4864  0.2066
  162DOPC   H2R19552   7.683   6.898   6.199  0.6537  0.0161  0.1620
  162DOPC   H2S19553   7.717   6.784   6.329 -2.2022  0.5080  0.1804
  162DOPC    C319554   7.939   7.112   6.589 -0.0501  0.6494  0.1935
  162DOPC    HX19555   8.014   7.032   6.574 -0.7460 -0.1429  0.8143
  162DOPC    HY19556   7.955   7.167   6.683 -2.6907 -0.1487  1.2053
  162DOPC   O3119557   7.936   7.201   6.475 -0.0704 -0.5982 -0.1555
  162DOPC   C3119558   7.870   7.317   6.489  0.1319  0.4781 -0.4787
  162DOPC   O3219559   7.803   7.345   6.587 -0.1110 -0.5120  0.0713
  162DOPC   C3219560   7.873   7.405   6.362 -0.6714 -0.9572  0.4345
  162DOPC   H2X19561   7.884   7.509   6.399 -0.1275 -1.2794  1.2160
  162DOPC   H2Y19562   7.969   7.390   6.308 -1.0526  1.0422 -0.8591
  162DOPC   C2319563   7.897   6.856   6.234  0.1133  0.0144 -0.0911
  162DOPC   H3R19564   7.914   6.752   6.198  1.2454 -0.5917  2.0241
  162DOPC   H3S19565   7.969   6.863   6.318 -0.4004  1.2843  0.2672
  162DOPC   C2419566   7.921   6.951   6.118  0.7291  0.2817  0.0584
  162DOPC   H4R19567   7.890   7.057   6.131  1.0203  0.2019  1.6126
  162DOPC   H4S19568   7.844   6.918   6.046  0.0421  1.8009  0.0670
  162DOPC   C2519569   8.058   6.934   6.047 -0.6709  0.2781  0.0621
  162DOPC   H5R19570   8.144   6.947   6.116 -0.7372 -0.8039  0.3773
  162DOPC   H5S19571   8.058   7.027   5.986 -2.0817  0.1248 -0.1948
  162DOPC   C2619572   8.071   6.807   5.950 -0.8274 -0.4619 -0.0762
  162DOPC   H6R19573   8.124   6.842   5.859  0.7067  0.0387  0.9808
  162DOPC   H6S19574   7.967   6.783   5.919 -0.7634 -2.2016  0.9529
  162DOPC   C2719575   8.135   6.680   6.006  0.1087 -0.2180 -0.1606
  162DOPC   H7R19576   8.079   6.637   6.092 -0.5658  0.7438 -0.1049
  162DOPC   H7S19577   8.239   6.712   6.030  0.6392 -0.3633 -2.0699
  162DOPC   C2819578   8.145   6.558   5.911 -0.0306 -0.2124  0.1522
  162DOPC   H8R19579   8.042   6.541   5.873 -0.5064  3.1120 -0.3726
  162DOPC   H8S19580   8.181   6.466   5.962 -0.5366 -1.1220 -1.0990
  162DOPC   C2919581   8.240   6.589   5.798 -0.0418  0.4116  0.1354
  162DOPC   H9R19582   8.339   6.619   5.835 -0.6176 -1.4877  3.6283
  162DOPC  C21019583   8.210   6.577   5.668 -0.4829 -0.4220 -0.1564
  162DOPC  H10R19584   8.281   6.619   5.595 -1.3716 -1.2142 -1.5204
  162DOPC  C21119585   8.076   6.527   5.613  0.2147  0.7007 -0.3887
  162DOPC  H11R19586   7.985   6.528   5.678 -0.5278 -0.6706 -1.3615
  162DOPC  H11S19587   8.074   6.428   5.562  0.4965  1.2350 -1.4558
  162DOPC  C21219588   8.028   6.615   5.494  0.1276 -0.5486  0.8551
  162DOPC  H12R19589   8.118   6.621   5.429  0.4420  2.0730  1.4209
  162DOPC  H12S19590   8.012   6.722   5.521 -0.9498  0.0366 -1.7766
  162DOPC  C21319591   7.900   6.572   5.419 -0.6515  0.0641  0.1547
  162DOPC  H13R19592   7.820   6.585   5.495 -0.0518 -0.2666  0.8520
  162DOPC  H13S19593   7.907   6.463   5.396  1.4621  0.2323 -0.1220
  162DOPC  C21419594   7.881   6.644   5.285 -0.3790  0.1691 -1.2571
  162DOPC  H14R19595   7.939   6.595   5.204 -0.8688 -1.4717 -0.6718
  162DOPC  H14S19596   7.903   6.753   5.280  0.8810 -0.0733 -1.3120
  162DOPC  C21519597   7.734   6.620   5.239 -0.2690  0.9586  0.9996
  162DOPC  H15R19598   7.665   6.699   5.276 -2.4936 -1.2312  1.8229
  162DOPC  H15S19599   7.706   6.520   5.278 -0.9074  0.0776 -1.4914
  162DOPC  C21619600   7.730   6.597   5.091 -0.2286 -0.0379  0.3302
  162DOPC  H16R19601   7.793   6.512   5.057  1.2781  2.0300 -2.4830
  162DOPC  H16S19602   7.770   6.689   5.042  0.7472  0.1831  1.5022
  162DOPC  C21719603   7.592   6.561   5.036 -0.0825 -0.4113  0.1569
  162DOPC  H17R19604   7.532   6.655   5.045  1.1731  0.5901 -1.4510
  162DOPC  H17S19605   7.550   6.490   5.111 -1.2330  0.8948  0.8103
  162DOPC  C21819606   7.595   6.518   4.888  0.1126 -0.1322  0.1315
  162DOPC  H18R19607   7.603   6.600   4.814  1.4545 -0.7555 -0.4335
  162DOPC  H18S19608   7.502   6.464   4.860 -0.9078  1.2450  0.7149
  162DOPC  H18T19609   7.684   6.453   4.877 -1.0520 -2.1953  1.9902
  162DOPC   C3319610   7.766   7.383   6.257 -0.0084 -0.5151 -0.0607
  162DOPC   H3X19611   7.669   7.392   6.311 -0.4571 -1.3559 -0.6846
  162DOPC   H3Y19612   7.774   7.277   6.222  0.6732 -1.1770  1.9549
  162DOPC   C3419613   7.795   7.494   6.151  0.1124  0.9189  0.3486
  162DOPC   H4X19614   7.894   7.487   6.101  0.1946  1.5036  0.4304
  162DOPC   H4Y19615   7.799   7.592   6.203 -1.4327  0.3126  1.6944
  162DOPC   C3519616   7.685   7.488   6.046  0.2913 -0.2162 -0.0962
  162DOPC   H5X19617   7.582   7.465   6.080 -0.4069 -0.7358 -2.4338
  162DOPC   H5Y19618   7.707   7.400   5.982  0.0783  1.0300 -1.9565
  162DOPC   C3619619   7.690   7.614   5.956 -0.6117 -0.2814  0.8439
  162DOPC   H6X19620   7.663   7.711   6.003  1.0857  0.7622 -0.2292
  162DOPC   H6Y19621   7.795   7.620   5.918 -1.2157  0.6402 -0.7573
  162DOPC   C3719622   7.608   7.603   5.829  0.2890  0.1082  0.4615
  162DOPC   H7X19623   7.616   7.499   5.791  0.4334 -0.6114  2.3523
  162DOPC   H7Y19624   7.504   7.612   5.868 -0.1200 -1.2745 -0.2621
  162DOPC   C3819625   7.625   7.713   5.729 -0.5672 -0.4066 -0.3009
  162DOPC   H8X19626   7.725   7.699   5.681 -0.4231 -1.7276  0.3406
  162DOPC   H8Y19627   7.639   7.808   5.785 -0.2298 -0.7298  0.1745
  162DOPC   C3919628   7.526   7.723   5.615  0.0086 -0.2388 -0.5906
  162DOPC   H9X19629   7.493   7.626   5.575 -0.7771  0.3061 -1.3054
  162DOPC  C31019630   7.494   7.833   5.542 -0.2107 -1.2604  0.0680
  162DOPC  H10X19631   7.420   7.825   5.461  0.5440 -2.4741 -0.5463
  162DOPC  C31119632   7.547   7.976   5.566  0.3832  0.6400  0.1716
  162DOPC  H11X19633   7.584   8.013   5.468 -2.0412  0.2102 -1.0065
  162DOPC  H11Y19634   7.618   7.988   5.650 -1.3617 -0.2518  1.8603
  162DOPC  C31219635   7.424   8.069   5.573 -0.5104  0.3317  0.3326
  162DOPC  H12X19636   7.367   8.047   5.480 -4.1112 -1.4451  2.7094
  162DOPC  H12Y19637   7.468   8.169   5.557  0.0825 -0.1920 -1.5888
  162DOPC  C31319638   7.338   8.062   5.696  0.2852  0.5597 -0.0685
  162DOPC  H13X19639   7.240   8.112   5.682  0.7961  2.1823  1.7403
  162DOPC  H13Y19640   7.314   7.955   5.714 -0.3233  0.6424 -0.3569
  162DOPC  C31419641   7.405   8.106   5.830  0.5902 -0.2236  0.0034
  162DOPC  H14X19642   7.496   8.044   5.850  1.0138  1.1661  2.8816
  162DOPC  H14Y19643   7.443   8.208   5.809  2.8307 -0.4876  2.2838
  162DOPC  C31519644   7.317   8.099   5.955  0.2748 -0.2241 -1.1084
  162DOPC  H15X19645   7.275   7.998   5.977 -1.8198  1.2697  2.8594
  162DOPC  H15Y19646   7.229   8.157   5.921  0.5926 -0.2597 -2.0103
  162DOPC  C31619647   7.371   8.170   6.078  0.8603 -0.2318 -0.3661
  162DOPC  H16X19648   7.364   8.278   6.054 -1.1055  0.1624  1.5998
  162DOPC  H16Y19649   7.302   8.153   6.164  2.7780 -0.9585  1.0940
  162DOPC  C31719650   7.513   8.137   6.114  0.3370  0.7381 -0.1042
  162DOPC  H17X19651   7.520   8.027   6.120 -0.1366  0.6228 -1.2697
  162DOPC  H17Y19652   7.575   8.166   6.026 -0.8587 -0.0504 -1.2435
  162DOPC  C31819653   7.561   8.205   6.240  0.0244 -0.0259 -0.0574
  162DOPC  H18X19654   7.649   8.168   6.297 -2.0901 -1.4484  2.4641
  162DOPC  H18Y19655   7.581   8.310   6.210  1.1094 -0.1715  0.1195
  162DOPC  H18Z19656   7.474   8.216   6.307  1.0547  1.2856  1.1269
  163DOPC     N19657   6.643   3.397   7.281 -0.2657  0.7193  0.2687
  163DOPC   C1219658   6.743   3.285   7.314  0.1627 -0.2282  0.4671
  163DOPC  H12A19659   6.829   3.337   7.352  0.8604 -1.8339  1.1736
  163DOPC  H12B19660   6.780   3.241   7.223 -0.8525 -0.9179  0.3718
  163DOPC   C1319661   6.504   3.345   7.233 -0.0799 -0.0296  0.3934
  163DOPC  H13A19662   6.520   3.298   7.137  3.3921  3.6427 -1.0687
  163DOPC  H13B19663   6.467   3.271   7.303 -0.9642 -0.5299 -0.5685
  163DOPC  H13C19664   6.421   3.415   7.230 -0.0875 -0.0674 -0.6309
  163DOPC   C1419665   6.692   3.479   7.168 -0.2554 -0.0986 -0.3468
  163DOPC  H14A19666   6.668   3.430   7.075 -2.7601  0.9692 -0.3446
  163DOPC  H14B19667   6.644   3.576   7.175  0.4885  0.2068  0.9446
  163DOPC  H14C19668   6.796   3.504   7.180 -0.6866  1.7516 -0.0750
  163DOPC   C1519669   6.632   3.483   7.402  0.1392  0.2710  0.2062
  163DOPC  H15A19670   6.601   3.434   7.493  0.1912 -0.5308 -0.1953
  163DOPC  H15B19671   6.564   3.565   7.384  1.8389  1.5136 -0.9136
  163DOPC  H15C19672   6.730   3.521   7.425 -0.2655  2.3025 -1.1173
  163DOPC   C1119673   6.695   3.171   7.409  0.4998  0.8701 -0.4848
  163DOPC  H11A19674   6.780   3.102   7.428 -0.0353 -0.0002 -1.1757
  163DOPC  H11B19675   6.659   3.210   7.507 -1.9874  0.2803 -1.1117
  163DOPC     P19676   6.597   2.991   7.264 -0.2955  0.1471 -0.4372
  163DOPC   O1319677   6.657   2.875   7.335 -0.1981 -0.9675  0.3419
  163DOPC   O1419678   6.670   3.031   7.146  0.3950  0.2032 -0.0309
  163DOPC   O1219679   6.580   3.099   7.361  0.1020 -0.2901 -0.2457
  163DOPC   O1119680   6.444   2.939   7.221  0.1718  0.0565  0.2369
  163DOPC    C119681   6.443   2.830   7.132 -0.7664 -0.1029  0.2800
  163DOPC    HA19682   6.353   2.767   7.145  1.7651 -4.2276 -0.4005
  163DOPC    HB19683   6.525   2.759   7.151 -1.6063 -1.0027  0.6234
  163DOPC    C219684   6.417   2.877   6.985  0.3572  0.4483 -0.0603
  163DOPC    HS19685   6.371   2.785   6.944  1.6414 -0.8569  1.2832
  163DOPC   O2119686   6.536   2.895   6.907 -0.7568 -0.4014  0.5909
  163DOPC   C2119687   6.608   2.794   6.874  0.7568  0.8172 -0.0565
  163DOPC   O2219688   6.596   2.675   6.901  0.1327 -0.3667 -0.1259
  163DOPC   C2219689   6.735   2.847   6.809  0.4124 -0.2241  0.0894
  163DOPC   H2R19690   6.825   2.817   6.868  1.2842  2.3589  0.2211
  163DOPC   H2S19691   6.739   2.958   6.819  1.5942 -0.1725 -0.6922
  163DOPC    C319692   6.329   2.998   6.969  0.1931 -0.4976 -0.5563
  163DOPC    HX19693   6.388   3.086   7.000 -0.0521 -1.0078  1.5211
  163DOPC    HY19694   6.243   2.982   7.038 -0.2033  0.7275 -0.7444
  163DOPC   O3119695   6.289   2.998   6.832  0.4823  0.3173  0.0584
  163DOPC   C3119696   6.360   3.063   6.736  0.1135 -0.0368 -0.5268
  163DOPC   O3219697   6.462   3.126   6.756  0.4897 -0.6133  0.0731
  163DOPC   C3219698   6.296   3.033   6.598 -0.7902  0.5651 -0.1038
  163DOPC   H2X19699   6.186   3.041   6.613 -1.0257 -2.3018  0.4671
  163DOPC   H2Y19700   6.323   3.107   6.521  1.6434  0.6886  0.7832
  163DOPC   C2319701   6.740   2.796   6.664 -0.2340 -0.7476  0.0838
  163DOPC   H3R19702   6.632   2.806   6.636 -0.9170 -1.3307  2.3379
  163DOPC   H3S19703   6.765   2.688   6.663 -1.0229 -0.9471  0.5807
  163DOPC   C2419704   6.816   2.878   6.561 -0.0159 -0.2768  0.4933
  163DOPC   H4R19705   6.819   2.817   6.468  2.1209  1.2279 -0.4938
  163DOPC   H4S19706   6.920   2.885   6.600  0.3741 -1.4339 -0.2890
  163DOPC   C2519707   6.754   3.022   6.557 -0.4481 -0.5252  0.3338
  163DOPC   H5R19708   6.775   3.078   6.651  2.3642 -1.2132  0.2011
  163DOPC   H5S19709   6.645   2.997   6.559 -0.6081  0.0717 -0.3846
  163DOPC   C2619710   6.788   3.086   6.420 -0.3282  0.4333  0.0949
  163DOPC   H6R19711   6.895   3.112   6.409  0.0990 -1.1049  0.3798
  163DOPC   H6S19712   6.740   3.186   6.413  1.3206  1.2713  0.3875
  163DOPC   C2719713   6.744   3.002   6.303  0.2529  0.1757 -0.0867
  163DOPC   H7R19714   6.640   2.967   6.319  0.6353  0.2425  2.9909
  163DOPC   H7S19715   6.809   2.914   6.288 -0.0682 -0.0040 -0.4395
  163DOPC   C2819716   6.743   3.081   6.169  0.1154 -0.4822 -0.1057
  163DOPC   H8R19717   6.852   3.079   6.147  0.4003  2.4396  0.6037
  163DOPC   H8S19718   6.717   3.189   6.174  2.0784  0.0984 -1.3023
  163DOPC   C2919719   6.656   3.019   6.059 -0.4839  0.1217  0.1053
  163DOPC   H9R19720   6.582   2.947   6.098  0.7644 -1.4085 -0.2544
  163DOPC  C21019721   6.670   3.021   5.919  0.1911 -0.0407 -0.7396
  163DOPC  H10R19722   6.589   2.978   5.857 -0.0611  1.0115 -1.1518
  163DOPC  C21119723   6.779   3.102   5.851 -0.2784 -0.0530  0.5680
  163DOPC  H11R19724   6.864   3.127   5.918 -0.3671 -0.6178  0.9043
  163DOPC  H11S19725   6.744   3.203   5.821 -2.1395 -1.5703 -2.9599
  163DOPC  C21219726   6.828   3.029   5.731 -0.7761  0.0586 -0.4179
  163DOPC  H12R19727   6.748   2.995   5.662 -0.6545 -1.2677  0.0561
  163DOPC  H12S19728   6.880   2.936   5.762  0.6706  1.6739  2.4118
  163DOPC  C21319729   6.922   3.122   5.647  0.1452  0.5280  0.1044
  163DOPC  H13R19730   7.023   3.131   5.691  1.3923  0.7651 -2.5840
  163DOPC  H13S19731   6.869   3.220   5.647 -0.2567  0.3164 -0.1934
  163DOPC  C21419732   6.939   3.075   5.508 -0.0211 -0.3201 -0.3597
  163DOPC  H14R19733   6.853   3.028   5.457  1.0710 -1.0609 -1.5882
  163DOPC  H14S19734   7.026   3.006   5.506  0.8962  0.5276  3.0018
  163DOPC  C21519735   6.974   3.198   5.426 -0.5300 -0.4225  0.3027
  163DOPC  H15R19736   7.058   3.242   5.483  0.1247  0.7903 -1.5129
  163DOPC  H15S19737   6.898   3.280   5.428 -0.6930 -0.5901  1.8454
  163DOPC  C21619738   7.025   3.176   5.281  0.8305  1.1613  0.1279
  163DOPC  H16R19739   7.102   3.097   5.290  0.9448  1.1768 -0.6838
  163DOPC  H16S19740   7.072   3.273   5.254  1.0530  1.5177  1.6736
  163DOPC  C21719741   6.913   3.117   5.186  0.6980 -0.1196  0.6808
  163DOPC  H17R19742   6.825   3.185   5.181 -0.1552 -1.2542 -0.3194
  163DOPC  H17S19743   6.891   3.018   5.230  0.8265 -0.6439 -0.4149
  163DOPC  C21819744   6.966   3.092   5.044 -0.4040 -0.2449 -0.5604
  163DOPC  H18R19745   6.882   3.055   4.981 -0.0047 -0.5058 -0.9447
  163DOPC  H18S19746   7.042   3.014   5.065 -1.1420 -0.1070  3.2407
  163DOPC  H18T19747   7.012   3.180   4.995 -1.3765  1.7611  1.9415
  163DOPC   C3319748   6.343   2.894   6.541  0.2932  0.1396  0.5231
  163DOPC   H3X19749   6.326   2.801   6.600 -1.3377  0.0739  0.0052
  163DOPC   H3Y19750   6.453   2.892   6.525  0.4557  1.0410  1.4525
  163DOPC   C3419751   6.259   2.873   6.408 -0.3838 -0.2958 -0.2290
  163DOPC   H4X19752   6.154   2.855   6.439 -0.1719  0.6060  1.0860
  163DOPC   H4Y19753   6.307   2.778   6.375  0.8299 -0.0775  0.8316
  163DOPC   C3519754   6.275   2.974   6.290  0.2840  0.6980 -0.7404
  163DOPC   H5X19755   6.385   2.988   6.281  1.1539 -1.5014  3.7275
  163DOPC   H5Y19756   6.229   3.072   6.317  0.4812  0.8815 -1.0568
  163DOPC   C3619757   6.215   2.927   6.153 -0.1886 -0.1728 -1.6232
  163DOPC   H6X19758   6.265   2.834   6.118  1.8766  0.5693 -0.8266
  163DOPC   H6Y19759   6.109   2.900   6.169  0.1210 -0.3204  0.5492
  163DOPC   C3719760   6.222   3.025   6.038 -0.3958 -0.3263  0.4766
  163DOPC   H7X19761   6.187   3.125   6.073  1.8994  0.6688  0.1002
  163DOPC   H7Y19762   6.323   3.046   5.998  0.0178 -0.2857  1.4905
  163DOPC   C3819763   6.134   2.997   5.914  0.5238 -0.2767 -0.0785
  163DOPC   H8X19764   6.147   3.082   5.844  0.8734  0.1690  0.5203
  163DOPC   H8Y19765   6.026   2.994   5.938  0.6516  1.2112  0.8112
  163DOPC   C3919766   6.162   2.865   5.849 -0.0685 -0.1688  1.2284
  163DOPC   H9X19767   6.126   2.776   5.903 -0.8534  1.1195  2.9282
  163DOPC  C31019768   6.236   2.852   5.731  1.3182 -0.0258 -0.6615
  163DOPC  H10X19769   6.255   2.754   5.685  0.3207 -0.1592 -0.8172
  163DOPC  C31119770   6.299   2.964   5.651 -0.2392 -0.0882  0.2165
  163DOPC  H11X19771   6.410   2.969   5.661  0.0404 -1.7673 -1.4190
  163DOPC  H11Y19772   6.263   3.064   5.682  1.3658  1.0069 -1.2337
  163DOPC  C31219773   6.263   2.956   5.504 -0.5976  0.3605  0.2026
  163DOPC  H12X19774   6.307   2.869   5.451 -0.7613  0.7808 -0.6534
  163DOPC  H12Y19775   6.315   3.044   5.461  1.8428 -0.1173  2.0055
  163DOPC  C31319776   6.116   2.948   5.470 -0.1360 -0.4320  0.0888
  163DOPC  H13X19777   6.051   3.020   5.525  0.0374 -0.5673  0.4765
  163DOPC  H13Y19778   6.104   2.990   5.368  1.9394  2.8448  1.0366
  163DOPC  C31419779   6.059   2.806   5.472  0.8812 -0.4260  0.4162
  163DOPC  H14X19780   6.140   2.734   5.449  0.8555  0.0817 -1.3652
  163DOPC  H14Y19781   6.028   2.771   5.573 -0.9464  2.4613  0.9718
  163DOPC  C31519782   5.937   2.791   5.368 -0.3258 -0.1869 -0.3053
  163DOPC  H15X19783   5.988   2.793   5.269  3.9916  0.0723  1.7069
  163DOPC  H15Y19784   5.857   2.868   5.364 -0.7758 -0.6906 -1.6379
  163DOPC  C31619785   5.864   2.657   5.391 -0.4995  0.4378  0.3943
  163DOPC  H16X19786   5.813   2.656   5.490  0.6797  0.5641  1.0286
  163DOPC  H16Y19787   5.781   2.644   5.318  1.5501 -0.1406 -1.9638
  163DOPC  C31719788   5.955   2.527   5.378 -0.1005 -0.0343  0.1245
  163DOPC  H17X19789   6.009   2.551   5.284  1.9735 -1.2417  0.9415
  163DOPC  H17Y19790   6.032   2.528   5.458 -1.0716 -0.9721  1.1131
  163DOPC  C31819791   5.875   2.397   5.383  0.0475  0.3164 -0.0010
  163DOPC  H18X19792   5.829   2.391   5.484  3.0778 -1.1038  1.4262
  163DOPC  H18Y19793   5.789   2.398   5.313  0.4114 -0.3690 -0.4749
  163DOPC  H18Z19794   5.936   2.304   5.377  0.9342  0.9496 -1.1079
  164DOPC     N19795   2.645   7.428   6.949  0.4821 -0.2016 -0.0016
  164DOPC   C1219796   2.599   7.465   6.811 -0.2564 -0.4407  0.0638
  164DOPC  H12A19797   2.507   7.417   6.784  1.1482 -3.0728 -0.3678
  164DOPC  H12B19798   2.667   7.424   6.738  0.3480  1.6261 -0.6035
  164DOPC   C1319799   2.635   7.285   6.976  0.1545  0.9822 -0.0596
  164DOPC  H13A19800   2.704   7.244   7.049 -0.2815  0.9276  0.3323
  164DOPC  H13B19801   2.539   7.253   7.015  0.5245 -0.0871  0.0066
  164DOPC  H13C19802   2.648   7.223   6.888 -1.3795  0.4154  0.0756
  164DOPC   C1419803   2.557   7.493   7.051  0.6415 -0.9301 -0.0133
  164DOPC  H14A19804   2.548   7.451   7.150 -1.0693  1.0471  0.7381
  164DOPC  H14B19805   2.581   7.597   7.067 -1.0177 -0.4155 -0.6312
  164DOPC  H14C19806   2.459   7.502   7.007  0.3063 -1.6565  0.5564
  164DOPC   C1519807   2.781   7.479   6.959 -0.7088  0.4299  0.1321
  164DOPC  H15A19808   2.849   7.442   6.883 -1.2064  1.4581 -0.8431
  164DOPC  H15B19809   2.821   7.435   7.049 -1.9610 -0.8819  0.0848
  164DOPC  H15C19810   2.795   7.586   6.955  0.7791  0.3956  2.5865
  164DOPC   C1119811   2.569   7.616   6.764  0.2541  0.4504 -0.4123
  164DOPC  H11A19812   2.652   7.686   6.790  1.5280 -0.9470 -0.5459
  164DOPC  H11B19813   2.566   7.605   6.654  0.5787 -1.3562 -0.2824
  164DOPC     P19814   2.313   7.622   6.771 -0.0674 -0.0050  0.6356
  164DOPC   O1319815   2.250   7.564   6.888 -0.4357  1.0133 -0.1253
  164DOPC   O1419816   2.327   7.541   6.649 -0.2953 -0.3495 -0.0882
  164DOPC   O1219817   2.449   7.666   6.824  0.2620  0.0191 -0.5417
  164DOPC   O1119818   2.242   7.755   6.734  0.0227  1.0529  0.3309
  164DOPC    C119819   2.299   7.880   6.763  0.0116 -0.1709 -0.1967
  164DOPC    HA19820   2.408   7.880   6.745  0.5282  0.4617  2.4813
  164DOPC    HB19821   2.268   7.894   6.869 -1.8418 -2.0964 -0.4010
  164DOPC    C219822   2.235   8.003   6.689  0.1632  0.0741 -0.3184
  164DOPC    HS19823   2.127   7.977   6.688 -0.1425  1.1220  1.5125
  164DOPC   O2119824   2.288   8.020   6.553  0.1276 -0.2767  0.4805
  164DOPC   C2119825   2.210   7.962   6.466 -0.4235 -0.6918  0.0218
  164DOPC   O2219826   2.119   7.883   6.485 -0.0008  0.4561 -0.3599
  164DOPC   C2219827   2.259   8.005   6.328  0.0935 -0.1317 -0.7399
  164DOPC   H2R19828   2.361   7.965   6.312 -0.1526 -0.5941 -1.1711
  164DOPC   H2S19829   2.264   8.116   6.326 -1.3058 -0.0033  0.7559
  164DOPC    C319830   2.249   8.142   6.759 -0.1763  0.3397 -0.9402
  164DOPC    HX19831   2.359   8.158   6.760 -0.3675  1.9679 -2.0877
  164DOPC    HY19832   2.209   8.149   6.862 -0.9135 -0.9940 -1.1088
  164DOPC   O3119833   2.196   8.252   6.688 -0.2307  0.0233  0.0680
  164DOPC   C3119834   2.066   8.264   6.677 -0.1899  0.0577 -0.8020
  164DOPC   O3219835   1.984   8.181   6.721 -0.1604 -0.0522 -0.7146
  164DOPC   C3219836   2.036   8.382   6.584  0.1346 -0.1868  0.3595
  164DOPC   H2X19837   2.053   8.476   6.642  1.2680 -1.0314  1.4714
  164DOPC   H2Y19838   2.119   8.384   6.510  1.7404 -0.2738  2.0825
  164DOPC   C2319839   2.166   7.960   6.215 -0.1206  0.4479 -0.0373
  164DOPC   H3R19840   2.069   8.014   6.212  1.7606  4.0590 -1.9960
  164DOPC   H3S19841   2.149   7.852   6.236  0.2032  0.9453  3.3237
  164DOPC   C2419842   2.230   7.981   6.076 -0.1347 -0.0662  0.2667
  164DOPC   H4R19843   2.314   7.908   6.075  0.2963  0.3469  2.1477
  164DOPC   H4S19844   2.266   8.084   6.055  0.0884 -0.4099 -1.1604
  164DOPC   C2519845   2.137   7.935   5.963  0.2520 -0.6337  0.0457
  164DOPC   H5R19846   2.046   7.999   5.961  1.5044  1.2430 -2.4390
  164DOPC   H5S19847   2.115   7.827   5.966 -0.4457 -0.6049 -2.1556
  164DOPC   C2619848   2.195   7.973   5.823  0.1348 -0.5791  0.1244
  164DOPC   H6R19849   2.290   7.917   5.809  0.6498 -0.4460  2.5309
  164DOPC   H6S19850   2.222   8.080   5.810 -1.0609 -0.4053 -1.1335
  164DOPC   C2719851   2.086   7.953   5.714 -0.0049 -0.4940  0.4563
  164DOPC   H7R19852   1.995   8.009   5.746  0.0999 -0.6931  1.1131
  164DOPC   H7S19853   2.051   7.847   5.707 -0.1313 -0.3643 -1.0450
  164DOPC   C2819854   2.132   7.986   5.567 -0.3690  0.0597  0.4196
  164DOPC   H8R19855   2.196   7.903   5.530  0.0163  1.4307 -2.2697
  164DOPC   H8S19856   2.193   8.079   5.569  0.0580 -0.2231  0.7174
  164DOPC   C2919857   2.003   7.985   5.488 -0.3427 -0.2036  0.7545
  164DOPC   H9R19858   1.964   7.883   5.476 -0.5557 -0.1466  0.9696
  164DOPC  C21019859   1.934   8.084   5.436  0.7081  0.1983  0.0568
  164DOPC  H10R19860   1.852   8.051   5.372  1.0647  0.3852 -0.5008
  164DOPC  C21119861   1.967   8.229   5.442 -0.1820  0.2978 -0.4927
  164DOPC  H11R19862   2.056   8.254   5.503 -1.3290  1.8341  0.6142
  164DOPC  H11S19863   1.881   8.270   5.498 -0.8235 -0.3752 -0.9509
  164DOPC  C21219864   1.969   8.301   5.308  0.3917  0.2628 -0.2940
  164DOPC  H12R19865   2.044   8.244   5.249  0.4654 -1.9782  1.8181
  164DOPC  H12S19866   2.003   8.406   5.322  0.5577  0.5387 -2.4927
  164DOPC  C21319867   1.832   8.304   5.242 -0.3740  0.1131  0.0007
  164DOPC  H13R19868   1.816   8.414   5.231  2.7526  0.7287  0.5212
  164DOPC  H13S19869   1.753   8.266   5.310 -0.3734  0.6368  0.3059
  164DOPC  C21419870   1.827   8.221   5.111  0.4418  0.3242 -0.6627
  164DOPC  H14R19871   1.857   8.118   5.139 -0.7842  0.4872  1.4507
  164DOPC  H14S19872   1.896   8.256   5.031 -0.3437  0.1283 -1.4332
  164DOPC  C21519873   1.687   8.204   5.047  0.2649  0.3636  0.3574
  164DOPC  H15R19874   1.647   8.305   5.025  2.4177  0.6805 -2.8018
  164DOPC  H15S19875   1.615   8.158   5.118 -0.9769  1.1317 -0.3612
  164DOPC  C21619876   1.677   8.116   4.922 -0.9658  0.1796 -0.6071
  164DOPC  H16R19877   1.573   8.089   4.895 -0.8556 -0.2043 -0.6500
  164DOPC  H16S19878   1.738   8.024   4.937 -1.2065  0.0844 -0.2049
  164DOPC  C21719879   1.734   8.178   4.793 -0.5609  0.8180 -0.5229
  164DOPC  H17R19880   1.844   8.187   4.797 -0.4147 -0.9178  0.3439
  164DOPC  H17S19881   1.687   8.277   4.775 -0.1099  1.0950 -0.1827
  164DOPC  C21819882   1.706   8.095   4.671 -0.6264  0.4914  0.8670
  164DOPC  H18R19883   1.757   7.996   4.675 -0.1959  0.6365 -0.5401
  164DOPC  H18S19884   1.737   8.147   4.578 -0.9590 -0.4546  0.2099
  164DOPC  H18T19885   1.599   8.076   4.651 -0.7372  2.1162 -0.2630
  164DOPC   C3319886   1.905   8.374   6.503 -0.2751  0.5324 -0.4374
  164DOPC   H3X19887   1.890   8.476   6.462  0.5822  1.0901  0.5676
  164DOPC   H3Y19888   1.815   8.372   6.569  0.9880  0.2765  1.3518
  164DOPC   C3419889   1.908   8.261   6.397 -0.0422 -0.0626  0.4944
  164DOPC   H4X19890   1.919   8.159   6.440 -0.0170 -1.2319 -2.0803
  164DOPC   H4Y19891   1.995   8.266   6.329 -1.1081 -0.8389 -0.9910
  164DOPC   C3519892   1.775   8.275   6.319 -0.6215  0.2241 -0.4200
  164DOPC   H5X19893   1.753   8.383   6.304  0.5551  0.3269 -1.6648
  164DOPC   H5Y19894   1.695   8.227   6.378  1.4413 -0.2731  2.1362
  164DOPC   C3619895   1.777   8.216   6.177 -0.7014 -0.2807  0.4126
  164DOPC   H6X19896   1.873   8.237   6.125 -0.3480 -2.2335  0.1759
  164DOPC   H6Y19897   1.788   8.107   6.195 -0.1370 -0.2631  0.2110
  164DOPC   C3719898   1.658   8.259   6.095  0.4749 -0.5821  0.1700
  164DOPC   H7X19899   1.566   8.233   6.151 -0.1020  3.1611  1.2324
  164DOPC   H7Y19900   1.641   8.366   6.073 -2.3609 -0.7388  1.1772
  164DOPC   C3819901   1.639   8.191   5.963  0.0491 -0.3152 -0.1085
  164DOPC   H8X19902   1.537   8.205   5.921 -1.1243 -2.0704  1.9149
  164DOPC   H8Y19903   1.647   8.083   5.984  0.6592 -0.4830 -1.1466
  164DOPC   C3919904   1.745   8.211   5.863 -1.0965 -0.3961 -0.2248
  164DOPC   H9X19905   1.825   8.137   5.846 -0.0002  0.6351  0.2685
  164DOPC  C31019906   1.766   8.328   5.788 -0.4973  0.6460 -0.0153
  164DOPC  H10X19907   1.849   8.328   5.717  0.3391  4.5585  0.7239
  164DOPC  C31119908   1.670   8.439   5.798  0.4629 -0.1212  0.2090
  164DOPC  H11X19909   1.716   8.532   5.840  5.9641 -1.8847 -1.1115
  164DOPC  H11Y19910   1.586   8.423   5.870  0.6358  0.4953  0.5606
  164DOPC  C31219911   1.619   8.469   5.661  0.6092 -0.5163  1.0755
  164DOPC  H12X19912   1.698   8.461   5.583 -0.1911 -0.5761  0.2520
  164DOPC  H12Y19913   1.572   8.570   5.662  1.1916 -0.1512 -1.6394
  164DOPC  C31319914   1.504   8.367   5.637  0.0733  0.0589  0.0102
  164DOPC  H13X19915   1.535   8.261   5.646  0.4130  0.2807  1.8141
  164DOPC  H13Y19916   1.446   8.384   5.730  1.2087  0.0510  0.7437
  164DOPC  C31419917   1.422   8.393   5.512  0.7999 -0.2466 -0.7149
  164DOPC  H14X19918   1.375   8.493   5.522 -0.0298 -0.6647 -0.3461
  164DOPC  H14Y19919   1.341   8.317   5.508 -0.3125  0.8770 -0.2527
  164DOPC  C31519920   1.517   8.403   5.392  0.6656 -0.2110 -0.9486
  164DOPC  H15X19921   1.559   8.302   5.370  0.6859 -0.4517  0.1031
  164DOPC  H15Y19922   1.602   8.474   5.402  0.3643  0.0823 -0.3911
  164DOPC  C31619923   1.441   8.441   5.264 -0.2776  0.3079 -0.1126
  164DOPC  H16X19924   1.390   8.539   5.275 -0.1241  0.1253  3.3742
  164DOPC  H16Y19925   1.519   8.444   5.184 -2.3129  2.3877 -2.1749
  164DOPC  C31719926   1.344   8.329   5.212  0.0067 -0.3002  0.4929
  164DOPC  H17X19927   1.401   8.234   5.225  1.4119  0.7838  2.9325
  164DOPC  H17Y19928   1.250   8.328   5.270  0.2114 -1.1672  0.8336
  164DOPC  C31819929   1.313   8.345   5.064  0.9067 -0.4632 -0.2078
  164DOPC  H18X19930   1.266   8.444   5.042 -1.0592 -1.4043 -0.4622
  164DOPC  H18Y19931   1.402   8.320   5.002  0.4674 -2.2701 -0.1428
  164DOPC  H18Z19932   1.233   8.275   5.033  0.0519  0.5192 -0.2636
  165DOPC     N19933   6.346   0.847   7.326  0.1775 -0.3368  0.2620
  165DOPC   C1219934   6.253   0.960   7.297 -0.5428  0.5206  0.5524
  165DOPC  H12A19935   6.308   1.052   7.303 -2.5544  1.7807  0.8081
  165DOPC  H12B19936   6.183   0.966   7.379 -2.7278 -2.1034 -0.9537
  165DOPC   C1319937   6.271   0.718   7.340 -0.3074 -0.2321  0.7097
  165DOPC  H13A19938   6.208   0.702   7.254  1.1634 -2.5339 -0.0501
  165DOPC  H13B19939   6.340   0.635   7.345 -0.0479  0.0214  1.4132
  165DOPC  H13C19940   6.205   0.725   7.426  0.5458  4.1866  1.2261
  165DOPC   C1419941   6.424   0.878   7.449 -0.3041  0.3663  1.0668
  165DOPC  H14A19942   6.480   0.970   7.440  1.3521 -0.7121 -0.3474
  165DOPC  H14B19943   6.356   0.884   7.532 -1.4690 -0.4224  0.2009
  165DOPC  H14C19944   6.501   0.804   7.465  1.4752  1.4360 -1.6963
  165DOPC   C1519945   6.446   0.824   7.213  0.1968  0.3488 -0.3854
  165DOPC  H15A19946   6.393   0.824   7.118 -0.2534  0.1671 -0.1370
  165DOPC  H15B19947   6.488   0.726   7.228 -1.0863 -0.1401  0.1308
  165DOPC  H15C19948   6.530   0.891   7.218  0.2563  0.3842 -1.6000
  165DOPC   C1119949   6.157   0.955   7.176 -0.4721  0.0439 -0.1173
  165DOPC  H11A19950   6.098   1.048   7.176 -0.3139  0.1451 -0.0481
  165DOPC  H11B19951   6.207   0.969   7.077  1.0509  1.4785  0.8089
  165DOPC     P19952   5.937   0.851   7.285  0.2893 -0.1772 -0.5623
  165DOPC   O1319953   5.967   0.923   7.406  0.2826  0.3728  0.1175
  165DOPC   O1419954   5.903   0.708   7.306 -0.0767 -0.7775 -0.0597
  165DOPC   O1219955   6.069   0.843   7.191  0.0244 -0.0511  0.4982
  165DOPC   O1119956   5.833   0.925   7.205 -0.2460 -0.2698  0.4719
  165DOPC    C119957   5.815   0.921   7.063  0.3529  0.1016 -0.2617
  165DOPC    HA19958   5.709   0.923   7.030  1.4022 -0.6120 -4.0663
  165DOPC    HB19959   5.856   0.828   7.018  0.5904 -0.0014  0.1574
  165DOPC    C219960   5.879   1.038   6.986 -0.1236  0.0275  0.2238
  165DOPC    HS19961   5.987   1.014   6.980 -0.5676 -1.7889 -3.0891
  165DOPC   O2119962   5.850   1.164   7.050  0.0580  0.0561  0.3437
  165DOPC   C2119963   5.938   1.257   7.042  0.2652  0.0344 -0.0154
  165DOPC   O2219964   6.051   1.243   6.992 -0.4257 -0.2916  0.6665
  165DOPC   C2219965   5.896   1.391   7.096 -0.2820 -0.0693 -0.3727
  165DOPC   H2R19966   5.981   1.437   7.150 -0.3739  2.2640 -2.1207
  165DOPC   H2S19967   5.810   1.375   7.166 -0.5639 -0.5612 -0.8269
  165DOPC    C319968   5.828   1.040   6.836 -0.0405  0.1392  0.3277
  165DOPC    HX19969   5.720   1.066   6.832  0.1438  0.9578  0.6018
  165DOPC    HY19970   5.848   0.934   6.809  2.4648 -0.1891  2.9293
  165DOPC   O3119971   5.888   1.135   6.745 -0.2921 -0.2166  0.3531
  165DOPC   C3119972   6.005   1.107   6.688 -1.0331  0.7427  0.1648
  165DOPC   O3219973   6.059   0.995   6.688  0.1482  0.4043 -0.0135
  165DOPC   C3219974   6.062   1.231   6.609  0.2723  0.5808  0.3709
  165DOPC   H2X19975   5.984   1.269   6.540 -2.8287  0.1786  3.3648
  165DOPC   H2Y19976   6.091   1.307   6.684  0.7584  0.1383  0.6439
  165DOPC   C2319977   5.852   1.490   6.989  0.8300  0.1419 -0.4544
  165DOPC   H3R19978   5.815   1.583   7.036 -1.7246 -0.0709 -1.8917
  165DOPC   H3S19979   5.761   1.447   6.942  1.6983 -2.2302 -0.0906
  165DOPC   C2419980   5.954   1.519   6.878 -0.2426  0.2976 -0.4310
  165DOPC   H4R19981   5.971   1.439   6.803  0.8571 -0.3686  0.4802
  165DOPC   H4S19982   6.056   1.519   6.922 -0.8565 -1.5141  1.1204
  165DOPC   C2519983   5.941   1.658   6.805  0.1193  0.3029 -0.2243
  165DOPC   H5R19984   5.914   1.728   6.888  1.0271  0.9885 -0.4920
  165DOPC   H5S19985   5.859   1.661   6.730  2.1168 -1.5626 -2.6448
  165DOPC   C2619986   6.075   1.700   6.733 -0.5647 -0.0188  0.4824
  165DOPC   H6R19987   6.127   1.619   6.677  2.2835  2.2078 -0.2948
  165DOPC   H6S19988   6.142   1.720   6.819 -0.2105 -1.5433  0.5876
  165DOPC   C2719989   6.060   1.818   6.634  0.5370 -0.8465  0.4194
  165DOPC   H7R19990   6.034   1.910   6.690  3.1433  2.0618 -2.6711
  165DOPC   H7S19991   5.981   1.800   6.558  1.0638  0.6566 -0.5276
  165DOPC   C2819992   6.193   1.853   6.561  0.3091 -0.1919  0.3138
  165DOPC   H8R19993   6.178   1.940   6.493  1.7518 -1.6825 -2.0377
  165DOPC   H8S19994   6.216   1.781   6.480  1.3566  1.9116 -1.3674
  165DOPC   C2919995   6.308   1.892   6.649  0.0769  0.3618 -0.2741
  165DOPC   H9R19996   6.304   1.983   6.711 -3.0154  0.3024 -0.2314
  165DOPC  C21019997   6.416   1.818   6.683 -0.3391  0.2038 -0.3402
  165DOPC  H10R19998   6.485   1.856   6.760 -0.9163  1.4138 -0.3839
  165DOPC  C21119999   6.455   1.686   6.633 -0.9947  0.0483  0.4185
  165DOPC  H11R20000   6.378   1.630   6.576  0.1356 -1.0416 -0.0834
  165DOPC  H11S20001   6.498   1.612   6.705  3.4288 -1.3623 -3.2547
  165DOPC  C21220002   6.565   1.690   6.531  0.4484  0.0212  0.0846
  165DOPC  H12R20003   6.645   1.752   6.577  0.2960  0.8565 -0.7457
  165DOPC  H12S20004   6.530   1.737   6.436 -2.0809 -1.8910 -0.0231
  165DOPC  C21320005   6.625   1.546   6.514 -0.2080 -0.3209 -0.1551
  165DOPC  H13R20006   6.541   1.483   6.479 -0.0276  0.1509 -1.5017
  165DOPC  H13S20007   6.653   1.508   6.615  0.0325  1.4701  0.4919
  165DOPC  C21420008   6.742   1.538   6.414  0.4860  0.5154 -0.1059
  165DOPC  H14R20009   6.837   1.590   6.442  2.2905 -1.3882 -2.3299
  165DOPC  H14S20010   6.706   1.588   6.322  3.4717  0.2970 -1.5019
  165DOPC  C21520011   6.780   1.395   6.377 -0.5233 -0.4968 -0.9093
  165DOPC  H15R20012   6.693   1.354   6.321 -1.5099  0.4735 -0.1182
  165DOPC  H15S20013   6.804   1.334   6.466  0.1784 -2.5992 -2.4573
  165DOPC  C21620014   6.908   1.387   6.294  0.6629  0.4027  0.7758
  165DOPC  H16R20015   6.987   1.441   6.350  1.6211 -1.4321  1.2722
  165DOPC  H16S20016   6.895   1.449   6.203  0.4992 -0.4052  0.2358
  165DOPC  C21720017   6.958   1.250   6.271 -0.1213  1.2107  0.2547
  165DOPC  H17R20018   6.879   1.187   6.225 -0.8831  1.1680  1.5887
  165DOPC  H17S20019   6.985   1.210   6.371 -2.0772  0.5575  0.5520
  165DOPC  C21820020   7.075   1.242   6.178  0.7523 -0.1100  0.5042
  165DOPC  H18R20021   7.051   1.289   6.081 -0.8996  1.6726  1.6965
  165DOPC  H18S20022   7.106   1.136   6.163 -2.1979 -0.8587 -1.0232
  165DOPC  H18T20023   7.154   1.298   6.233  0.0432  0.7947  0.6282
  165DOPC   C3320024   6.188   1.195   6.533 -0.1335 -1.2191 -0.2810
  165DOPC   H3X20025   6.167   1.127   6.447 -1.0834 -1.6691  0.2815
  165DOPC   H3Y20026   6.258   1.147   6.604  0.5862  1.3956  0.8916
  165DOPC   C3420027   6.262   1.320   6.484 -0.5421 -0.4740  0.2019
  165DOPC   H4X20028   6.354   1.293   6.427 -1.2320  1.2398 -1.8476
  165DOPC   H4Y20029   6.292   1.385   6.569 -0.1753  0.9223 -0.9481
  165DOPC   C3520030   6.184   1.402   6.375  0.1994  0.4573  0.2362
  165DOPC   H5X20031   6.255   1.474   6.328  0.8603  0.4622  1.2240
  165DOPC   H5Y20032   6.115   1.474   6.425  0.8885  1.0533  0.3464
  165DOPC   C3620033   6.118   1.317   6.270  0.6005  0.1548  0.3703
  165DOPC   H6X20034   6.058   1.244   6.328  0.7118 -1.5136 -1.5160
  165DOPC   H6Y20035   6.055   1.387   6.211  0.7433  1.7770  2.0232
  165DOPC   C3720036   6.225   1.249   6.183 -0.1771 -0.4342  0.3583
  165DOPC   H7X20037   6.276   1.177   6.250  1.9127 -0.7376 -1.4462
  165DOPC   H7Y20038   6.303   1.317   6.141  0.7981 -2.0057 -0.4513
  165DOPC   C3820039   6.165   1.179   6.056 -1.0738  0.4108 -0.4026
  165DOPC   H8X20040   6.090   1.104   6.091  0.7136 -1.7230 -0.9051
  165DOPC   H8Y20041   6.252   1.129   6.008  0.8390  2.5293  0.6540
  165DOPC   C3920042   6.117   1.274   5.955  0.2480 -0.1841  0.3342
  165DOPC   H9X20043   6.055   1.355   5.997  1.2203  0.2235  1.0294
  165DOPC  C31020044   6.134   1.273   5.818 -0.4548  0.3569  0.2713
  165DOPC  H10X20045   6.094   1.355   5.757 -0.8762  0.7212  1.0225
  165DOPC  C31120046   6.203   1.169   5.737  0.3724  0.0893 -0.0494
  165DOPC  H11X20047   6.238   1.081   5.796  3.5970  0.4722 -1.2022
  165DOPC  H11Y20048   6.299   1.205   5.696  0.4376  0.0796  0.0912
  165DOPC  C31220049   6.122   1.124   5.614  0.8679  0.0573 -0.4468
  165DOPC  H12X20050   6.034   1.068   5.651 -0.5667  2.5239  0.1060
  165DOPC  H12Y20051   6.189   1.051   5.564 -0.3847 -2.9284  1.9012
  165DOPC  C31320052   6.070   1.228   5.520  0.1403 -0.2323 -0.3606
  165DOPC  H13X20053   5.996   1.284   5.580  2.0467  1.7684  0.2529
  165DOPC  H13Y20054   6.147   1.304   5.493 -0.7302 -0.1455 -2.9225
  165DOPC  C31420055   5.999   1.186   5.394 -0.4519 -0.2298  0.5638
  165DOPC  H14X20056   6.072   1.139   5.324 -1.2342  1.1163 -1.2345
  165DOPC  H14Y20057   5.921   1.109   5.412 -0.5596 -0.7121 -1.6261
  165DOPC  C31520058   5.938   1.305   5.321 -0.1802  0.1731 -0.0531
  165DOPC  H15X20059   6.017   1.378   5.296  2.2189 -2.2820 -0.0875
  165DOPC  H15Y20060   5.865   1.352   5.391  0.8641  1.3277  0.2899
  165DOPC  C31620061   5.864   1.267   5.191 -0.4063  0.4470 -0.3610
  165DOPC  H16X20062   5.824   1.362   5.151 -0.6454  0.0371 -1.1329
  165DOPC  H16Y20063   5.937   1.227   5.117 -1.3090 -0.0654 -0.9928
  165DOPC  C31720064   5.745   1.172   5.210  0.4984  0.0378  0.2048
  165DOPC  H17X20065   5.781   1.074   5.245  0.1161 -0.5949 -1.0903
  165DOPC  H17Y20066   5.677   1.221   5.283  1.4206 -0.2688  1.2876
  165DOPC  C31820067   5.677   1.156   5.071 -0.1949 -0.1420  0.1225
  165DOPC  H18X20068   5.637   1.251   5.029  1.3452  0.1835 -0.6692
  165DOPC  H18Y20069   5.745   1.106   5.000 -1.4961 -0.9531 -0.5875
  165DOPC  H18Z20070   5.585   1.095   5.082  0.0700 -0.6678 -0.5331
  166DOPC     N20071   6.517   2.569   7.442  0.1939 -0.1644  0.2609
  166DOPC   C1220072   6.631   2.585   7.341  0.8878 -0.2284 -0.1084
  166DOPC  H12A20073   6.640   2.691   7.329 -1.6405  0.0467 -0.1224
  166DOPC  H12B20074   6.596   2.541   7.249 -0.5125  0.1490  0.2073
  166DOPC   C1320075   6.470   2.425   7.463 -0.1691  0.1094  0.0331
  166DOPC  H13A20076   6.480   2.365   7.374  0.0646  3.1309 -2.1460
  166DOPC  H13B20077   6.530   2.367   7.531 -3.3667 -2.4025  0.9820
  166DOPC  H13C20078   6.367   2.424   7.494 -0.3651  2.4454 -0.3217
  166DOPC   C1420079   6.391   2.652   7.395  0.5303  0.7034  0.0340
  166DOPC  H14A20080   6.419   2.754   7.373 -0.2687  0.6074 -1.5419
  166DOPC  H14B20081   6.336   2.610   7.312 -0.6315  1.2128  0.5239
  166DOPC  H14C20082   6.321   2.653   7.478 -0.7244 -1.1205 -0.9230
  166DOPC   C1520083   6.543   2.624   7.574 -0.8159 -0.3661  0.2963
  166DOPC  H15A20084   6.565   2.729   7.560  1.7244 -0.9305 -0.2795
  166DOPC  H15B20085   6.621   2.572   7.626  0.3219  0.2681 -0.7353
  166DOPC  H15C20086   6.456   2.623   7.638 -1.9154  2.0530 -1.0011
  166DOPC   C1120087   6.769   2.533   7.375  0.2041 -1.2377 -0.6270
  166DOPC  H11A20088   6.847   2.572   7.306 -2.6974  1.7224 -2.5993
  166DOPC  H11B20089   6.797   2.572   7.475 -0.8705  1.3770 -1.2581
  166DOPC     P20090   6.756   2.317   7.244  0.2710  0.1730 -0.6523
  166DOPC   O1320091   6.709   2.406   7.136 -0.9607  0.2428  0.4326
  166DOPC   O1420092   6.672   2.192   7.264  0.1101  0.3447  0.1791
  166DOPC   O1220093   6.769   2.388   7.382 -0.4236 -0.7417  0.1245
  166DOPC   O1120094   6.899   2.261   7.235 -0.0233  0.3335 -0.1218
  166DOPC    C120095   6.960   2.196   7.125 -1.1325 -0.3479 -0.0722
  166DOPC    HA20096   6.946   2.086   7.132  0.1134 -0.4256  3.0811
  166DOPC    HB20097   7.070   2.207   7.139 -0.7199 -3.4563 -0.0965
  166DOPC    C220098   6.936   2.250   6.983 -0.0412 -0.3935 -0.0003
  166DOPC    HS20099   6.957   2.358   6.993 -0.8543 -0.2939  0.7063
  166DOPC   O2120100   6.802   2.224   6.941 -0.1179  0.2750  0.7636
  166DOPC   C2120101   6.751   2.317   6.859  0.0562 -0.1048  0.0502
  166DOPC   O2220102   6.803   2.423   6.828 -0.2915 -0.6284  0.2637
  166DOPC   C2220103   6.614   2.274   6.808  0.3161 -0.1105 -0.1209
  166DOPC   H2R20104   6.546   2.259   6.894  0.5902 -0.2162  0.0787
  166DOPC   H2S20105   6.630   2.178   6.755  1.0463 -0.8763  1.4230
  166DOPC    C320106   7.040   2.172   6.890  0.2329  0.5779 -0.4313
  166DOPC    HX20107   7.018   2.065   6.910 -0.4940  0.6595 -0.7509
  166DOPC    HY20108   7.143   2.182   6.928  0.6402 -0.2787 -1.2740
  166DOPC   O3120109   7.023   2.197   6.750  0.5848  0.7624  0.2423
  166DOPC   C3120110   7.066   2.313   6.704  0.4921  0.1671  0.0259
  166DOPC   O3220111   7.104   2.403   6.775  0.5110 -0.3715 -0.0473
  166DOPC   C3220112   7.050   2.321   6.555 -0.0439  0.4192 -0.3178
  166DOPC   H2X20113   7.134   2.258   6.520  1.2665  1.4740  0.8438
  166DOPC   H2Y20114   6.954   2.270   6.532 -0.5642  1.3852 -0.3187
  166DOPC   C2320115   6.547   2.373   6.716 -0.2349 -0.1773 -0.2791
  166DOPC   H3R20116   6.533   2.469   6.770 -2.1890 -0.1605 -0.7282
  166DOPC   H3S20117   6.443   2.336   6.700 -0.4299  0.2127  0.0484
  166DOPC   C2420118   6.618   2.381   6.579 -0.0170 -0.3668  0.3408
  166DOPC   H4R20119   6.727   2.389   6.594  0.8849 -4.2600 -2.6458
  166DOPC   H4S20120   6.585   2.476   6.531 -0.7364 -1.1059 -0.6868
  166DOPC   C2520121   6.581   2.277   6.471  0.2865 -0.6095 -0.1509
  166DOPC   H5R20122   6.472   2.258   6.469  0.1054  0.3957 -0.7686
  166DOPC   H5S20123   6.627   2.181   6.503 -1.9649 -1.1831  1.6151
  166DOPC   C2620124   6.625   2.307   6.327  0.3619  0.3338  0.5239
  166DOPC   H6R20125   6.642   2.207   6.282 -2.0264  1.4834 -3.4559
  166DOPC   H6S20126   6.714   2.374   6.324  1.4688 -1.1280  0.0623
  166DOPC   C2720127   6.515   2.366   6.243  0.3763 -0.6505  0.5092
  166DOPC   H7R20128   6.481   2.458   6.294 -1.3745 -0.3866 -1.0089
  166DOPC   H7S20129   6.434   2.289   6.246 -1.2459  0.9330 -0.3652
  166DOPC   C2820130   6.543   2.408   6.098  0.1093  0.2960  0.2080
  166DOPC   H8R20131   6.567   2.327   6.026  1.2047  0.3462  0.5044
  166DOPC   H8S20132   6.636   2.468   6.105 -0.3469  0.9648  0.7504
  166DOPC   C2920133   6.423   2.476   6.041  0.3146  0.4857  0.2206
  166DOPC   H9R20134   6.329   2.419   6.042 -1.4844  3.2305 -0.3799
  166DOPC  C21020135   6.419   2.588   5.967 -0.2775  0.5816  0.1536
  166DOPC  H10R20136   6.320   2.628   5.941 -0.6797 -0.2525  0.3448
  166DOPC  C21120137   6.525   2.685   5.938 -0.1900 -0.0054 -0.1511
  166DOPC  H11R20138   6.612   2.646   5.995 -0.8121  0.5438  1.2125
  166DOPC  H11S20139   6.519   2.780   5.995  0.8400 -0.1018  0.1391
  166DOPC  C21220140   6.550   2.698   5.791 -0.1792  0.0016  0.1196
  166DOPC  H12R20141   6.593   2.799   5.775  0.3675 -0.2806 -0.2472
  166DOPC  H12S20142   6.462   2.681   5.726  1.4159  0.7438 -2.3849
  166DOPC  C21320143   6.651   2.594   5.742  0.1005  0.3244  0.8474
  166DOPC  H13R20144   6.615   2.489   5.748  1.9857 -0.4079  0.0746
  166DOPC  H13S20145   6.742   2.604   5.805  0.0122  0.8356  0.9010
  166DOPC  C21420146   6.699   2.622   5.596  0.2350 -0.4063 -0.2424
  166DOPC  H14R20147   6.712   2.732   5.581 -1.1497 -0.0878  0.7229
  166DOPC  H14S20148   6.607   2.607   5.536 -2.2341  3.5637  2.1318
  166DOPC  C21520149   6.836   2.548   5.556 -0.3322  0.6151  0.1200
  166DOPC  H15R20150   6.824   2.441   5.584  0.0822  0.5231 -0.0470
  166DOPC  H15S20151   6.917   2.582   5.624  1.9868 -1.3377 -1.4972
  166DOPC  C21620152   6.882   2.547   5.414  0.4071 -0.5917  0.8734
  166DOPC  H16R20153   6.993   2.543   5.416  0.4200 -0.2126  2.1462
  166DOPC  H16S20154   6.869   2.642   5.358  0.3466 -0.8841  0.3920
  166DOPC  C21720155   6.825   2.435   5.323  0.3060 -0.2290 -0.5485
  166DOPC  H17R20156   6.716   2.452   5.325  0.7405  3.3868 -0.8718
  166DOPC  H17S20157   6.847   2.337   5.370  1.1694 -0.3895 -1.2623
  166DOPC  C21820158   6.880   2.433   5.182  0.2563 -0.8037  0.0110
  166DOPC  H18R20159   6.913   2.532   5.143 -2.8319 -0.5021 -2.1875
  166DOPC  H18S20160   6.811   2.386   5.109  0.0979 -0.1862 -0.2476
  166DOPC  H18T20161   6.969   2.368   5.178 -0.3712 -1.6258 -1.3685
  166DOPC   C3320162   7.059   2.461   6.495 -0.8713 -0.0610  1.1401
  166DOPC   H3X20163   7.162   2.489   6.464 -0.7487 -0.1453  1.4662
  166DOPC   H3Y20164   7.022   2.539   6.565 -0.6428 -0.8502  2.1654
  166DOPC   C3420165   6.976   2.485   6.367 -0.6199 -0.0245 -0.0609
  166DOPC   H4X20166   6.868   2.488   6.393 -0.8999  1.1791 -1.2442
  166DOPC   H4Y20167   6.992   2.400   6.297  0.4433  1.9483 -2.3673
  166DOPC   C3520168   7.005   2.612   6.287  0.2627 -0.2968 -0.6912
  166DOPC   H5X20169   7.115   2.607   6.270  0.6634 -0.8734  1.7398
  166DOPC   H5Y20170   6.989   2.710   6.338  0.2011 -0.5192 -0.2777
  166DOPC   C3620171   6.933   2.625   6.151 -0.1045 -0.1851  0.4139
  166DOPC   H6X20172   6.971   2.544   6.085  0.2014  0.0928  0.2454
  166DOPC   H6Y20173   6.824   2.619   6.172 -0.1639 -1.3081 -0.1652
  166DOPC   C3720174   6.964   2.754   6.073  0.5603 -0.0209  0.5016
  166DOPC   H7X20175   6.890   2.759   5.990  0.6578  1.4074  0.4843
  166DOPC   H7Y20176   6.935   2.841   6.135  1.0728  0.6428 -0.1757
  166DOPC   C3820177   7.107   2.765   6.019 -0.2434 -0.6808 -0.0992
  166DOPC   H8X20178   7.134   2.667   5.975 -2.0260 -0.6733 -1.3517
  166DOPC   H8Y20179   7.167   2.787   6.109 -0.3325 -0.2409 -0.1446
  166DOPC   C3920180   7.113   2.869   5.907 -0.4118  0.3028 -0.2116
  166DOPC   H9X20181   7.034   2.946   5.905 -1.9655 -1.2344 -0.9823
  166DOPC  C31020182   7.194   2.877   5.795 -0.4990  0.0502 -0.8804
  166DOPC  H10X20183   7.167   2.956   5.724 -1.5582  1.1275  0.6449
  166DOPC  C31120184   7.305   2.778   5.771 -0.8187  0.6425  0.5556
  166DOPC  H11X20185   7.306   2.696   5.846 -1.9325 -2.0085 -2.0902
  166DOPC  H11Y20186   7.400   2.834   5.756  0.2834 -1.5186 -1.2905
  166DOPC  C31220187   7.296   2.691   5.640  0.8772  0.2649 -0.1005
  166DOPC  H12X20188   7.223   2.614   5.671  1.5561  0.2811  1.6545
  166DOPC  H12Y20189   7.395   2.641   5.634 -0.3217 -2.7730  2.8005
  166DOPC  C31320190   7.275   2.757   5.499  0.2141 -0.5897 -0.2180
  166DOPC  H13X20191   7.180   2.813   5.511  1.4514  1.2465  1.6637
  166DOPC  H13Y20192   7.360   2.829   5.489 -0.2679 -0.1747 -1.5661
  166DOPC  C31420193   7.272   2.656   5.389  0.1386  0.6901  0.2973
  166DOPC  H14X20194   7.295   2.559   5.439  0.4636  0.9844  0.7236
  166DOPC  H14Y20195   7.166   2.646   5.354  0.7600 -1.6644 -1.2114
  166DOPC  C31520196   7.362   2.694   5.264 -0.2680 -0.1870  0.0101
  166DOPC  H15X20197   7.354   2.613   5.189  0.1720 -1.6560  1.5077
  166DOPC  H15Y20198   7.467   2.706   5.299 -1.0746  1.4734  2.1269
  166DOPC  C31620199   7.332   2.821   5.168 -0.1524  0.1108  0.0549
  166DOPC  H16X20200   7.240   2.799   5.110 -1.3064  0.8645  1.5292
  166DOPC  H16Y20201   7.310   2.917   5.219 -1.5179  0.0031 -0.2917
  166DOPC  C31720202   7.453   2.861   5.084 -1.2876 -0.6942  0.1000
  166DOPC  H17X20203   7.543   2.887   5.143 -0.2989  1.7847 -2.3073
  166DOPC  H17Y20204   7.476   2.785   5.006 -0.4862  1.4673 -1.9059
  166DOPC  C31820205   7.423   2.974   4.991  0.4341  0.6218 -0.9636
  166DOPC  H18X20206   7.317   2.983   4.959  0.6635  1.2195 -1.5783
  166DOPC  H18Y20207   7.438   3.071   5.043 -2.6433  0.7499 -0.1168
  166DOPC  H18Z20208   7.491   2.970   4.903  0.0043  2.4583 -1.4227
  167DOPC     N20209   7.426   1.686   7.532 -0.1340 -0.3023 -0.3137
  167DOPC   C1220210   7.441   1.651   7.382  0.1823 -0.3839  0.1793
  167DOPC  H12A20211   7.346   1.675   7.336 -0.5754 -1.6986  1.0052
  167DOPC  H12B20212   7.446   1.544   7.367  0.2295 -0.3763  0.1392
  167DOPC   C1320213   7.346   1.578   7.598  0.6917  0.3876 -0.5901
  167DOPC  H13A20214   7.389   1.479   7.586 -1.4312 -0.8683  1.2590
  167DOPC  H13B20215   7.331   1.586   7.705 -3.0943 -0.6618 -0.8888
  167DOPC  H13C20216   7.244   1.577   7.564 -0.3286  0.8298  2.2050
  167DOPC   C1420217   7.363   1.821   7.560 -0.2297 -0.5804 -0.3820
  167DOPC  H14A20218   7.256   1.829   7.544 -0.5656 -1.9456  0.8711
  167DOPC  H14B20219   7.381   1.840   7.665 -0.9027 -0.7987 -0.2197
  167DOPC  H14C20220   7.417   1.897   7.506  1.2970 -1.2628  0.1178
  167DOPC   C1520221   7.564   1.693   7.591 -0.0175  0.0128 -0.4349
  167DOPC  H15A20222   7.634   1.614   7.571  0.0201 -0.0478 -0.0614
  167DOPC  H15B20223   7.546   1.716   7.695  2.6098 -0.4845  0.1799
  167DOPC  H15C20224   7.614   1.781   7.553  0.0432 -0.8123 -2.3650
  167DOPC   C1120225   7.559   1.715   7.301  0.1507 -0.8444  0.0312
  167DOPC  H11A20226   7.525   1.734   7.197 -0.2378  3.1083  0.7002
  167DOPC  H11B20227   7.586   1.816   7.338  0.9477 -0.2140 -2.0834
  167DOPC     P20228   7.683   1.504   7.215  0.1374 -0.2203  0.1225
  167DOPC   O1320229   7.555   1.431   7.205 -0.2882 -0.4662  0.3376
  167DOPC   O1420230   7.809   1.429   7.245  0.3593 -0.1421  0.2770
  167DOPC   O1220231   7.674   1.631   7.306 -0.2153 -0.0216  0.2681
  167DOPC   O1120232   7.700   1.564   7.077 -0.3720 -0.8684 -0.4539
  167DOPC    C120233   7.828   1.603   7.029  0.4814 -1.0079  0.6374
  167DOPC    HA20234   7.918   1.568   7.085 -0.8856 -1.4881  2.6374
  167DOPC    HB20235   7.834   1.713   7.037 -1.8139 -0.8240  0.3651
  167DOPC    C220236   7.861   1.565   6.881 -0.5170  0.2274  0.0257
  167DOPC    HS20237   7.960   1.610   6.859 -0.9150  1.7884  1.2417
  167DOPC   O2120238   7.751   1.608   6.791 -0.2705  0.5810 -0.2587
  167DOPC   C2120239   7.758   1.734   6.754  0.6150 -0.3392 -0.2209
  167DOPC   O2220240   7.824   1.821   6.810 -0.2018 -0.5254  0.1448
  167DOPC   C2220241   7.671   1.753   6.622 -0.5139  0.3139 -0.1718
  167DOPC   H2R20242   7.601   1.667   6.629  0.9752 -0.7878  2.5654
  167DOPC   H2S20243   7.742   1.732   6.538  2.1011 -4.4421  2.7622
  167DOPC    C320244   7.881   1.409   6.865 -0.3039 -0.3431  0.2501
  167DOPC    HX20245   7.778   1.370   6.883  0.1002 -0.5996  2.3394
  167DOPC    HY20246   7.944   1.356   6.940 -0.2421 -1.2523 -0.4198
  167DOPC   O3120247   7.940   1.374   6.740  0.5129  0.5784  0.0581
  167DOPC   C3120248   7.913   1.250   6.700 -1.1278 -0.1606  0.4179
  167DOPC   O3220249   7.848   1.166   6.756  0.3614  0.0922  0.1831
  167DOPC   C3220250   7.983   1.242   6.561  0.1252  0.2787 -0.2962
  167DOPC   H2X20251   7.971   1.339   6.508 -0.9444  1.1702  1.4948
  167DOPC   H2Y20252   8.092   1.236   6.578 -0.1439  1.8644  2.6644
  167DOPC   C2320253   7.606   1.887   6.607  0.0454  0.0071 -0.0985
  167DOPC   H3R20254   7.689   1.956   6.584  0.5594 -0.8047 -0.7310
  167DOPC   H3S20255   7.550   1.910   6.700 -1.7915 -4.2772  0.0917
  167DOPC   C2420256   7.525   1.875   6.477 -0.5517 -0.1295  0.4556
  167DOPC   H4R20257   7.453   1.792   6.464 -1.5423  0.9254 -1.0353
  167DOPC   H4S20258   7.608   1.858   6.404  0.5239 -0.1584  1.6420
  167DOPC   C2520259   7.472   2.012   6.428  0.3767 -0.3587 -0.5977
  167DOPC   H5R20260   7.553   2.083   6.454 -0.5287  0.6411 -0.4049
  167DOPC   H5S20261   7.384   2.040   6.491  0.3221  1.3893 -1.3891
  167DOPC   C2620262   7.450   2.016   6.272 -0.1428 -0.6809  0.2982
  167DOPC   H6R20263   7.381   1.935   6.240 -2.4826  1.8160 -1.4286
  167DOPC   H6S20264   7.548   2.008   6.221 -0.0179  2.5442 -0.2325
  167DOPC   C2720265   7.402   2.149   6.220  0.2273 -0.1750 -0.3640
  167DOPC   H7R20266   7.303   2.175   6.264  0.3553  0.7972 -0.6256
  167DOPC   H7S20267   7.384   2.145   6.111  1.5620 -1.3555 -0.5708
  167DOPC   C2820268   7.493   2.261   6.251 -0.1212 -0.1179 -0.1092
  167DOPC   H8R20269   7.594   2.236   6.211 -0.0871 -0.1097 -0.0289
  167DOPC   H8S20270   7.515   2.271   6.360 -1.0511  0.7933  0.0101
  167DOPC   C2920271   7.437   2.400   6.212 -0.8725 -0.4136 -0.5637
  167DOPC   H9R20272   7.366   2.448   6.281  1.6447  0.5036  1.5716
  167DOPC  C21020273   7.494   2.474   6.116  0.2742 -0.1060 -0.6077
  167DOPC  H10R20274   7.451   2.575   6.102 -0.9726 -0.2495  1.8141
  167DOPC  C21120275   7.594   2.440   6.009  0.8402 -0.6527  0.4875
  167DOPC  H11R20276   7.654   2.354   6.047 -0.3381 -0.4768  2.9996
  167DOPC  H11S20277   7.665   2.521   5.983 -0.2540  0.1648 -0.0542
  167DOPC  C21220278   7.531   2.398   5.874  0.6159  0.1665 -0.6344
  167DOPC  H12R20279   7.461   2.314   5.896  2.2787 -1.0845  0.1624
  167DOPC  H12S20280   7.468   2.481   5.837 -1.2953 -0.1129  1.7923
  167DOPC  C21320281   7.631   2.371   5.760 -0.2493  0.0710 -0.1432
  167DOPC  H13R20282   7.696   2.284   5.784  0.8719  0.9033 -0.0405
  167DOPC  H13S20283   7.692   2.464   5.753 -2.1708  1.4331  0.3743
  167DOPC  C21420284   7.569   2.364   5.624  0.3262 -0.4226 -0.7022
  167DOPC  H14R20285   7.500   2.449   5.604 -0.4680 -0.9623 -0.3280
  167DOPC  H14S20286   7.498   2.280   5.613 -2.1090  1.4809 -0.5127
  167DOPC  C21520287   7.669   2.363   5.505 -0.5851 -0.1515  0.4170
  167DOPC  H15R20288   7.739   2.449   5.502 -1.0941  0.2762 -1.8572
  167DOPC  H15S20289   7.602   2.358   5.416 -1.8928 -0.5828  1.3840
  167DOPC  C21620290   7.745   2.239   5.497 -0.2164  0.1538 -0.2828
  167DOPC  H16R20291   7.681   2.149   5.506  1.4903 -1.1633 -0.5959
  167DOPC  H16S20292   7.799   2.251   5.593  0.0986 -0.0091 -0.4382
  167DOPC  C21720293   7.830   2.225   5.371  0.2817  0.2874  0.0615
  167DOPC  H17R20294   7.895   2.314   5.356 -0.4761  0.9829  0.7841
  167DOPC  H17S20295   7.756   2.216   5.289 -0.2874 -0.9411  0.6817
  167DOPC  C21820296   7.905   2.091   5.367  0.3303  0.2745  0.0104
  167DOPC  H18R20297   7.836   2.005   5.372 -2.2308  2.0677 -1.9785
  167DOPC  H18S20298   7.980   2.081   5.449 -0.0080  1.8430  0.5449
  167DOPC  H18T20299   7.954   2.087   5.268  0.6172  3.8194 -0.1346
  167DOPC   C3320300   7.929   1.121   6.476  0.7633 -0.4017 -0.1835
  167DOPC   H3X20301   7.959   1.028   6.528  0.6720 -0.2414  0.1595
  167DOPC   H3Y20302   7.976   1.119   6.375  0.9290 -0.2180 -0.1118
  167DOPC   C3420303   7.775   1.127   6.449 -0.5443 -0.0486 -0.2761
  167DOPC   H4X20304   7.763   1.221   6.390 -1.4195 -0.3569 -0.6021
  167DOPC   H4Y20305   7.708   1.134   6.538  1.3846 -0.8169  1.3288
  167DOPC   C3520306   7.737   1.005   6.368  0.0737  0.2722  0.1825
  167DOPC   H5X20307   7.718   0.916   6.432  2.7046  0.4845  1.3935
  167DOPC   H5Y20308   7.814   0.980   6.292  1.5531 -0.9964  2.0048
  167DOPC   C3620309   7.598   1.027   6.301  0.0078  0.2412 -0.1535
  167DOPC   H6X20310   7.510   1.043   6.367  0.4404  2.4001 -0.0180
  167DOPC   H6Y20311   7.602   1.122   6.244 -0.9458  1.8355  2.2642
  167DOPC   C3720312   7.570   0.913   6.204  0.2528  0.2271 -0.6568
  167DOPC   H7X20313   7.611   0.822   6.254 -0.5290  0.5743  0.6740
  167DOPC   H7Y20314   7.460   0.906   6.196  0.2996 -0.2171 -0.9360
  167DOPC   C3820315   7.638   0.930   6.063 -0.1774 -0.6017  0.0272
  167DOPC   H8X20316   7.612   0.836   6.009 -0.2484  0.9219 -2.8226
  167DOPC   H8Y20317   7.749   0.928   6.073 -0.3040 -0.1483  1.7964
  167DOPC   C3920318   7.599   1.055   5.989 -0.3691 -0.0015 -0.2812
  167DOPC   H9X20319   7.628   1.153   6.029 -0.3647  0.5235 -1.5229
  167DOPC  C31020320   7.544   1.057   5.865 -1.1131 -0.6720  0.0070
  167DOPC  H10X20321   7.497   1.153   5.841  1.8035  1.2218  1.2413
  167DOPC  C31120322   7.497   0.953   5.768 -0.2482 -0.0654  0.2222
  167DOPC  H11X20323   7.440   0.999   5.684  0.7621  2.4179  0.8088
  167DOPC  H11Y20324   7.449   0.865   5.816  2.3546 -1.5135  0.2998
  167DOPC  C31220325   7.617   0.886   5.705  0.4260 -0.1880  0.3506
  167DOPC  H12X20326   7.684   0.865   5.791  0.8789  3.2313  0.9615
  167DOPC  H12Y20327   7.675   0.957   5.644 -0.6393 -0.8450 -1.5180
  167DOPC  C31320328   7.592   0.766   5.611  0.2406  0.2518  0.9988
  167DOPC  H13X20329   7.671   0.691   5.588 -2.1925 -1.6605 -2.0692
  167DOPC  H13Y20330   7.514   0.694   5.646 -0.1645 -0.9951 -2.1373
  167DOPC  C31420331   7.552   0.817   5.475 -0.1282  0.6432  0.5344
  167DOPC  H14X20332   7.471   0.893   5.477 -1.9224 -1.0826 -1.6592
  167DOPC  H14Y20333   7.643   0.860   5.428  0.2848 -1.1859 -0.4262
  167DOPC  C31520334   7.504   0.702   5.386  0.6000  0.7909 -0.0710
  167DOPC  H15X20335   7.403   0.670   5.420  1.1161  0.2078  0.9619
  167DOPC  H15Y20336   7.576   0.619   5.404  1.1602  1.1248 -0.7109
  167DOPC  C31620337   7.507   0.743   5.233 -0.7212 -0.5365  0.2163
  167DOPC  H16X20338   7.463   0.844   5.229  1.7925  0.6672  1.0131
  167DOPC  H16Y20339   7.613   0.740   5.202 -0.5208 -1.4300  0.9364
  167DOPC  C31720340   7.429   0.631   5.162 -0.7388 -0.6039  0.3140
  167DOPC  H17X20341   7.483   0.535   5.176 -0.7137 -0.9665 -1.8226
  167DOPC  H17Y20342   7.326   0.642   5.201 -1.2828 -0.6478 -1.0419
  167DOPC  C31820343   7.421   0.662   5.010  0.0783 -0.5763 -0.4702
  167DOPC  H18X20344   7.362   0.583   4.958  0.4225 -0.0298 -1.7495
  167DOPC  H18Y20345   7.364   0.758   5.001  1.5739  0.3962  0.0884
  167DOPC  H18Z20346   7.524   0.663   4.969  0.3105 -1.6050  0.0708
  168DOPC     N20347   2.106   6.707   7.015 -0.3494  0.7478  0.0684
  168DOPC   C1220348   2.224   6.686   6.924 -0.0218  0.1270  0.2534
  168DOPC  H12A20349   2.313   6.693   6.985  0.9992  0.0313 -1.2022
  168DOPC  H12B20350   2.238   6.775   6.864 -1.5934 -0.5915 -1.2453
  168DOPC   C1320351   1.976   6.715   6.932 -0.0433  1.2968 -0.4382
  168DOPC  H13A20352   1.968   6.802   6.869 -1.1511  1.0746 -0.6394
  168DOPC  H13B20353   1.969   6.622   6.877  0.8755 -0.2056  1.8828
  168DOPC  H13C20354   1.883   6.713   6.988 -1.9626 -0.9473 -3.3692
  168DOPC   C1420355   2.117   6.825   7.102  0.0308 -0.2063 -0.7704
  168DOPC  H14A20356   2.144   6.913   7.047 -0.5703 -0.3239 -1.2639
  168DOPC  H14B20357   2.033   6.850   7.166  1.6182  0.4450  1.1470
  168DOPC  H14C20358   2.195   6.805   7.174  0.0135  1.2743 -0.3009
  168DOPC   C1520359   2.091   6.587   7.110 -0.1083  0.5128  0.3499
  168DOPC  H15A20360   2.095   6.494   7.055  1.5447 -0.6821  2.3591
  168DOPC  H15B20361   1.992   6.594   7.151 -0.9464  1.0638 -1.6286
  168DOPC  H15C20362   2.169   6.579   7.184  0.9106  2.0450 -0.4841
  168DOPC   C1120363   2.218   6.577   6.821  0.5116 -0.4060  0.6861
  168DOPC  H11A20364   2.145   6.605   6.742  0.5073 -2.1563  0.0424
  168DOPC  H11B20365   2.316   6.568   6.769  0.3487 -2.9921  0.7312
  168DOPC     P20366   2.065   6.359   6.805  0.1707  0.0104 -0.1365
  168DOPC   O1320367   1.945   6.440   6.806 -0.4931 -1.0122  0.0733
  168DOPC   O1420368   2.077   6.229   6.878 -0.3871 -0.5911  0.2765
  168DOPC   O1220369   2.182   6.446   6.872 -0.1025 -0.2223 -0.0512
  168DOPC   O1120370   2.117   6.339   6.653 -0.7183  0.0107  0.2567
  168DOPC    C120371   2.112   6.217   6.589 -0.3810  0.3368 -0.5463
  168DOPC    HA20372   2.129   6.136   6.663 -0.3144 -0.4025 -1.3512
  168DOPC    HB20373   2.192   6.204   6.513 -0.7992  1.7173 -1.2665
  168DOPC    C220374   1.983   6.185   6.517  0.1051 -0.2661  0.7398
  168DOPC    HS20375   1.906   6.151   6.589 -1.1104 -2.2395 -1.3734
  168DOPC   O2120376   2.002   6.088   6.407 -0.2978 -0.2670  0.4740
  168DOPC   C2120377   2.021   5.962   6.438  0.2905 -0.5499 -1.2869
  168DOPC   O2220378   2.044   5.924   6.552  0.4792 -0.7219  0.3760
  168DOPC   C2220379   2.012   5.874   6.315  0.3694 -0.8172  0.3300
  168DOPC   H2R20380   2.101   5.808   6.309 -0.6051 -2.1247 -0.4102
  168DOPC   H2S20381   2.021   5.947   6.232  1.7697 -1.8233 -0.4438
  168DOPC    C320382   1.914   6.314   6.457  0.6575 -0.4670  0.0512
  168DOPC    HX20383   1.901   6.382   6.545 -1.9032 -1.3692  0.4493
  168DOPC    HY20384   1.813   6.283   6.424  0.6788  0.2995 -0.7560
  168DOPC   O3120385   1.984   6.377   6.348  0.0711  0.2789  0.6211
  168DOPC   C3120386   1.940   6.492   6.317  0.1005 -0.5659  0.4115
  168DOPC   O3220387   1.854   6.556   6.375  0.2597  0.1129  0.1584
  168DOPC   C3220388   2.024   6.542   6.200  0.5160  0.0522 -0.0710
  168DOPC   H2X20389   2.131   6.539   6.229  0.3706  2.5771  0.9505
  168DOPC   H2Y20390   1.998   6.498   6.102 -2.0516  2.5142 -0.6231
  168DOPC   C2320391   1.875   5.796   6.308 -0.7552  0.5014  0.8384
  168DOPC   H3R20392   1.786   5.858   6.284 -0.5254  0.9302  1.0795
  168DOPC   H3S20393   1.854   5.752   6.407 -0.4280  2.1683  1.6879
  168DOPC   C2420394   1.889   5.674   6.220  0.1298  0.1765 -0.5618
  168DOPC   H4R20395   1.801   5.612   6.247  0.3049  0.7181  1.4069
  168DOPC   H4S20396   1.972   5.605   6.246  0.1968 -0.2979 -1.9785
  168DOPC   C2520397   1.900   5.690   6.062 -0.4651 -0.1060  0.2104
  168DOPC   H5R20398   1.859   5.790   6.036 -0.3376  0.0491  0.5935
  168DOPC   H5S20399   1.838   5.614   6.011  1.4887  0.1388 -2.7594
  168DOPC   C2620400   2.041   5.694   6.003  0.5417 -0.0784  0.8672
  168DOPC   H6R20401   2.098   5.600   6.020  0.1685 -0.0281  2.5439
  168DOPC   H6S20402   2.098   5.778   6.049  1.2985  0.1013 -0.3515
  168DOPC   C2720403   2.026   5.732   5.856 -0.1764  0.5630 -0.0248
  168DOPC   H7R20404   1.981   5.833   5.852 -0.2805  0.5581  0.8599
  168DOPC   H7S20405   1.957   5.648   5.828  2.5843 -2.4586  1.5647
  168DOPC   C2820406   2.153   5.723   5.773  0.3251 -0.0753 -0.7510
  168DOPC   H8R20407   2.124   5.722   5.665 -0.5628  0.4190 -0.5266
  168DOPC   H8S20408   2.192   5.619   5.784 -1.9715 -0.8741  0.7248
  168DOPC   C2920409   2.250   5.833   5.809 -0.8622  0.2100  0.4173
  168DOPC   H9R20410   2.301   5.823   5.906 -1.1849  0.8250  0.6514
  168DOPC  C21020411   2.276   5.941   5.744 -0.3882  0.2919  0.2355
  168DOPC  H10R20412   2.367   5.998   5.770 -0.2508  0.0201  0.3562
  168DOPC  C21120413   2.199   5.973   5.615  0.3550 -0.3042  0.1410
  168DOPC  H11R20414   2.178   6.082   5.616  0.8617 -0.1871 -1.2258
  168DOPC  H11S20415   2.092   5.944   5.617 -1.2283  4.6215  0.7262
  168DOPC  C21220416   2.266   5.949   5.475 -0.4625  0.4347 -0.3715
  168DOPC  H12R20417   2.280   5.842   5.449  1.3988  0.6647 -0.4774
  168DOPC  H12S20418   2.367   5.992   5.491 -0.9214  0.7498  2.0784
  168DOPC  C21320419   2.202   6.013   5.353 -0.2953 -0.6851  0.3069
  168DOPC  H13R20420   2.172   6.116   5.383 -0.3568 -0.5855 -0.0944
  168DOPC  H13S20421   2.107   5.962   5.324 -1.4852  1.2225  0.6438
  168DOPC  C21420422   2.288   6.023   5.228  0.0080  0.1310 -0.4852
  168DOPC  H14R20423   2.247   6.097   5.156 -2.1066  0.6425  1.1443
  168DOPC  H14S20424   2.276   5.932   5.165 -0.3216 -0.2227  0.0816
  168DOPC  C21520425   2.439   6.046   5.236 -0.2632  0.7190 -0.1901
  168DOPC  H15R20426   2.510   5.963   5.256  1.9563  2.6026  0.2314
  168DOPC  H15S20427   2.452   6.118   5.320  1.3620  0.8068 -0.4731
  168DOPC  C21620428   2.500   6.118   5.112 -0.5462 -0.2038 -0.1460
  168DOPC  H16R20429   2.426   6.195   5.083  0.6657  1.3476  0.7675
  168DOPC  H16S20430   2.500   6.044   5.029  0.1195 -0.5862  0.1859
  168DOPC  C21720431   2.631   6.187   5.141 -0.4083 -0.0256 -0.6430
  168DOPC  H17R20432   2.616   6.251   5.231  1.2206 -1.8642  1.0462
  168DOPC  H17S20433   2.664   6.249   5.055  2.2435  0.1620  0.4366
  168DOPC  C21820434   2.745   6.088   5.170  0.0514  0.7543 -0.6489
  168DOPC  H18R20435   2.767   6.020   5.085 -1.9657 -1.9652  0.8229
  168DOPC  H18S20436   2.721   6.025   5.258 -2.4822  1.1073 -1.0026
  168DOPC  H18T20437   2.835   6.151   5.190  1.2956 -1.0092 -0.5181
  168DOPC   C3320438   1.987   6.692   6.177 -0.0937 -0.4890  0.4717
  168DOPC   H3X20439   2.040   6.758   6.249 -0.9959  0.1155  0.6059
  168DOPC   H3Y20440   1.879   6.716   6.190 -0.3593  0.1794 -2.3257
  168DOPC   C3420441   2.038   6.726   6.043 -0.8189 -0.5096 -0.4115
  168DOPC   H4X20442   2.148   6.709   6.043 -0.8146 -0.4803 -0.5163
  168DOPC   H4Y20443   2.042   6.837   6.044  1.6768 -0.5309  1.1430
  168DOPC   C3520444   1.972   6.652   5.930 -0.4336 -0.0715  0.6281
  168DOPC   H5X20445   1.862   6.642   5.943 -0.2830 -0.0483  2.1392
  168DOPC   H5Y20446   2.010   6.548   5.934 -0.9344 -0.2125  2.2955
  168DOPC   C3620447   1.997   6.714   5.787 -0.3237 -0.4030  0.4402
  168DOPC   H6X20448   1.989   6.634   5.711 -1.7096  0.0596  0.0688
  168DOPC   H6Y20449   1.913   6.784   5.768 -0.0922  0.6133  2.7784
  168DOPC   C3720450   2.126   6.792   5.761  0.0560 -0.6433  0.2314
  168DOPC   H7X20451   2.139   6.872   5.836 -3.8946  0.6641 -0.2455
  168DOPC   H7Y20452   2.212   6.723   5.769 -0.7675 -1.6444  0.7418
  168DOPC   C3820453   2.123   6.849   5.617  0.6792  0.7662 -0.5670
  168DOPC   H8X20454   2.024   6.898   5.611 -0.8164 -1.9532  0.5097
  168DOPC   H8Y20455   2.113   6.757   5.555 -0.2252 -0.3025  1.1066
  168DOPC   C3920456   2.224   6.952   5.578  0.4889 -0.2570 -0.5594
  168DOPC   H9X20457   2.264   7.009   5.663 -1.3447 -1.0124  0.8635
  168DOPC  C31020458   2.274   6.963   5.464 -0.5699  0.4932  1.0031
  168DOPC  H10X20459   2.377   7.001   5.454  0.6290 -2.2737  1.7763
  168DOPC  C31120460   2.228   6.901   5.333  0.5398  0.5475  0.8034
  168DOPC  H11X20461   2.158   6.815   5.345  0.6930  0.6074  2.3342
  168DOPC  H11Y20462   2.316   6.874   5.270 -1.2541 -0.9198 -1.2439
  168DOPC  C31220463   2.146   7.004   5.251  0.5567 -0.0268 -0.1738
  168DOPC  H12X20464   2.211   7.090   5.223  0.0602 -0.3656 -2.5967
  168DOPC  H12Y20465   2.062   7.042   5.313 -0.5617 -2.7756  0.1729
  168DOPC  C31320466   2.089   6.932   5.126  0.1230  0.7508  0.3171
  168DOPC  H13X20467   2.169   6.883   5.066  0.5563  0.8815  0.7872
  168DOPC  H13Y20468   2.019   6.852   5.158 -0.6005 -0.2833 -3.3282
  168DOPC  C31420469   2.026   7.035   5.031 -0.1805  0.6372  0.0038
  168DOPC  H14X20470   1.972   6.973   4.956 -0.3037  3.9283 -2.8654
  168DOPC  H14Y20471   1.949   7.097   5.082  1.5178  1.5475  1.6181
  168DOPC  C31520472   2.141   7.118   4.962  0.9678  0.3771  0.1033
  168DOPC  H15X20473   2.195   7.041   4.903  0.5278  1.3441 -1.6222
  168DOPC  H15Y20474   2.229   7.141   5.026  1.7320 -0.7540 -0.4867
  168DOPC  C31620475   2.107   7.235   4.872  0.0522  0.0458  0.4625
  168DOPC  H16X20476   2.036   7.203   4.793  1.4791  0.6750 -1.1075
  168DOPC  H16Y20477   2.074   7.320   4.936  2.6757 -0.7780  3.1725
  168DOPC  C31720478   2.235   7.286   4.800  0.2747  0.5078  0.3533
  168DOPC  H17X20479   2.319   7.279   4.872 -0.1880 -0.2937  0.8311
  168DOPC  H17Y20480   2.261   7.218   4.716 -3.3476 -0.8544  0.1248
  168DOPC  C31820481   2.221   7.425   4.733 -0.1882  0.4189 -0.3047
  168DOPC  H18X20482   2.193   7.494   4.816  0.7216  0.5384 -0.0883
  168DOPC  H18Y20483   2.315   7.458   4.684 -1.6273  3.3064 -1.3381
  168DOPC  H18Z20484   2.138   7.414   4.660 -0.0351  0.6587 -0.5121
  169DOPC     N20485   1.050   0.665   7.307  0.2416  0.2087  0.5561
  169DOPC   C1220486   1.176   0.663   7.226 -0.9452  0.7722 -0.4640
  169DOPC  H12A20487   1.181   0.567   7.177 -4.0061  0.9188 -1.2594
  169DOPC  H12B20488   1.264   0.672   7.289 -0.0249 -2.2017 -1.1830
  169DOPC   C1320489   1.016   0.789   7.381  0.3610 -1.2445  0.1633
  169DOPC  H13A20490   1.090   0.813   7.456 -0.9493  0.0419  1.1006
  169DOPC  H13B20491   1.021   0.875   7.316  1.0010  0.4384  2.3294
  169DOPC  H13C20492   0.926   0.784   7.440  0.6985 -1.5798  0.6573
  169DOPC   C1420493   1.051   0.556   7.409 -0.6141 -0.0289 -0.3389
  169DOPC  H14A20494   1.061   0.461   7.359 -0.0589 -0.1054 -0.0957
  169DOPC  H14B20495   1.138   0.561   7.473 -1.0942 -0.4961  0.3606
  169DOPC  H14C20496   0.962   0.549   7.469 -0.0618  1.2054  0.6757
  169DOPC   C1520497   0.927   0.630   7.217  0.1966 -0.0533 -0.4741
  169DOPC  H15A20498   0.840   0.639   7.281  1.2234  0.8647  0.8677
  169DOPC  H15B20499   0.933   0.532   7.172 -1.0234 -1.3509  1.9480
  169DOPC  H15C20500   0.919   0.692   7.130  1.1382  0.0028 -0.5357
  169DOPC   C1120501   1.188   0.769   7.129  0.3774 -0.4457  0.8657
  169DOPC  H11A20502   1.273   0.748   7.060 -0.2604  0.5565 -0.2557
  169DOPC  H11B20503   1.095   0.768   7.069  0.1679 -1.0591  1.1929
  169DOPC     P20504   1.351   0.936   7.226  0.1498 -0.0120  0.2855
  169DOPC   O1320505   1.408   0.825   7.306 -0.1114  0.0275  0.8031
  169DOPC   O1420506   1.349   1.071   7.281 -0.2862  0.1247 -0.3712
  169DOPC   O1220507   1.204   0.902   7.180  0.2261  0.0914 -0.0978
  169DOPC   O1120508   1.433   0.954   7.094 -0.3034  0.8459  0.4362
  169DOPC    C120509   1.424   1.070   7.010  0.2680  0.4158 -0.1126
  169DOPC    HA20510   1.519   1.088   6.955  0.2085 -1.5043 -0.9396
  169DOPC    HB20511   1.412   1.163   7.069 -1.1235  0.3353 -0.2325
  169DOPC    C220512   1.300   1.063   6.919  0.1025 -0.7092 -0.7746
  169DOPC    HS20513   1.211   1.066   6.985 -0.0055 -2.7504 -0.7496
  169DOPC   O2120514   1.271   0.941   6.856  0.2631 -0.3860 -0.0379
  169DOPC   C2120515   1.352   0.887   6.766 -0.0700 -1.0620  0.4349
  169DOPC   O2220516   1.451   0.942   6.722  0.4664 -0.1965  0.2880
  169DOPC   C2220517   1.301   0.750   6.727  0.0607  0.0247 -0.4462
  169DOPC   H2R20518   1.200   0.762   6.683 -0.2464 -3.5455 -1.0486
  169DOPC   H2S20519   1.292   0.686   6.817 -1.1299  0.3331 -0.3282
  169DOPC    C320520   1.304   1.189   6.821 -0.4186 -0.1216  0.2196
  169DOPC    HX20521   1.410   1.191   6.787 -0.4448 -2.4794 -0.1343
  169DOPC    HY20522   1.294   1.282   6.882 -0.6538  0.4824 -0.7069
  169DOPC   O3120523   1.218   1.194   6.705  0.1894  0.1106  0.6782
  169DOPC   C3120524   1.088   1.191   6.725  0.2383 -0.0732 -0.7977
  169DOPC   O3220525   1.038   1.205   6.834  0.0753  0.2250  0.5451
  169DOPC   C3220526   1.022   1.170   6.588 -1.1733  0.2852  0.4687
  169DOPC   H2X20527   1.062   1.081   6.535 -1.1981  0.3510  0.3394
  169DOPC   H2Y20528   0.912   1.161   6.604 -1.5551  0.2617 -1.8177
  169DOPC   C2320529   1.391   0.674   6.619  0.4911 -0.4074 -0.8535
  169DOPC   H3R20530   1.363   0.567   6.622 -0.3291 -0.1985 -0.6566
  169DOPC   H3S20531   1.497   0.677   6.650  0.3181 -3.0178  0.2099
  169DOPC   C2420532   1.377   0.737   6.470  0.0489  0.0202  0.2394
  169DOPC   H4R20533   1.450   0.709   6.392 -3.1109 -0.8503 -2.6434
  169DOPC   H4S20534   1.388   0.847   6.477 -1.7533  0.5361 -3.1583
  169DOPC   C2520535   1.239   0.716   6.388 -0.2194  0.1313 -0.1105
  169DOPC   H5R20536   1.149   0.738   6.449  0.1860  0.1081  0.5003
  169DOPC   H5S20537   1.236   0.605   6.377  1.0853  0.2694 -2.5677
  169DOPC   C2620538   1.234   0.775   6.241 -0.3643  0.1468 -0.1112
  169DOPC   H6R20539   1.268   0.881   6.237 -0.6431  0.2232 -0.6010
  169DOPC   H6S20540   1.125   0.770   6.217 -0.7306  3.2399  0.4759
  169DOPC   C2720541   1.329   0.692   6.147  0.3926 -0.1651  0.1437
  169DOPC   H7R20542   1.313   0.585   6.172  1.3989 -0.0475  1.3646
  169DOPC   H7S20543   1.437   0.712   6.164  0.2792  3.6030 -2.2423
  169DOPC   C2820544   1.312   0.711   5.996 -0.1826 -0.1555  0.1775
  169DOPC   H8R20545   1.217   0.670   5.957 -0.6501  2.2205 -1.3868
  169DOPC   H8S20546   1.387   0.652   5.939 -0.2930 -1.0635  0.9394
  169DOPC   C2920547   1.331   0.853   5.955 -0.0885  0.4808  0.0591
  169DOPC   H9R20548   1.435   0.890   5.955 -0.2599  0.9718  0.1792
  169DOPC  C21020549   1.247   0.936   5.897 -0.4020 -0.3251 -0.0669
  169DOPC  H10R20550   1.283   1.034   5.865  0.8200 -1.1592 -1.3485
  169DOPC  C21120551   1.106   0.916   5.885 -0.3686 -0.3263  0.4919
  169DOPC  H11R20552   1.050   1.011   5.900 -0.8267 -0.8841  2.6932
  169DOPC  H11S20553   1.055   0.854   5.961 -1.5633  0.6952  0.5444
  169DOPC  C21220554   1.060   0.861   5.751  0.2757 -0.2118  0.1326
  169DOPC  H12R20555   0.951   0.846   5.769  0.1670  0.0041 -0.3361
  169DOPC  H12S20556   1.117   0.771   5.719 -0.5963 -0.2346 -1.4561
  169DOPC  C21320557   1.060   0.961   5.634  0.4831  0.3161 -0.5366
  169DOPC  H13R20558   1.165   0.966   5.599  0.5464 -1.8761 -0.7653
  169DOPC  H13S20559   1.049   1.061   5.681 -0.2445 -0.2374  0.5331
  169DOPC  C21420560   0.965   0.925   5.519  0.1700  0.0688  0.0308
  169DOPC  H14R20561   0.865   0.942   5.563  0.0519  1.2466 -0.6688
  169DOPC  H14S20562   0.983   0.818   5.496  0.3499 -0.0801  0.8129
  169DOPC  C21520563   0.991   1.004   5.391  0.2923  0.0545 -0.7287
  169DOPC  H15R20564   1.032   1.104   5.420 -0.0850  0.5013 -1.6891
  169DOPC  H15S20565   0.898   1.013   5.331  0.0394  0.2053 -0.3130
  169DOPC  C21620566   1.093   0.941   5.303  0.6580  0.2779 -0.5842
  169DOPC  H16R20567   1.063   0.839   5.270 -3.1282  1.1270 -0.2001
  169DOPC  H16S20568   1.181   0.932   5.372  0.3921  3.8578  0.4406
  169DOPC  C21720569   1.132   1.036   5.188  0.4674  0.0521  1.2946
  169DOPC  H17R20570   1.241   1.020   5.179  0.2169 -0.5427 -1.5889
  169DOPC  H17S20571   1.115   1.140   5.223  0.1528 -0.6337  3.3314
  169DOPC  C21820572   1.063   1.012   5.047  0.6643 -0.3139 -1.1944
  169DOPC  H18R20573   0.955   1.024   5.068  1.3730  2.9602  1.3912
  169DOPC  H18S20574   1.091   0.909   5.014  0.9895 -0.7435  0.3226
  169DOPC  H18T20575   1.098   1.081   4.968  0.5149 -1.9930 -2.7991
  169DOPC   C3320576   1.043   1.301   6.505 -0.6346 -0.3255 -0.0851
  169DOPC   H3X20577   1.153   1.297   6.494 -0.2721  0.3250  2.5942
  169DOPC   H3Y20578   1.000   1.385   6.564 -2.4256 -1.6819  0.6430
  169DOPC   C3420579   0.975   1.303   6.371  0.3458 -0.1799  0.8880
  169DOPC   H4X20580   0.867   1.281   6.388 -0.3765  1.8455 -0.6703
  169DOPC   H4Y20581   1.027   1.226   6.309  2.9655  0.7136  1.8268
  169DOPC   C3520582   0.998   1.440   6.300 -0.1630  0.2875 -0.0234
  169DOPC   H5X20583   1.104   1.470   6.286  0.6038 -2.4758 -0.7286
  169DOPC   H5Y20584   0.964   1.523   6.367 -2.4629 -0.6497  0.0403
  169DOPC   C3620585   0.932   1.452   6.166 -0.1081  0.0700 -0.2554
  169DOPC   H6X20586   0.832   1.404   6.178 -0.6659  1.5250  1.4618
  169DOPC   H6Y20587   0.923   1.561   6.146 -0.8252  0.3896  1.5683
  169DOPC   C3720588   1.016   1.405   6.048 -0.3537  0.3182 -0.0121
  169DOPC   H7X20589   1.107   1.462   6.074 -1.2568  1.1680  1.4068
  169DOPC   H7Y20590   1.040   1.297   6.063 -0.3068  0.3348  0.0292
  169DOPC   C3820591   0.957   1.425   5.904  0.6699 -0.3615 -0.3686
  169DOPC   H8X20592   1.015   1.369   5.828  2.1094  0.9999 -0.3165
  169DOPC   H8Y20593   0.983   1.528   5.873 -0.1102 -0.8218 -2.7264
  169DOPC   C3920594   0.811   1.403   5.880  0.1401 -0.6022 -0.4892
  169DOPC   H9X20595   0.745   1.490   5.886 -0.6788 -1.2122 -0.5448
  169DOPC  C31020596   0.750   1.287   5.849 -0.0106  0.1578  0.3079
  169DOPC  H10X20597   0.641   1.288   5.838 -0.1257 -1.6345  0.9099
  169DOPC  C31120598   0.812   1.149   5.850  0.2065 -0.1203  0.0933
  169DOPC  H11X20599   0.922   1.157   5.857  0.1995  1.3455 -1.0175
  169DOPC  H11Y20600   0.790   1.105   5.750  1.9781 -0.8502 -0.0193
  169DOPC  C31220601   0.748   1.047   5.945  0.1490 -0.3876  0.2424
  169DOPC  H12X20602   0.775   0.941   5.923 -0.0531 -0.2378 -0.7792
  169DOPC  H12Y20603   0.638   1.054   5.947  0.1055 -0.9858  1.8443
  169DOPC  C31320604   0.783   1.073   6.092 -0.3076 -0.2336  0.8804
  169DOPC  H13X20605   0.893   1.075   6.107 -0.2745  1.3026  0.6439
  169DOPC  H13Y20606   0.755   1.178   6.116  0.3256  0.8594 -2.6190
  169DOPC  C31420607   0.721   0.979   6.195 -0.6601  0.2693  0.8178
  169DOPC  H14X20608   0.612   0.991   6.181 -0.8605 -0.1981  1.8995
  169DOPC  H14Y20609   0.750   0.873   6.175  1.6034  0.8501  0.7639
  169DOPC  C31520610   0.749   1.002   6.344 -0.0389  0.4577 -0.0488
  169DOPC  H15X20611   0.766   1.109   6.367  3.4485  0.1334 -0.5635
  169DOPC  H15Y20612   0.845   0.958   6.379 -1.0325 -0.1499  2.0786
  169DOPC  C31620613   0.625   0.951   6.424 -0.3250 -0.2243 -0.0747
  169DOPC  H16X20614   0.540   1.007   6.380  0.2028  1.1398  0.5979
  169DOPC  H16Y20615   0.606   0.843   6.402  0.4966 -0.9001  2.2619
  169DOPC  C31720616   0.636   0.983   6.574  0.7203 -0.2270  0.2389
  169DOPC  H17X20617   0.651   1.093   6.570  0.8895 -0.2597 -0.0705
  169DOPC  H17Y20618   0.535   0.958   6.612  0.6318  0.3575  0.3922
  169DOPC  C31820619   0.731   0.903   6.654 -0.5727  0.6379 -1.0086
  169DOPC  H18X20620   0.838   0.923   6.632 -0.5754 -0.4412 -2.1092
  169DOPC  H18Y20621   0.710   0.909   6.763 -1.2863  1.4729 -1.1868
  169DOPC  H18Z20622   0.714   0.794   6.635 -1.9273  0.8195 -0.9441
  170DOPC     N20623   6.778   0.299   7.694  0.3983 -0.5347 -0.4220
  170DOPC   C1220624   6.823   0.272   7.553 -0.3611 -0.1034  0.0862
  170DOPC  H12A20625   6.828   0.165   7.537  1.6810 -0.2860  1.5312
  170DOPC  H12B20626   6.926   0.303   7.546 -0.2287  0.2180  2.4093
  170DOPC   C1320627   6.877   0.237   7.788 -0.7268  0.1869 -0.4204
  170DOPC  H13A20628   6.836   0.227   7.887 -1.1268  0.9327 -0.5046
  170DOPC  H13B20629   6.911   0.139   7.759 -0.3203 -0.7530  2.8318
  170DOPC  H13C20630   6.961   0.305   7.796 -1.3525  0.8860  0.3028
  170DOPC   C1420631   6.648   0.228   7.721 -0.2429 -0.3066  0.8644
  170DOPC  H14A20632   6.678   0.126   7.740 -0.4453 -0.6061 -0.3808
  170DOPC  H14B20633   6.601   0.271   7.808  0.8972  1.1334  0.8066
  170DOPC  H14C20634   6.575   0.219   7.643  1.2110 -0.0978 -0.5666
  170DOPC   C1520635   6.767   0.446   7.712  0.1037  0.1403 -0.9479
  170DOPC  H15A20636   6.853   0.499   7.674  1.3266 -0.8277  0.4080
  170DOPC  H15B20637   6.760   0.459   7.818 -0.8400 -1.3601 -0.7802
  170DOPC  H15C20638   6.678   0.489   7.666 -0.4431 -0.4748 -0.4887
  170DOPC   C1120639   6.749   0.337   7.427  0.2114  0.0793 -1.1917
  170DOPC  H11A20640   6.797   0.300   7.334 -0.7335 -3.0863 -0.5272
  170DOPC  H11B20641   6.647   0.294   7.434  0.5530 -0.4841  0.8142
  170DOPC     P20642   6.642   0.576   7.406 -0.3160  0.2020 -0.3178
  170DOPC   O1320643   6.635   0.670   7.518  0.4613  0.0858  0.5738
  170DOPC   O1420644   6.521   0.496   7.368 -0.7285  0.5097 -0.0511
  170DOPC   O1220645   6.763   0.480   7.420  0.0131  1.0929  0.4256
  170DOPC   O1120646   6.691   0.653   7.279  0.0257 -0.1863  0.3921
  170DOPC    C120647   6.774   0.606   7.174 -0.3779  0.1582 -0.2127
  170DOPC    HA20648   6.812   0.503   7.190  1.3522  0.8299  0.1949
  170DOPC    HB20649   6.865   0.669   7.175  0.5566 -1.1397 -1.4624
  170DOPC    C220650   6.719   0.638   7.033  0.7072 -0.0593 -0.2667
  170DOPC    HS20651   6.650   0.724   7.050  0.0800 -0.2695 -1.6251
  170DOPC   O2120652   6.626   0.536   6.995  0.2183 -0.2310 -0.1868
  170DOPC   C2120653   6.656   0.422   6.940 -0.0987 -0.0798 -0.0243
  170DOPC   O2220654   6.761   0.367   6.956 -0.9685  0.2775  0.2557
  170DOPC   C2220655   6.535   0.379   6.864 -1.4014  0.4340  0.5860
  170DOPC   H2R20656   6.515   0.458   6.789  2.6593  1.4941  0.3657
  170DOPC   H2S20657   6.439   0.374   6.920 -1.8582 -1.0299 -0.2675
  170DOPC    C320658   6.820   0.671   6.928 -0.7900 -0.4263 -0.0249
  170DOPC    HX20659   6.903   0.596   6.929 -1.6752 -1.4630 -0.9959
  170DOPC    HY20660   6.863   0.770   6.954 -4.0923  1.6999 -2.0335
  170DOPC   O3120661   6.767   0.667   6.791  0.2994 -0.0935 -0.0781
  170DOPC   C3120662   6.749   0.788   6.741  0.2826  0.1644  0.7644
  170DOPC   O3220663   6.750   0.895   6.797  0.4656  0.1600  0.2153
  170DOPC   C3220664   6.714   0.760   6.591 -0.3322  0.1049  0.8713
  170DOPC   H2X20665   6.799   0.716   6.535 -0.7160  0.1598  0.2352
  170DOPC   H2Y20666   6.624   0.695   6.586 -1.6419  1.8158  0.9370
  170DOPC   C2320667   6.559   0.240   6.795 -0.0132  0.7380  0.3165
  170DOPC   H3R20668   6.597   0.171   6.873  1.5615  0.4221 -0.6902
  170DOPC   H3S20669   6.639   0.243   6.718 -0.7087 -2.2624 -0.6429
  170DOPC   C2420670   6.429   0.191   6.736  0.0403  0.7140 -0.1700
  170DOPC   H4R20671   6.411   0.249   6.643 -0.7297  1.2772  0.3204
  170DOPC   H4S20672   6.341   0.191   6.804 -0.9619  0.5427 -1.4276
  170DOPC   C2520673   6.431   0.051   6.689  0.7611  0.2386 -0.2470
  170DOPC   H5R20674   6.470  -0.017   6.767 -2.8513 -1.1138  0.6036
  170DOPC   H5S20675   6.506   0.031   6.609  0.9429 -0.6263  0.1256
  170DOPC   C2620676   6.295  -0.022   6.652 -0.1630 -0.2653  0.2521
  170DOPC   H6R20677   6.231  -0.027   6.743 -0.9305  2.0096 -0.0933
  170DOPC   H6S20678   6.325  -0.127   6.632 -1.1470 -0.5140  0.0133
  170DOPC   C2720679   6.219   0.039   6.530  0.0583 -0.3684  0.6004
  170DOPC   H7R20680   6.176   0.139   6.550  1.5581  0.9731 -2.2618
  170DOPC   H7S20681   6.134  -0.029   6.507  0.1404  0.4232 -2.6435
  170DOPC   C2820682   6.312   0.067   6.408 -0.6433 -0.4475  0.2585
  170DOPC   H8R20683   6.398   0.130   6.438  0.2442 -1.8759  0.8143
  170DOPC   H8S20684   6.257   0.124   6.329 -1.3105 -1.4354 -0.0056
  170DOPC   C2920685   6.364  -0.062   6.360  0.2146  0.5410 -0.5930
  170DOPC   H9R20686   6.428  -0.115   6.432  1.0848  0.1126 -1.6458
  170DOPC  C21020687   6.339  -0.128   6.243  0.3058  0.0581  0.6550
  170DOPC  H10R20688   6.391  -0.224   6.229 -0.2616  0.1704 -3.1927
  170DOPC  C21120689   6.248  -0.071   6.135  0.6946 -0.1019  0.1995
  170DOPC  H11R20690   6.299   0.008   6.075  0.3500 -0.0497 -0.0298
  170DOPC  H11S20691   6.156  -0.021   6.170  0.8723  1.3595 -1.2847
  170DOPC  C21220692   6.194  -0.190   6.046  0.4009  0.2539 -0.1251
  170DOPC  H12R20693   6.124  -0.259   6.097 -1.6383 -0.1599 -3.2371
  170DOPC  H12S20694   6.282  -0.249   6.011  1.7505  1.7179  0.6606
  170DOPC  C21320695   6.127  -0.133   5.915 -0.4626  0.5881 -0.4530
  170DOPC  H13R20696   6.205  -0.073   5.861  1.5636 -0.4563  1.1615
  170DOPC  H13S20697   6.047  -0.061   5.942  0.2717  1.9846 -1.7870
  170DOPC  C21420698   6.084  -0.240   5.804 -0.2847  0.1215 -0.4031
  170DOPC  H14R20699   5.998  -0.300   5.841  0.1858 -0.6449 -0.5457
  170DOPC  H14S20700   6.157  -0.311   5.762  0.2424  0.4956 -0.1361
  170DOPC  C21520701   6.031  -0.165   5.685 -0.2111  0.4547  0.0171
  170DOPC  H15R20702   6.113  -0.121   5.624 -0.1466  1.7065  0.9714
  170DOPC  H15S20703   5.967  -0.086   5.730  0.2097 -0.7129  2.9241
  170DOPC  C21620704   5.951  -0.247   5.579 -0.5836 -0.2747  0.2295
  170DOPC  H16R20705   5.869  -0.313   5.615 -0.9642 -0.0137 -0.1531
  170DOPC  H16S20706   6.024  -0.322   5.542 -0.2411  0.4963 -0.6901
  170DOPC  C21720707   5.887  -0.166   5.465  0.1692 -0.5515  0.1352
  170DOPC  H17R20708   5.934  -0.066   5.452 -3.0220  1.1070  0.4319
  170DOPC  H17S20709   5.783  -0.149   5.502  0.3896 -2.0941  1.6284
  170DOPC  C21820710   5.873  -0.235   5.326 -0.5833 -0.0069  0.1122
  170DOPC  H18R20711   5.807  -0.324   5.337 -0.0731 -0.2797  1.1061
  170DOPC  H18S20712   5.969  -0.257   5.275  0.7587 -1.1524  2.9225
  170DOPC  H18T20713   5.818  -0.162   5.261  0.5089 -0.3765 -1.2711
  170DOPC   C3320714   6.665   0.887   6.513 -0.8120 -0.3462 -0.1968
  170DOPC   H3X20715   6.722   0.981   6.534 -1.0175 -0.0840 -0.7863
  170DOPC   H3Y20716   6.560   0.909   6.540  0.1140  2.6022  1.5872
  170DOPC   C3420717   6.689   0.869   6.359 -0.4719 -0.3455  0.4638
  170DOPC   H4X20718   6.633   0.782   6.319 -1.5127  0.9906 -1.1275
  170DOPC   H4Y20719   6.797   0.857   6.339 -0.7543 -1.1104 -0.7230
  170DOPC   C3520720   6.638   0.982   6.270  0.0966 -0.4668 -0.5962
  170DOPC   H5X20721   6.684   1.080   6.296  0.2159 -0.4196 -0.9786
  170DOPC   H5Y20722   6.529   0.994   6.286  0.3423  1.3425 -0.1079
  170DOPC   C3620723   6.657   0.967   6.117  0.2396  0.1881  0.3470
  170DOPC   H6X20724   6.766   0.964   6.097  1.1516  5.5340  2.5186
  170DOPC   H6Y20725   6.604   0.877   6.080 -0.6459  1.0791 -0.5920
  170DOPC   C3720726   6.597   1.076   6.029  0.3750  0.5467  0.1307
  170DOPC   H7X20727   6.489   1.085   6.052  0.6186 -0.2307  1.6643
  170DOPC   H7Y20728   6.642   1.176   6.048 -0.0167  0.7023  0.2422
  170DOPC   C3820729   6.618   1.051   5.877  0.1368 -0.3873 -0.6380
  170DOPC   H8X20730   6.560   1.131   5.826  0.4530  0.9858  1.0751
  170DOPC   H8Y20731   6.578   0.950   5.853  0.2135 -0.1960 -1.6203
  170DOPC   C3920732   6.762   1.045   5.835 -0.9925 -0.5362 -0.1868
  170DOPC   H9X20733   6.821   0.968   5.887 -1.9367 -1.1698 -0.0313
  170DOPC  C31020734   6.821   1.125   5.744  0.5505 -0.1339  0.9029
  170DOPC  H10X20735   6.929   1.111   5.726  0.1161 -0.9602 -1.5379
  170DOPC  C31120736   6.767   1.256   5.691 -0.0689 -0.3594 -0.2471
  170DOPC  H11X20737   6.658   1.265   5.705 -0.0665  2.0979 -1.1963
  170DOPC  H11Y20738   6.791   1.255   5.582 -1.7076  1.8468 -0.7021
  170DOPC  C31220739   6.831   1.386   5.748 -0.0190  0.2569  0.4409
  170DOPC  H12X20740   6.939   1.372   5.765 -0.0749  0.0434  0.6231
  170DOPC  H12Y20741   6.784   1.406   5.847 -1.6909  2.3127 -0.6713
  170DOPC  C31320742   6.807   1.518   5.665  0.3046  0.0153  0.5480
  170DOPC  H13X20743   6.854   1.521   5.565 -0.9258 -1.4716 -0.1067
  170DOPC  H13Y20744   6.698   1.513   5.645 -0.1811 -1.3062  3.0724
  170DOPC  C31420745   6.831   1.649   5.742 -0.4090 -0.0779  0.5508
  170DOPC  H14X20746   6.779   1.652   5.839 -0.1508  1.5146  0.6723
  170DOPC  H14Y20747   6.942   1.657   5.751 -0.2353  2.4077 -2.1080
  170DOPC  C31520748   6.788   1.772   5.662  0.3542 -0.3881 -0.2996
  170DOPC  H15X20749   6.760   1.856   5.730 -0.3820 -1.4218  0.7174
  170DOPC  H15Y20750   6.703   1.748   5.596  1.2214  0.9520 -2.0052
  170DOPC  C31620751   6.893   1.821   5.562 -0.5063 -0.3061  0.0964
  170DOPC  H16X20752   6.977   1.867   5.618 -0.6573  0.2945 -0.1665
  170DOPC  H16Y20753   6.931   1.737   5.500  0.9491  1.4441 -1.5054
  170DOPC  C31720754   6.830   1.926   5.465  0.0030 -0.2051  0.7469
  170DOPC  H17X20755   6.904   1.941   5.384  1.3290  2.5835  2.3676
  170DOPC  H17Y20756   6.741   1.879   5.417  0.0721  0.4822 -0.0807
  170DOPC  C31820757   6.794   2.057   5.530  0.2758  0.5468 -0.0886
  170DOPC  H18X20758   6.714   2.106   5.470  0.3801 -0.7720 -1.3810
  170DOPC  H18Y20759   6.747   2.034   5.628  1.4450  3.3010  1.1965
  170DOPC  H18Z20760   6.877   2.126   5.555  0.2808  0.1113  1.1914
  171DOPC     N20761   3.737   4.462   2.551 -0.2958 -0.2331  0.6608
  171DOPC   C1220762   3.730   4.522   2.695  0.3236  0.5294 -0.0098
  171DOPC  H12A20763   3.710   4.628   2.689 -1.9224  0.2602  1.3103
  171DOPC  H12B20764   3.826   4.509   2.743  0.2727  1.6347  0.4256
  171DOPC   C1320765   3.796   4.324   2.560 -0.1096 -0.5302  0.1368
  171DOPC  H13A20766   3.888   4.336   2.615 -0.7051  2.0914  0.7124
  171DOPC  H13B20767   3.736   4.269   2.632  2.2119  0.9595  3.4491
  171DOPC  H13C20768   3.799   4.268   2.468  0.1702 -1.4392  0.6855
  171DOPC   C1420769   3.829   4.541   2.466  0.3944  0.2859 -0.7031
  171DOPC  H14A20770   3.926   4.529   2.513 -0.1237 -0.5827  0.1634
  171DOPC  H14B20771   3.841   4.499   2.367  1.4274  0.1351 -0.5273
  171DOPC  H14C20772   3.797   4.644   2.471 -0.1851  0.0517  1.9891
  171DOPC   C1520773   3.608   4.451   2.489 -0.4261  0.5690 -0.1619
  171DOPC  H15A20774   3.555   4.365   2.528  2.3666 -1.2246 -0.0338
  171DOPC  H15B20775   3.614   4.428   2.384 -1.1207  0.1505 -0.1153
  171DOPC  H15C20776   3.549   4.540   2.504  0.4834  1.6451 -2.5257
  171DOPC   C1120777   3.631   4.453   2.793  0.4506 -0.7703  0.2627
  171DOPC  H11A20778   3.619   4.523   2.877  0.6547 -0.8051  0.3230
  171DOPC  H11B20779   3.532   4.436   2.745 -0.3839  2.4403  0.6185
  171DOPC     P20780   3.768   4.292   2.942 -0.2840 -0.1461  0.0981
  171DOPC   O1320781   3.904   4.348   2.929 -0.3496  0.0204 -1.0416
  171DOPC   O1420782   3.755   4.147   2.962  0.3191 -0.2062 -0.5443
  171DOPC   O1220783   3.689   4.324   2.820  0.2451 -0.1782  0.1060
  171DOPC   O1120784   3.697   4.367   3.065 -0.5043 -0.5488  0.4991
  171DOPC    C120785   3.762   4.383   3.192  0.1181  0.0797 -0.3124
  171DOPC    HA20786   3.723   4.472   3.245  3.2341  0.4084  1.7272
  171DOPC    HB20787   3.872   4.392   3.173  0.6620 -0.4726  2.2197
  171DOPC    C220788   3.740   4.260   3.294  0.6655  0.3188 -0.4954
  171DOPC    HS20789   3.778   4.172   3.237 -0.1999 -0.7688  0.5417
  171DOPC   O2120790   3.596   4.247   3.323 -0.3062  0.2889  0.2888
  171DOPC   C2120791   3.567   4.123   3.356 -0.3496  0.4283  0.1214
  171DOPC   O2220792   3.645   4.027   3.356  0.2991 -0.3817 -0.1131
  171DOPC   C2220793   3.425   4.121   3.403 -0.7003  0.0253 -1.0174
  171DOPC   H2R20794   3.362   4.102   3.314 -1.4014  1.4937 -0.8627
  171DOPC   H2S20795   3.394   4.218   3.447 -0.7028 -1.0694  1.5691
  171DOPC    C320796   3.824   4.272   3.424  0.4371 -0.8727 -1.2093
  171DOPC    HX20797   3.832   4.169   3.465 -1.1249 -0.9850 -1.1228
  171DOPC    HY20798   3.769   4.333   3.499 -0.2094 -1.4978 -1.1604
  171DOPC   O3120799   3.951   4.331   3.402 -0.4267  0.0188 -0.4436
  171DOPC   C3120800   4.042   4.245   3.361 -0.4489  0.9981 -0.3255
  171DOPC   O3220801   4.026   4.129   3.338  0.0081  0.2521 -0.0165
  171DOPC   C3220802   4.169   4.321   3.330 -0.4016  0.3454  0.2765
  171DOPC   H2X20803   4.149   4.383   3.240  0.5085 -0.4755 -0.5062
  171DOPC   H2Y20804   4.197   4.377   3.422 -2.8316  0.0812  1.2700
  171DOPC   C2320805   3.406   4.015   3.514 -0.5355  1.2930  0.5609
  171DOPC   H3R20806   3.474   3.928   3.508 -0.8147  1.0250  1.1876
  171DOPC   H3S20807   3.309   3.964   3.494  1.4424 -2.4645 -0.6101
  171DOPC   C2420808   3.403   4.077   3.653  0.4240  0.0404 -0.0764
  171DOPC   H4R20809   3.369   4.003   3.728  0.6619 -2.6915 -2.5089
  171DOPC   H4S20810   3.316   4.146   3.651 -0.7339 -1.3139  1.4244
  171DOPC   C2520811   3.534   4.137   3.696  0.3332 -0.3771 -0.2662
  171DOPC   H5R20812   3.572   4.206   3.618  0.0777 -1.5554 -1.4755
  171DOPC   H5S20813   3.610   4.059   3.715  0.3539  0.0182  1.3941
  171DOPC   C2620814   3.498   4.204   3.833  0.0708 -0.3386 -0.3800
  171DOPC   H6R20815   3.446   4.131   3.899 -0.0043  1.0486  1.1814
  171DOPC   H6S20816   3.424   4.286   3.815 -0.7928 -0.9564  0.2297
  171DOPC   C2720817   3.614   4.261   3.914  0.2965 -0.2296  0.0228
  171DOPC   H7R20818   3.562   4.334   3.980 -1.1339 -1.0228 -0.1922
  171DOPC   H7S20819   3.682   4.303   3.837 -1.1801 -0.8416 -1.6732
  171DOPC   C2820820   3.693   4.152   3.995 -0.1866  0.2294  0.2810
  171DOPC   H8R20821   3.786   4.204   4.027 -2.7356  4.8249  1.2592
  171DOPC   H8S20822   3.731   4.071   3.930  0.6385  0.8588 -0.0453
  171DOPC   C2920823   3.606   4.091   4.104 -0.5562  0.2775 -0.1988
  171DOPC   H9R20824   3.506   4.056   4.074 -0.4673  0.9398 -1.3552
  171DOPC  C21020825   3.639   4.099   4.233  0.1591 -0.0435  0.5618
  171DOPC  H10R20826   3.577   4.059   4.315  0.1596 -2.3192 -0.4541
  171DOPC  C21120827   3.764   4.154   4.295  0.1089  0.2188  0.0318
  171DOPC  H11R20828   3.847   4.130   4.225 -1.4904  1.6594 -2.5423
  171DOPC  H11S20829   3.780   4.098   4.389 -0.3871  0.2501  0.1396
  171DOPC  C21220830   3.766   4.308   4.325 -0.7315  0.0659 -0.7779
  171DOPC  H12R20831   3.743   4.351   4.226 -1.3489  0.0448 -0.6517
  171DOPC  H12S20832   3.864   4.347   4.360 -0.7538 -1.7998  1.6747
  171DOPC  C21320833   3.649   4.355   4.417 -0.2187  0.5331 -0.3974
  171DOPC  H13R20834   3.550   4.336   4.371 -0.4277  0.0165  0.2604
  171DOPC  H13S20835   3.674   4.456   4.455 -1.3249  0.1053  1.5655
  171DOPC  C21420836   3.642   4.278   4.552 -0.5094  0.0100  0.8960
  171DOPC  H14R20837   3.742   4.242   4.583 -0.3354 -0.0119  0.3183
  171DOPC  H14S20838   3.576   4.189   4.543  0.4725 -0.7630  1.1467
  171DOPC  C21520839   3.573   4.360   4.668 -0.0283 -0.3815 -0.8498
  171DOPC  H15R20840   3.484   4.415   4.632 -0.4422 -0.2758  0.3153
  171DOPC  H15S20841   3.645   4.441   4.694  0.1317 -0.6895 -0.3169
  171DOPC  C21620842   3.536   4.273   4.789 -0.3393 -0.5382  0.2359
  171DOPC  H16R20843   3.629   4.230   4.834  1.8368  0.8438 -2.6228
  171DOPC  H16S20844   3.467   4.190   4.765 -0.5038 -0.2623 -0.2417
  171DOPC  C21720845   3.456   4.334   4.907 -0.2629 -0.4630 -0.2453
  171DOPC  H17R20846   3.450   4.255   4.985 -0.9124 -0.9461 -0.7640
  171DOPC  H17S20847   3.350   4.366   4.892 -0.5268 -0.6380  1.1319
  171DOPC  C21820848   3.526   4.454   4.968  0.1304 -0.3204  0.4864
  171DOPC  H18R20849   3.618   4.422   5.022 -1.7103 -2.5772  2.5354
  171DOPC  H18S20850   3.471   4.501   5.052  1.0259  0.0158  0.8996
  171DOPC  H18T20851   3.555   4.537   4.900 -0.2665 -0.5046  0.0907
  171DOPC   C3320852   4.286   4.231   3.297  0.0937  0.8663 -0.4841
  171DOPC   H3X20853   4.324   4.272   3.201  0.7335  1.7845  0.1432
  171DOPC   H3Y20854   4.259   4.125   3.281  3.3987  0.0846 -1.5972
  171DOPC   C3420855   4.400   4.227   3.402 -0.4125 -0.1602  0.2786
  171DOPC   H4X20856   4.410   4.324   3.456  1.0590  1.3365 -2.4888
  171DOPC   H4Y20857   4.495   4.202   3.351 -0.4587 -2.2511  1.1254
  171DOPC   C3520858   4.389   4.123   3.512  1.2708 -0.2710 -0.1979
  171DOPC   H5X20859   4.390   4.022   3.467  0.5278 -0.7157  0.7668
  171DOPC   H5Y20860   4.288   4.135   3.556  0.0768 -1.8447 -2.3138
  171DOPC   C3620861   4.493   4.124   3.625  0.2329 -0.8030 -0.3114
  171DOPC   H6X20862   4.596   4.102   3.590  0.5797 -2.6642  1.7144
  171DOPC   H6Y20863   4.492   4.225   3.671 -2.4475  0.0812 -2.0184
  171DOPC   C3720864   4.452   4.011   3.722  0.2629 -0.8372 -0.0547
  171DOPC   H7X20865   4.359   4.051   3.768  1.5031  0.9949  1.0236
  171DOPC   H7Y20866   4.412   3.919   3.675 -1.3558 -0.2440  0.1089
  171DOPC   C3820867   4.540   3.976   3.847  0.6857  0.4460  0.4001
  171DOPC   H8X20868   4.626   3.925   3.798  1.6776  0.4180  2.0862
  171DOPC   H8Y20869   4.492   3.895   3.907  0.5215  1.8398  2.2405
  171DOPC   C3920870   4.591   4.091   3.931  1.3931 -0.7431 -0.1291
  171DOPC   H9X20871   4.662   4.163   3.889 -1.0009  0.8521 -1.6990
  171DOPC  C31020872   4.561   4.123   4.062  0.6040 -0.6063  0.3251
  171DOPC  H10X20873   4.631   4.188   4.116 -0.9176  1.7537 -0.3721
  171DOPC  C31120874   4.462   4.052   4.150 -0.2313  0.2400 -0.1565
  171DOPC  H11X20875   4.411   3.972   4.091  1.9330 -0.9296 -0.5594
  171DOPC  H11Y20876   4.393   4.131   4.184  0.2249  0.6962 -0.2862
  171DOPC  C31220877   4.537   3.990   4.270  0.1685 -0.6709 -0.1023
  171DOPC  H12X20878   4.634   3.942   4.243  0.5183 -0.5732  0.9362
  171DOPC  H12Y20879   4.471   3.913   4.314 -0.2225 -0.2032  0.1322
  171DOPC  C31320880   4.580   4.095   4.380  0.0942  0.3691  0.8145
  171DOPC  H13X20881   4.652   4.170   4.339 -0.6885  0.2371 -0.8782
  171DOPC  H13Y20882   4.490   4.149   4.415 -1.3144 -0.7889 -0.8748
  171DOPC  C31420883   4.635   4.018   4.501 -0.2063  0.5956 -0.0829
  171DOPC  H14X20884   4.551   3.948   4.523  0.9320 -1.3254 -1.5598
  171DOPC  H14Y20885   4.726   3.960   4.475 -0.8088  0.7344 -2.8671
  171DOPC  C31520886   4.668   4.113   4.604 -0.5462 -0.2449 -0.5891
  171DOPC  H15X20887   4.577   4.135   4.663  0.0279 -2.1493  1.1462
  171DOPC  H15Y20888   4.693   4.214   4.566  1.7752  0.0267  1.4036
  171DOPC  C31620889   4.778   4.063   4.705 -0.7402 -0.1793  0.5166
  171DOPC  H16X20890   4.738   3.980   4.767 -0.2315 -3.1362 -2.8116
  171DOPC  H16Y20891   4.869   4.019   4.658 -0.2312  1.5163 -0.1625
  171DOPC  C31720892   4.824   4.177   4.801 -0.3091  0.7330 -0.0585
  171DOPC  H17X20893   4.863   4.258   4.735  2.9839 -0.4260  0.2540
  171DOPC  H17Y20894   4.740   4.222   4.858 -1.2480 -0.3940 -0.5140
  171DOPC  C31820895   4.937   4.125   4.890  0.3513 -0.1559  0.2668
  171DOPC  H18X20896   4.999   4.206   4.935  3.0361 -1.7566 -0.3112
  171DOPC  H18Y20897   4.895   4.079   4.981  2.1418  0.0750  1.2485
  171DOPC  H18Z20898   5.004   4.065   4.824 -1.6108 -0.0762 -1.9507
  172DOPC     N20899   4.307   6.031   2.339 -0.3376 -0.1251 -0.6225
  172DOPC   C1220900   4.354   6.069   2.475  0.6268 -0.1666 -0.0990
  172DOPC  H12A20901   4.267   6.084   2.537  0.2406  1.8805 -1.0720
  172DOPC  H12B20902   4.404   6.164   2.478 -3.0766  2.0122 -1.0763
  172DOPC   C1320903   4.236   6.152   2.286  0.1429 -0.1239  0.9733
  172DOPC  H13A20904   4.219   6.155   2.179 -0.1150  0.0994  1.0197
  172DOPC  H13B20905   4.136   6.161   2.325 -0.2455 -1.2304  0.2778
  172DOPC  H13C20906   4.294   6.241   2.306 -1.7962  1.3823  0.2568
  172DOPC   C1420907   4.212   5.916   2.336  0.0180 -0.3244 -0.4066
  172DOPC  H14A20908   4.123   5.916   2.398  0.2654 -3.3061  0.1032
  172DOPC  H14B20909   4.169   5.907   2.238  0.0730 -2.2075 -0.3012
  172DOPC  H14C20910   4.257   5.825   2.375 -0.1870 -0.5028 -0.5826
  172DOPC   C1520911   4.431   6.002   2.256 -0.1671  0.2641  0.0109
  172DOPC  H15A20912   4.415   5.989   2.150  1.5369  0.6990 -0.3273
  172DOPC  H15B20913   4.474   5.912   2.298 -0.9418 -0.1455 -0.0629
  172DOPC  H15C20914   4.499   6.084   2.273 -0.8130  0.8063  0.0180
  172DOPC   C1120915   4.444   5.967   2.554  0.3035 -0.9128 -0.0971
  172DOPC  H11A20916   4.533   5.959   2.488  0.6679  0.5979  0.1661
  172DOPC  H11B20917   4.459   6.029   2.644 -1.0745 -0.3550 -0.2143
  172DOPC     P20918   4.417   5.704   2.575  0.0583 -0.0361  0.1503
  172DOPC   O1320919   4.560   5.694   2.543  0.8071 -0.4760  0.1324
  172DOPC   O1420920   4.315   5.633   2.494  0.0110 -0.5105 -0.3195
  172DOPC   O1220921   4.373   5.851   2.584  0.3071  0.2553  0.3672
  172DOPC   O1120922   4.397   5.661   2.729  0.1727 -0.1852  0.3640
  172DOPC    C120923   4.457   5.748   2.827 -0.5868  0.4481  0.1904
  172DOPC    HA20924   4.450   5.855   2.798 -2.4195  0.2848 -0.1207
  172DOPC    HB20925   4.565   5.725   2.837 -0.8008 -1.9805 -1.9569
  172DOPC    C220926   4.392   5.742   2.964 -0.0395  0.0165 -0.2676
  172DOPC    HS20927   4.452   5.800   3.036 -2.4115  0.5676  1.4035
  172DOPC   O2120928   4.351   5.608   3.002  0.7543 -0.6592  0.6701
  172DOPC   C2120929   4.447   5.531   3.058 -0.1953  0.3694  0.1409
  172DOPC   O2220930   4.560   5.566   3.075 -0.0804  0.4449 -0.2822
  172DOPC   C2220931   4.390   5.389   3.091 -0.0567  0.2329  0.4078
  172DOPC   H2R20932   4.447   5.316   3.029  1.5206 -1.6137  3.7345
  172DOPC   H2S20933   4.282   5.388   3.063 -0.4764 -1.5707  1.9131
  172DOPC    C320934   4.257   5.828   2.948 -0.0139 -0.0068  0.4772
  172DOPC    HX20935   4.204   5.785   2.860 -0.8497  1.3285  0.2945
  172DOPC    HY20936   4.286   5.935   2.940 -0.7909  0.4821  3.1298
  172DOPC   O3120937   4.179   5.808   3.069 -0.2018  0.7620 -0.0040
  172DOPC   C3120938   4.053   5.822   3.062 -0.4810 -0.4631 -0.0159
  172DOPC   O3220939   3.991   5.876   2.971  0.2771  0.3792 -0.0300
  172DOPC   C3220940   3.990   5.770   3.190  0.2433 -0.4914  0.0261
  172DOPC   H2X20941   3.998   5.851   3.265 -1.2351 -1.3074  1.1291
  172DOPC   H2Y20942   3.882   5.757   3.170  0.1633 -0.9733  0.7108
  172DOPC   C2320943   4.398   5.335   3.233  0.2178 -0.8602 -1.0121
  172DOPC   H3R20944   4.363   5.413   3.305 -0.2190 -1.3385 -0.7024
  172DOPC   H3S20945   4.506   5.319   3.254 -0.2212 -1.4044  1.1732
  172DOPC   C2420946   4.331   5.195   3.251 -0.1773  0.1223  0.2641
  172DOPC   H4R20947   4.385   5.120   3.189 -0.6710 -0.4915  0.5555
  172DOPC   H4S20948   4.230   5.202   3.205 -1.7480 -0.5313  3.3465
  172DOPC   C2520949   4.317   5.165   3.397 -0.1005 -0.1705  0.5889
  172DOPC   H5R20950   4.266   5.250   3.447 -0.7208 -0.3848  0.3299
  172DOPC   H5S20951   4.421   5.152   3.436 -0.0637 -0.1614  0.4921
  172DOPC   C2620952   4.253   5.027   3.432  0.4473 -0.4165 -0.4068
  172DOPC   H6R20953   4.324   4.943   3.416  1.8022  0.6610 -0.2369
  172DOPC   H6S20954   4.168   5.006   3.363 -1.0865 -1.1826  1.6285
  172DOPC   C2720955   4.180   5.030   3.569 -0.0203 -0.6552  0.1427
  172DOPC   H7R20956   4.152   4.927   3.601 -0.1622 -0.9761 -0.9594
  172DOPC   H7S20957   4.091   5.096   3.574  1.3614  1.3717 -0.6680
  172DOPC   C2820958   4.271   5.069   3.691  0.7526  0.0102  0.1766
  172DOPC   H8R20959   4.330   5.161   3.670  1.2742 -0.4491 -0.4022
  172DOPC   H8S20960   4.351   4.994   3.710 -0.6066 -1.8113 -0.9860
  172DOPC   C2920961   4.188   5.107   3.803 -0.6262  0.3094 -0.3865
  172DOPC   H9R20962   4.167   5.215   3.796  3.4215  1.1092 -2.6511
  172DOPC  C21020963   4.159   5.041   3.919 -0.6598 -0.2131  0.4671
  172DOPC  H10R20964   4.087   5.078   3.994 -2.4562 -0.9470 -0.8188
  172DOPC  C21120965   4.215   4.906   3.948  0.0352  0.0972  0.2950
  172DOPC  H11R20966   4.294   4.879   3.874  2.5173  2.4553  1.9029
  172DOPC  H11S20967   4.137   4.828   3.933 -0.1475  0.3548 -0.0876
  172DOPC  C21220968   4.289   4.860   4.078 -0.0513  0.0685 -0.1132
  172DOPC  H12R20969   4.346   4.949   4.114 -0.0092  0.7061 -1.6842
  172DOPC  H12S20970   4.362   4.780   4.054 -0.1463 -0.2776  0.7239
  172DOPC  C21320971   4.188   4.813   4.188 -0.4121 -0.1686 -0.8394
  172DOPC  H13R20972   4.164   4.708   4.163 -0.6460  0.2449 -2.4443
  172DOPC  H13S20973   4.092   4.869   4.194 -0.0613  0.4992 -1.3553
  172DOPC  C21420974   4.267   4.812   4.325 -0.2982 -0.1709 -0.2360
  172DOPC  H14R20975   4.376   4.805   4.309 -0.0606  1.3123  0.5831
  172DOPC  H14S20976   4.228   4.722   4.378 -2.2414  0.3043 -0.7739
  172DOPC  C21520977   4.247   4.947   4.397 -0.1104  0.5907  0.8702
  172DOPC  H15R20978   4.146   4.977   4.363  0.4396 -0.2396 -1.6958
  172DOPC  H15S20979   4.320   5.023   4.360 -0.5605  0.0723 -1.2092
  172DOPC  C21620980   4.249   4.934   4.542  0.1664  0.4507  0.4934
  172DOPC  H16R20981   4.167   4.862   4.560 -1.0167  1.5025 -0.5477
  172DOPC  H16S20982   4.224   5.033   4.585  0.9941  0.3436  1.2541
  172DOPC  C21720983   4.370   4.861   4.604 -0.2888 -0.4043 -0.1649
  172DOPC  H17R20984   4.464   4.918   4.592  0.4213 -1.1410  1.5093
  172DOPC  H17S20985   4.393   4.759   4.566 -2.1480 -1.7155  1.9345
  172DOPC  C21820986   4.347   4.843   4.759 -0.6040  0.4427  0.7330
  172DOPC  H18R20987   4.249   4.794   4.773 -0.4425 -0.2426 -0.3890
  172DOPC  H18S20988   4.345   4.946   4.801  1.1093  0.2895  1.2824
  172DOPC  H18T20989   4.435   4.795   4.806 -0.3964  0.2827  0.1837
  172DOPC   C3320990   4.061   5.641   3.248 -0.0218  0.4065 -0.3414
  172DOPC   H3X20991   4.170   5.658   3.237  0.1907  0.2246  1.2616
  172DOPC   H3Y20992   4.030   5.552   3.189  0.7810  1.2623 -2.1525
  172DOPC   C3420993   4.032   5.631   3.395  0.2466  0.0864  0.2858
  172DOPC   H4X20994   3.922   5.617   3.408  0.1029 -0.9662 -1.7331
  172DOPC   H4Y20995   4.063   5.730   3.436  0.1294  0.3121 -0.1568
  172DOPC   C3520996   4.124   5.528   3.477  0.0671 -0.3843  0.0715
  172DOPC   H5X20997   4.220   5.583   3.485 -0.7103  0.9812  0.3738
  172DOPC   H5Y20998   4.141   5.440   3.412  1.2051  0.2019 -0.4568
  172DOPC   C3620999   4.088   5.482   3.623  0.1063  0.4074 -0.1175
  172DOPC   H6X21000   3.991   5.429   3.615  0.5239 -0.4025  0.0985
  172DOPC   H6Y21001   4.175   5.424   3.658 -0.5891 -0.2669  0.5293
  172DOPC   C3721002   4.069   5.594   3.717 -0.6168 -0.0673 -0.4195
  172DOPC   H7X21003   4.106   5.556   3.814  0.8358 -0.6115 -1.1427
  172DOPC   H7Y21004   4.129   5.683   3.688  1.6249 -1.3510  0.0397
  172DOPC   C3821005   3.924   5.635   3.743  0.5930  0.1217  0.6954
  172DOPC   H8X21006   3.856   5.561   3.792  0.7332 -1.9085 -1.9753
  172DOPC   H8Y21007   3.886   5.657   3.641  3.1035 -1.6167 -0.7306
  172DOPC   C3921008   3.930   5.756   3.833 -0.0479  0.1903  0.1153
  172DOPC   H9X21009   3.978   5.840   3.781 -0.6276  0.2455 -0.3455
  172DOPC  C31021010   3.907   5.763   3.965 -0.6185 -0.2336  0.7639
  172DOPC  H10X21011   3.916   5.864   4.010  1.1682 -0.3149  0.6293
  172DOPC  C31121012   3.875   5.640   4.050 -0.2977 -0.0582  0.2108
  172DOPC  H11X21013   3.967   5.577   4.044 -0.7063 -0.6009 -0.5125
  172DOPC  H11Y21014   3.786   5.591   4.005 -2.4150  3.0449  0.7631
  172DOPC  C31221015   3.849   5.653   4.207  0.4783  0.6340 -0.0638
  172DOPC  H12X21016   3.947   5.671   4.254  0.8347 -1.8231  0.2579
  172DOPC  H12Y21017   3.816   5.559   4.257  1.5254  0.3712  0.1582
  172DOPC  C31321018   3.752   5.772   4.247  0.6222 -0.0511 -0.4830
  172DOPC  H13X21019   3.816   5.854   4.208  2.5596 -1.2169  0.0874
  172DOPC  H13Y21020   3.652   5.768   4.200 -0.1362  0.4256  1.0559
  172DOPC  C31421021   3.733   5.783   4.395  0.0130  0.4918  1.2374
  172DOPC  H14X21022   3.835   5.785   4.440  0.4197 -0.9279  0.4258
  172DOPC  H14Y21023   3.683   5.880   4.415 -0.7850  1.5744 -4.3205
  172DOPC  C31521024   3.652   5.657   4.450  0.3466 -0.7770 -0.0738
  172DOPC  H15X21025   3.728   5.576   4.441 -0.8019 -1.8460 -0.4576
  172DOPC  H15Y21026   3.566   5.639   4.383 -1.4981 -2.8924  2.6165
  172DOPC  C31621027   3.607   5.655   4.591 -0.4354 -0.0315  0.0089
  172DOPC  H16X21028   3.686   5.699   4.655 -1.6916  5.3461 -1.5964
  172DOPC  H16Y21029   3.520   5.719   4.616 -0.4481 -0.6844  1.7974
  172DOPC  C31721030   3.565   5.508   4.633  0.0036  0.4036  0.2690
  172DOPC  H17X21031   3.492   5.469   4.559  0.0670 -1.0093  0.9145
  172DOPC  H17Y21032   3.649   5.435   4.626 -0.5669 -0.3255  0.8196
  172DOPC  C31821033   3.500   5.501   4.770 -0.8779 -0.0171 -0.4247
  172DOPC  H18X21034   3.415   5.561   4.809  0.1118  1.1762 -0.0443
  172DOPC  H18Y21035   3.466   5.399   4.800  0.5303  0.1776  2.1389
  172DOPC  H18Z21036   3.585   5.520   4.839 -1.4020  0.5106  0.0797
  173DOPC     N21037   1.064   3.577   2.166 -0.6961  0.2912  0.2212
  173DOPC   C1221038   0.970   3.685   2.206 -0.5999  0.0124 -0.8979
  173DOPC  H12A21039   0.945   3.745   2.119 -1.2998  0.9505 -0.0845
  173DOPC  H12B21040   1.033   3.757   2.256  0.7023 -1.1512 -0.8237
  173DOPC   C1321041   1.181   3.638   2.099  0.1930  0.3495 -0.1433
  173DOPC  H13A21042   1.255   3.571   2.060 -1.3081 -0.6148 -1.4458
  173DOPC  H13B21043   1.151   3.692   2.011  0.3884  0.1358 -0.3416
  173DOPC  H13C21044   1.240   3.700   2.165  2.3757 -1.1699 -0.5483
  173DOPC   C1421045   1.000   3.484   2.070  0.4068 -0.5835  0.1837
  173DOPC  H14A21046   1.069   3.406   2.039  0.7523 -0.5482  0.8304
  173DOPC  H14B21047   0.914   3.438   2.118  1.9846 -2.3753  1.4933
  173DOPC  H14C21048   0.949   3.536   1.991 -0.2560  0.0844  1.0352
  173DOPC   C1521049   1.118   3.506   2.281 -0.1215 -0.3706 -0.2097
  173DOPC  H15A21050   1.185   3.567   2.340 -1.1623  0.0672  0.5540
  173DOPC  H15B21051   1.175   3.422   2.243 -0.5200 -0.1793 -1.2688
  173DOPC  H15C21052   1.030   3.481   2.339 -0.7445  0.1016 -0.9314
  173DOPC   C1121053   0.848   3.653   2.291 -0.1601  0.7687  0.2141
  173DOPC  H11A21054   0.764   3.725   2.288  0.6117  1.6643 -2.5563
  173DOPC  H11B21055   0.796   3.566   2.246  1.6722 -0.3367  0.1003
  173DOPC     P21056   0.953   3.733   2.520  0.4685  0.0230 -0.1098
  173DOPC   O1321057   0.936   3.864   2.461  0.7139  0.0308 -0.4674
  173DOPC   O1421058   1.098   3.702   2.555 -0.4498  0.4975  0.9238
  173DOPC   O1221059   0.885   3.617   2.428  0.1874 -0.3682 -0.3312
  173DOPC   O1121060   0.870   3.725   2.649  0.7804  0.1087  0.4744
  173DOPC    C121061   0.837   3.597   2.707 -0.6075 -0.5178  0.5136
  173DOPC    HA21062   0.908   3.515   2.682  0.0817 -0.2989  1.6737
  173DOPC    HB21063   0.738   3.562   2.671 -0.3215 -0.9619  0.1349
  173DOPC    C221064   0.821   3.597   2.865  0.3659  0.0971 -0.7795
  173DOPC    HS21065   0.725   3.650   2.882  0.7730  0.6897 -0.2875
  173DOPC   O2121066   0.933   3.659   2.933 -0.0500  0.4098 -0.1238
  173DOPC   C2121067   0.917   3.787   2.960  0.0110  0.2854  0.1693
  173DOPC   O2221068   0.819   3.853   2.944  0.2548  0.0587  0.4024
  173DOPC   C2221069   1.034   3.853   3.035 -0.3398 -0.1439 -0.2777
  173DOPC   H2R21070   0.994   3.953   3.062 -1.4652 -1.0899  1.8472
  173DOPC   H2S21071   1.117   3.878   2.966 -0.0052  0.5586  0.3700
  173DOPC    C321072   0.813   3.448   2.913  0.4822 -0.0311 -0.6286
  173DOPC    HX21073   0.905   3.391   2.887 -0.0802 -0.6700 -1.2618
  173DOPC    HY21074   0.727   3.397   2.866 -0.7690  2.0453 -0.6734
  173DOPC   O3121075   0.794   3.436   3.058  0.0268 -0.3952 -0.0974
  173DOPC   C3121076   0.754   3.317   3.110 -0.0192 -0.3127 -0.2167
  173DOPC   O3221077   0.720   3.217   3.045  0.1155 -0.1548 -0.7609
  173DOPC   C3221078   0.761   3.330   3.264 -0.2213 -0.6629  0.4166
  173DOPC   H2X21079   0.838   3.402   3.300 -1.5652 -0.1297  2.3753
  173DOPC   H2Y21080   0.658   3.353   3.296  0.2236 -0.4225  1.7530
  173DOPC   C2321081   1.080   3.786   3.163  0.0449  0.5022 -0.0386
  173DOPC   H3R21082   0.987   3.777   3.224  0.8517  0.2380  1.1931
  173DOPC   H3S21083   1.141   3.851   3.229  0.9285  0.0427 -0.3806
  173DOPC   C2421084   1.136   3.641   3.155 -1.1676 -0.1041 -0.4386
  173DOPC   H4R21085   1.220   3.639   3.083 -1.2106  0.1219 -0.4934
  173DOPC   H4S21086   1.055   3.579   3.110 -0.6444 -1.2681  0.1608
  173DOPC   C2521087   1.172   3.587   3.296  0.3779  0.4036 -0.0916
  173DOPC   H5R21088   1.078   3.583   3.356  0.2079 -0.9510 -0.4076
  173DOPC   H5S21089   1.242   3.648   3.357  1.6027  0.6475 -1.6801
  173DOPC   C2621090   1.234   3.444   3.285  0.3200  0.0312  0.3214
  173DOPC   H6R21091   1.326   3.454   3.224  1.3240  1.6155  2.0147
  173DOPC   H6S21092   1.158   3.381   3.233  1.5307  0.8033 -2.5789
  173DOPC   C2721093   1.265   3.387   3.419  0.3645  0.3785 -1.1108
  173DOPC   H7R21094   1.306   3.467   3.484 -5.4213  0.8814  2.6279
  173DOPC   H7S21095   1.343   3.309   3.413  1.6585  1.4647  0.5616
  173DOPC   C2821096   1.135   3.333   3.493 -0.8209  0.2262 -0.0014
  173DOPC   H8R21097   1.083   3.256   3.432  1.1001 -3.7158  2.8729
  173DOPC   H8S21098   1.078   3.428   3.488  0.1841  0.8694  0.3551
  173DOPC   C2921099   1.156   3.267   3.622  0.3510  1.0978  0.5989
  173DOPC   H9R21100   1.201   3.166   3.618 -3.6099 -0.7935 -0.5149
  173DOPC  C21021101   1.103   3.311   3.735  0.3831  0.0408 -0.1811
  173DOPC  H10R21102   1.111   3.242   3.821 -0.9372  0.9514  0.7220
  173DOPC  C21121103   1.027   3.439   3.765 -0.0648  0.2997 -0.9672
  173DOPC  H11R21104   0.937   3.414   3.825  2.2540 -2.2164  1.7973
  173DOPC  H11S21105   0.985   3.489   3.676 -2.4916  0.5401  0.2515
  173DOPC  C21221106   1.101   3.557   3.839  0.1178 -0.1971  0.3231
  173DOPC  H12R21107   1.040   3.648   3.857  1.3018  1.2797 -2.5706
  173DOPC  H12S21108   1.185   3.586   3.772 -0.6464  0.4722 -0.3749
  173DOPC  C21321109   1.148   3.504   3.974 -0.3469 -0.0232 -0.5536
  173DOPC  H13R21110   1.178   3.397   3.966 -0.7868 -0.2099  0.2266
  173DOPC  H13S21111   1.062   3.511   4.044 -0.3599  0.3606 -0.6048
  173DOPC  C21421112   1.266   3.581   4.045  0.3535 -0.1930 -0.4226
  173DOPC  H14R21113   1.260   3.563   4.155  0.8100 -4.1870 -0.8908
  173DOPC  H14S21114   1.267   3.688   4.018  1.1890 -0.4173 -1.3072
  173DOPC  C21521115   1.399   3.538   3.990 -0.1499  0.0724  0.3729
  173DOPC  H15R21116   1.412   3.572   3.885 -3.7815 -1.0261 -0.5695
  173DOPC  H15S21117   1.399   3.428   4.001  3.5853 -0.1681 -0.5788
  173DOPC  C21621118   1.515   3.588   4.081  1.0495  0.1873 -0.1002
  173DOPC  H16R21119   1.485   3.574   4.187  1.3155 -2.5517 -0.2942
  173DOPC  H16S21120   1.545   3.693   4.059 -1.2605  0.8128 -0.4632
  173DOPC  C21721121   1.636   3.504   4.051 -0.4558  0.7827 -0.3610
  173DOPC  H17R21122   1.660   3.504   3.942 -3.0541 -2.0872 -1.0816
  173DOPC  H17S21123   1.610   3.398   4.072 -0.4820  1.0224  0.8645
  173DOPC  C21821124   1.770   3.545   4.119 -0.3293  0.0130 -0.4019
  173DOPC  H18R21125   1.754   3.549   4.229  0.1806 -0.5927 -0.2993
  173DOPC  H18S21126   1.813   3.640   4.082 -0.0357  2.3390  5.0277
  173DOPC  H18T21127   1.846   3.466   4.101  1.1245  0.4893  2.9571
  173DOPC   C3321128   0.792   3.190   3.320 -0.3552  0.1583  0.2991
  173DOPC   H3X21129   0.893   3.168   3.279 -1.0400  2.1385 -2.7766
  173DOPC   H3Y21130   0.726   3.112   3.276  0.7474 -0.1909 -0.8120
  173DOPC   C3421131   0.785   3.176   3.479 -0.2549 -0.9221  0.1727
  173DOPC   H4X21132   0.679   3.189   3.509  0.8356  1.9121  3.5013
  173DOPC   H4Y21133   0.841   3.264   3.518  1.3481 -0.2277 -3.2835
  173DOPC   C3521134   0.846   3.040   3.530 -0.3039 -0.3424  0.7290
  173DOPC   H5X21135   0.948   3.040   3.487 -0.7093  1.4350 -0.3654
  173DOPC   H5Y21136   0.779   2.960   3.491 -3.1468  1.3392  1.8114
  173DOPC   C3621137   0.848   3.022   3.679  0.3624 -0.4756  0.0741
  173DOPC   H6X21138   0.889   2.921   3.702  1.3158  0.0929  0.9844
  173DOPC   H6Y21139   0.919   3.091   3.730  2.3187 -1.7207 -0.8294
  173DOPC   C3721140   0.710   3.037   3.744  0.0058  0.0805  0.1053
  173DOPC   H7X21141   0.671   3.138   3.720  0.0697 -0.3749 -2.1746
  173DOPC   H7Y21142   0.639   2.967   3.695  0.9603 -0.2191 -0.8990
  173DOPC   C3821143   0.728   2.992   3.891  0.1707 -0.2752 -0.3044
  173DOPC   H8X21144   0.820   3.044   3.925 -0.6440  0.7088  0.4538
  173DOPC   H8Y21145   0.751   2.885   3.873 -2.1318 -0.7658 -0.6229
  173DOPC   C3921146   0.592   2.996   3.961  0.2209 -0.2786 -0.0307
  173DOPC   H9X21147   0.508   2.978   3.892 -0.0319 -0.2833  0.2795
  173DOPC  C31021148   0.573   3.036   4.085 -0.0397  0.4238 -0.5268
  173DOPC  H10X21149   0.467   3.037   4.116  0.1710  0.5057  0.2185
  173DOPC  C31121150   0.685   3.062   4.190  0.2675  0.4199 -0.3635
  173DOPC  H11X21151   0.775   3.025   4.137  0.3878 -1.2524  0.9147
  173DOPC  H11Y21152   0.681   2.984   4.269 -1.1250 -0.6699 -1.4536
  173DOPC  C31221153   0.705   3.200   4.251  0.2249 -0.6054  0.3072
  173DOPC  H12X21154   0.643   3.222   4.341  0.0194  0.4768 -0.0871
  173DOPC  H12Y21155   0.685   3.277   4.174 -1.9354 -2.2679 -0.9159
  173DOPC  C31321156   0.841   3.218   4.310  0.2992  0.1736  0.1461
  173DOPC  H13X21157   0.842   3.146   4.394 -3.3043 -1.2655 -0.8255
  173DOPC  H13Y21158   0.912   3.189   4.230 -2.2651 -0.4439 -2.0847
  173DOPC  C31421159   0.870   3.361   4.353 -0.1513 -0.0357 -0.5427
  173DOPC  H14X21160   0.867   3.427   4.264 -1.2154  0.8266  0.1135
  173DOPC  H14Y21161   0.796   3.402   4.425  0.6417 -2.0348  1.5476
  173DOPC  C31521162   1.004   3.371   4.425  0.1516 -0.0381  0.0005
  173DOPC  H15X21163   1.060   3.455   4.379  1.0063 -0.4308  0.2822
  173DOPC  H15Y21164   1.057   3.273   4.426 -0.6069 -0.4596 -0.2226
  173DOPC  C31621165   0.996   3.416   4.570  0.7463 -0.9067 -0.7071
  173DOPC  H16X21166   0.935   3.509   4.576  0.5112 -1.1458  3.3146
  173DOPC  H16Y21167   0.929   3.344   4.622  0.8321  0.3089  1.1816
  173DOPC  C31721168   1.128   3.438   4.643 -0.1398  0.6795 -0.7782
  173DOPC  H17X21169   1.193   3.511   4.589  2.7209 -0.3204  1.1158
  173DOPC  H17Y21170   1.096   3.471   4.744  1.1874  0.7414 -0.3552
  173DOPC  C31821171   1.214   3.315   4.663  0.2587 -0.9065  0.4350
  173DOPC  H18X21172   1.230   3.259   4.568 -1.3129 -0.2478 -0.2551
  173DOPC  H18Y21173   1.312   3.340   4.709  0.2868 -1.3164  0.6043
  173DOPC  H18Z21174   1.164   3.246   4.734 -0.6255  0.4723  1.1902
  174DOPC     N21175   6.314   2.467   3.191  0.0153  0.0083 -0.6064
  174DOPC   C1221176   6.381   2.556   3.285  0.5683  1.1954  0.3962
  174DOPC  H12A21177   6.459   2.495   3.328  0.1469  0.5852  0.3041
  174DOPC  H12B21178   6.324   2.571   3.375  1.2238 -0.7601  1.1927
  174DOPC   C1321179   6.201   2.544   3.123  0.1280 -0.1970  0.6157
  174DOPC  H13A21180   6.141   2.595   3.197  0.5539 -0.2231  0.9881
  174DOPC  H13B21181   6.246   2.625   3.066  0.8224 -0.3557  0.9216
  174DOPC  H13C21182   6.129   2.476   3.080 -1.2233  0.6119  1.5261
  174DOPC   C1421183   6.263   2.350   3.257 -0.5143 -0.0937  0.3797
  174DOPC  H14A21184   6.224   2.275   3.191  0.0818  1.3543 -1.7407
  174DOPC  H14B21185   6.336   2.295   3.314 -1.2217 -0.0458  1.3480
  174DOPC  H14C21186   6.188   2.370   3.332  0.6214 -0.6378  1.7056
  174DOPC   C1521187   6.402   2.401   3.090  0.3003 -0.8612  0.3445
  174DOPC  H15A21188   6.477   2.471   3.056 -0.5806  0.1923  0.5149
  174DOPC  H15B21189   6.335   2.375   3.010 -0.4845  1.2670  0.2455
  174DOPC  H15C21190   6.444   2.308   3.125  1.4765 -1.1045 -1.6296
  174DOPC   C1121191   6.427   2.686   3.225  0.7482 -0.6950 -0.0767
  174DOPC  H11A21192   6.521   2.711   3.278  0.9758 -0.1151 -0.7313
  174DOPC  H11B21193   6.449   2.667   3.118 -0.9125  0.1465 -0.5972
  174DOPC     P21194   6.329   2.921   3.146  0.3664 -0.0401 -0.3664
  174DOPC   O1321195   6.260   2.875   3.025 -0.0139 -0.1204  0.0344
  174DOPC   O1421196   6.460   2.985   3.129 -0.0015 -0.1807  0.2066
  174DOPC   O1221197   6.332   2.794   3.242  0.4416 -0.2505  0.0425
  174DOPC   O1121198   6.247   3.030   3.223 -0.0735  0.2698 -0.5847
  174DOPC    C121199   6.302   3.132   3.314 -0.3315  0.0981  0.6187
  174DOPC    HA21200   6.407   3.107   3.342  0.4617  1.8277 -0.5763
  174DOPC    HB21201   6.232   3.137   3.400 -0.2081  0.2740  0.7083
  174DOPC    C221202   6.313   3.269   3.246 -0.2897 -0.0470 -0.2591
  174DOPC    HS21203   6.388   3.247   3.167  0.0740  1.2412 -0.2870
  174DOPC   O2121204   6.355   3.362   3.348  0.2849  0.1994  0.2702
  174DOPC   C2121205   6.440   3.452   3.304 -0.4592  0.2788 -0.1795
  174DOPC   O2221206   6.459   3.467   3.185 -0.0266 -0.4688  0.0342
  174DOPC   C2221207   6.497   3.536   3.410 -0.5227 -0.1453  0.6673
  174DOPC   H2R21208   6.428   3.623   3.408 -2.3566 -1.5534 -0.0991
  174DOPC   H2S21209   6.594   3.582   3.383 -2.6389  2.9968 -2.4514
  174DOPC    C321210   6.183   3.316   3.180  0.0128 -0.6095 -0.4447
  174DOPC    HX21211   6.156   3.241   3.103  0.8203 -2.1367  0.7145
  174DOPC    HY21212   6.203   3.409   3.121 -0.1197  0.1572  0.6821
  174DOPC   O3121213   6.070   3.323   3.273 -0.1782  0.5654  0.3885
  174DOPC   C3121214   6.021   3.445   3.302  0.0437  0.3875  0.2809
  174DOPC   O3221215   6.059   3.551   3.256 -0.0753  0.1424 -0.2818
  174DOPC   C3221216   5.919   3.434   3.420  0.4674  0.1431 -0.0945
  174DOPC   H2X21217   5.898   3.536   3.460 -0.7122 -0.2046  0.1964
  174DOPC   H2Y21218   5.822   3.391   3.390  0.1305  0.9279 -0.1520
  174DOPC   C2321219   6.508   3.465   3.548 -0.3678  0.6765 -0.0757
  174DOPC   H3R21220   6.579   3.382   3.531 -1.4436  0.2091 -2.8833
  174DOPC   H3S21221   6.408   3.425   3.576 -0.2593 -0.3823 -1.1204
  174DOPC   C2421222   6.559   3.555   3.668 -0.7224  0.3210  0.7400
  174DOPC   H4R21223   6.490   3.636   3.699 -1.0024 -0.0334  1.0490
  174DOPC   H4S21224   6.649   3.609   3.632 -0.4248 -1.1454 -0.8891
  174DOPC   C2521225   6.593   3.470   3.794  0.3739 -0.0047  0.0703
  174DOPC   H5R21226   6.665   3.390   3.767  2.1689  0.7537  2.2869
  174DOPC   H5S21227   6.497   3.416   3.808  1.1460 -1.8085 -1.2801
  174DOPC   C2621228   6.646   3.559   3.907  0.4000  0.3678  0.1920
  174DOPC   H6R21229   6.739   3.610   3.873  0.3426  0.0304 -0.4787
  174DOPC   H6S21230   6.667   3.498   3.997  0.2308  0.2005  0.1182
  174DOPC   C2721231   6.560   3.680   3.960  0.4182 -0.9378  0.7824
  174DOPC   H7R21232   6.556   3.753   3.876 -3.6477 -0.2179  1.4419
  174DOPC   H7S21233   6.602   3.731   4.049 -0.7825 -0.2583  0.9741
  174DOPC   C2821234   6.417   3.644   4.006  0.2805  0.0391 -0.2731
  174DOPC   H8R21235   6.410   3.564   4.082  1.3070 -0.4881 -0.7206
  174DOPC   H8S21236   6.364   3.600   3.919  0.4168 -1.8120  0.5309
  174DOPC   C2921237   6.333   3.764   4.042 -0.0150  0.0984  0.5387
  174DOPC   H9R21238   6.354   3.850   3.977  1.6809  0.7041  1.7879
  174DOPC  C21021239   6.243   3.777   4.137  0.1213  0.0969  0.7268
  174DOPC  H10R21240   6.198   3.877   4.146  0.1673  0.1371  0.5168
  174DOPC  C21121241   6.196   3.668   4.228 -0.3785 -0.2503  0.5394
  174DOPC  H11R21242   6.205   3.701   4.334  0.5528 -1.6192  0.9103
  174DOPC  H11S21243   6.259   3.579   4.211  0.2182  0.3217 -0.3378
  174DOPC  C21221244   6.054   3.641   4.187  0.2952  0.0646  0.1509
  174DOPC  H12R21245   6.001   3.728   4.231  0.8232  0.8904 -0.8013
  174DOPC  H12S21246   6.020   3.552   4.244  0.1052 -0.9393 -1.4687
  174DOPC  C21321247   6.013   3.607   4.042 -0.1126  0.4575 -0.2130
  174DOPC  H13R21248   6.076   3.519   4.016 -0.5812  0.1880 -0.4680
  174DOPC  H13S21249   6.026   3.693   3.973 -0.2962  1.0300  0.4585
  174DOPC  C21421250   5.865   3.555   4.043 -0.4808  0.0163 -0.0773
  174DOPC  H14R21251   5.806   3.636   4.090 -0.6573 -0.7968  1.1376
  174DOPC  H14S21252   5.860   3.458   4.098 -1.4988  1.6551  2.9246
  174DOPC  C21521253   5.800   3.526   3.908 -0.5545  0.1772 -0.4299
  174DOPC  H15R21254   5.866   3.456   3.853 -0.1412  0.2440 -0.0340
  174DOPC  H15S21255   5.795   3.618   3.847 -1.6697 -0.5486 -1.4629
  174DOPC  C21621256   5.662   3.463   3.921  0.1805  0.0661  0.8371
  174DOPC  H16R21257   5.576   3.533   3.928 -1.7657 -2.1340  0.4086
  174DOPC  H16S21258   5.654   3.400   4.013 -2.6313  1.0873  1.3906
  174DOPC  C21721259   5.629   3.378   3.797  0.1303  0.0569  0.0972
  174DOPC  H17R21260   5.532   3.326   3.817 -0.2716  1.2715  1.5184
  174DOPC  H17S21261   5.709   3.303   3.778 -0.4214 -0.4718 -0.1836
  174DOPC  C21821262   5.608   3.460   3.672  0.2312 -0.1434  0.7196
  174DOPC  H18R21263   5.539   3.412   3.598  1.4606  0.1774 -0.6859
  174DOPC  H18S21264   5.706   3.463   3.620  0.8180 -2.2223  1.6002
  174DOPC  H18T21265   5.568   3.561   3.694  0.6364  0.3877 -0.8480
  174DOPC   C3321266   5.956   3.335   3.534 -0.4696 -0.0938 -0.2506
  174DOPC   H3X21267   5.969   3.232   3.494 -2.4542 -1.1856  1.6636
  174DOPC   H3Y21268   5.866   3.333   3.599 -2.2453  0.2937 -2.5871
  174DOPC   C3421269   6.076   3.388   3.621  1.0646  0.0529  0.7477
  174DOPC   H4X21270   6.045   3.489   3.656  0.2320  0.8650 -2.0523
  174DOPC   H4Y21271   6.161   3.405   3.551 -0.9686  1.2503 -1.6203
  174DOPC   C3521272   6.106   3.297   3.733 -0.0933 -0.1508  0.1527
  174DOPC   H5X21273   6.006   3.286   3.781  0.1540  0.1796  0.7481
  174DOPC   H5Y21274   6.172   3.346   3.807 -1.1402  2.2018 -0.3810
  174DOPC   C3621275   6.180   3.166   3.691  0.5443  0.0445  0.0571
  174DOPC   H6X21276   6.153   3.106   3.780  1.4408  0.0072  0.3111
  174DOPC   H6Y21277   6.123   3.109   3.615  0.8125  1.0779 -0.9461
  174DOPC   C3721278   6.328   3.158   3.674  0.2910 -1.0519 -0.4243
  174DOPC   H7X21279   6.353   3.198   3.573  1.6064  0.2726  0.3844
  174DOPC   H7Y21280   6.382   3.215   3.753  0.0574  0.8506 -1.5701
  174DOPC   C3821281   6.362   3.010   3.670 -0.3997 -0.0980 -0.9805
  174DOPC   H8X21282   6.297   2.961   3.595 -2.0865  0.9072 -0.2320
  174DOPC   H8Y21283   6.335   2.958   3.764  0.7866  0.7555 -0.1412
  174DOPC   C3921284   6.508   2.993   3.649 -0.1480  0.4507 -0.2908
  174DOPC   H9X21285   6.529   2.983   3.542 -0.3439  0.9187 -0.3727
  174DOPC  C31021286   6.607   2.981   3.737  0.2744 -0.2162 -0.9501
  174DOPC  H10X21287   6.713   2.977   3.709  1.7544  0.6232  3.6589
  174DOPC  C31121288   6.585   3.008   3.889 -0.2941 -0.7273  1.0829
  174DOPC  H11X21289   6.617   2.918   3.947  3.1445 -0.1068  0.3886
  174DOPC  H11Y21290   6.481   3.042   3.907 -0.1671  2.0993 -2.5752
  174DOPC  C31221291   6.665   3.130   3.936 -0.2594  0.3487  0.1301
  174DOPC  H12X21292   6.660   3.205   3.854  2.0932  1.7139  1.1400
  174DOPC  H12Y21293   6.773   3.106   3.950 -0.5010 -0.6757  0.3296
  174DOPC  C31321294   6.624   3.181   4.071  0.1964  0.5520  0.0950
  174DOPC  H13X21295   6.674   3.280   4.073  2.0876 -0.3524  1.6377
  174DOPC  H13Y21296   6.516   3.205   4.072  0.3019  1.3433 -1.9223
  174DOPC  C31421297   6.657   3.100   4.197  0.0534  1.2884 -0.4748
  174DOPC  H14X21298   6.600   3.004   4.188 -3.2022  2.8933  1.2183
  174DOPC  H14Y21299   6.766   3.080   4.203 -0.1035  0.8377  1.6383
  174DOPC  C31521300   6.614   3.176   4.319 -0.4696  0.0905  0.4592
  174DOPC  H15X21301   6.511   3.214   4.304 -0.8011 -0.5769  1.0238
  174DOPC  H15Y21302   6.678   3.266   4.332 -0.5041  0.1413  0.2839
  174DOPC  C31621303   6.619   3.089   4.444  0.5730  0.6260 -0.2454
  174DOPC  H16X21304   6.533   3.019   4.455  0.2954  1.3837  4.1228
  174DOPC  H16Y21305   6.711   3.027   4.441 -1.4077 -2.6639  1.1932
  174DOPC  C31721306   6.627   3.163   4.578 -0.6893  0.0831 -0.0187
  174DOPC  H17X21307   6.706   3.241   4.579  0.8197 -1.4078  0.3570
  174DOPC  H17Y21308   6.527   3.207   4.600 -0.3442 -0.1294  2.1554
  174DOPC  C31821309   6.639   3.066   4.693  0.0231  0.4168 -0.1343
  174DOPC  H18X21310   6.552   2.997   4.695  1.0033 -1.0631 -3.1166
  174DOPC  H18Y21311   6.730   3.003   4.691 -0.3662 -0.1698  0.4244
  174DOPC  H18Z21312   6.642   3.120   4.789 -1.0464  0.0406  0.1260
  175DOPC     N21313   3.828   6.233   2.953 -0.1165 -0.3851  0.5348
  175DOPC   C1221314   3.888   6.363   3.012 -0.0418 -0.1168  0.0552
  175DOPC  H12A21315   3.807   6.414   3.061  0.7511  0.8897  0.3495
  175DOPC  H12B21316   3.909   6.433   2.932  2.5653  0.1046  0.8484
  175DOPC   C1321317   3.922   6.181   2.850  0.1944 -0.2700  0.1687
  175DOPC  H13A21318   3.935   6.258   2.775  1.2064 -1.1278 -0.5619
  175DOPC  H13B21319   4.008   6.133   2.894 -0.3206 -0.6756  0.7421
  175DOPC  H13C21320   3.877   6.096   2.801  1.0566 -1.3616  1.2203
  175DOPC   C1421321   3.688   6.263   2.894 -0.1986 -0.9444  0.6294
  175DOPC  H14A21322   3.624   6.323   2.956  1.0372  0.2709  0.7793
  175DOPC  H14B21323   3.700   6.322   2.805 -0.7983  0.1275  1.2342
  175DOPC  H14C21324   3.630   6.176   2.869  1.1184 -0.7349 -3.9997
  175DOPC   C1521325   3.817   6.132   3.059 -0.0297  0.1686 -0.6085
  175DOPC  H15A21326   3.903   6.133   3.124 -0.7867 -1.6042  0.5106
  175DOPC  H15B21327   3.812   6.031   3.019  0.7104  0.3347 -1.1473
  175DOPC  H15C21328   3.723   6.144   3.111  0.0146 -0.1675 -0.4461
  175DOPC   C1121329   4.005   6.358   3.108  0.1124  0.0412 -0.1860
  175DOPC  H11A21330   4.025   6.465   3.129 -1.2788  0.1165  0.9083
  175DOPC  H11B21331   3.965   6.326   3.207  1.0839  3.2052  1.3571
  175DOPC     P21332   4.212   6.203   3.148 -0.0735 -0.0791  0.0388
  175DOPC   O1321333   4.325   6.150   3.065 -0.0599 -0.7272 -0.5099
  175DOPC   O1421334   4.134   6.095   3.216  0.4172  0.0597 -0.1698
  175DOPC   O1221335   4.108   6.286   3.057 -0.5723  0.1484 -0.5128
  175DOPC   O1121336   4.267   6.313   3.248  0.6708 -0.0618 -0.3707
  175DOPC    C121337   4.331   6.432   3.202  0.9898 -0.3024  0.6489
  175DOPC    HA21338   4.267   6.496   3.137  0.6140 -3.2682 -2.1754
  175DOPC    HB21339   4.424   6.410   3.146  0.1192 -4.7745  0.6029
  175DOPC    C221340   4.371   6.520   3.329 -0.3366  0.4370 -0.4524
  175DOPC    HS21341   4.422   6.609   3.285  0.2791 -0.4567 -1.6194
  175DOPC   O2121342   4.459   6.439   3.421  0.3678  0.1400  0.0734
  175DOPC   C2121343   4.587   6.471   3.415  0.4294 -0.2418  0.4341
  175DOPC   O2221344   4.629   6.570   3.352  0.0138 -0.0506 -0.6740
  175DOPC   C2221345   4.678   6.372   3.487  0.2818  0.8132  0.1911
  175DOPC   H2R21346   4.717   6.303   3.409  0.3558  2.5668 -1.4137
  175DOPC   H2S21347   4.619   6.299   3.546  1.3245 -1.9272 -1.9606
  175DOPC    C321348   4.246   6.577   3.397 -0.6704 -0.3983  0.4984
  175DOPC    HX21349   4.156   6.513   3.408  0.8952 -2.5738  1.4233
  175DOPC    HY21350   4.208   6.661   3.335 -2.3400  0.2537  2.3208
  175DOPC   O3121351   4.279   6.612   3.531  0.0283  0.0326  0.0451
  175DOPC   C3121352   4.335   6.724   3.557  0.2927  0.1062  1.2166
  175DOPC   O3221353   4.348   6.821   3.483  0.2845 -0.6178 -0.1759
  175DOPC   C3221354   4.388   6.723   3.700  0.1529  0.1123 -0.3529
  175DOPC   H2X21355   4.313   6.679   3.769  0.5811  0.1257  0.1204
  175DOPC   H2Y21356   4.480   6.662   3.690  0.8993  1.4813 -2.5793
  175DOPC   C2321357   4.793   6.429   3.567 -0.1926 -0.6620 -0.2611
  175DOPC   H3R21358   4.861   6.497   3.512  0.5657 -0.3065  1.0665
  175DOPC   H3S21359   4.852   6.340   3.597  0.5131 -0.7531 -1.8085
  175DOPC   C2421360   4.746   6.503   3.691  0.4789  0.0291 -0.3633
  175DOPC   H4R21361   4.664   6.444   3.738  1.2248 -0.6152  0.1444
  175DOPC   H4S21362   4.706   6.601   3.658  1.2747  0.3237 -0.4694
  175DOPC   C2521363   4.865   6.524   3.793  0.0714 -0.2315  0.0493
  175DOPC   H5R21364   4.927   6.612   3.765  0.7347 -0.5534  0.4598
  175DOPC   H5S21365   4.928   6.433   3.800  0.7768  0.2076 -0.4749
  175DOPC   C2621366   4.807   6.578   3.931 -0.5379  0.0555 -0.0966
  175DOPC   H6R21367   4.720   6.511   3.951 -0.5960  0.2615  0.3475
  175DOPC   H6S21368   4.776   6.683   3.915 -0.7532 -0.3637 -3.0062
  175DOPC   C2721369   4.910   6.574   4.045  0.3105  0.7340 -0.5471
  175DOPC   H7R21370   4.993   6.630   3.998  1.6708  1.2995  2.3362
  175DOPC   H7S21371   4.950   6.471   4.051 -1.8024 -0.1294 -0.1877
  175DOPC   C2821372   4.848   6.625   4.172  0.8132 -0.5718 -0.1217
  175DOPC   H8R21373   4.756   6.567   4.194  0.3789 -0.0106 -0.4000
  175DOPC   H8S21374   4.814   6.731   4.164  0.2050 -0.7162  0.4979
  175DOPC   C2921375   4.950   6.620   4.281 -0.1908  0.3832  0.0838
  175DOPC   H9R21376   5.052   6.613   4.241 -0.3634  0.7216 -0.4208
  175DOPC  C21021377   4.937   6.615   4.410  0.4607 -0.3487 -0.6066
  175DOPC  H10R21378   5.024   6.611   4.476  0.9084 -2.4336 -1.2408
  175DOPC  C21121379   4.804   6.620   4.480  0.1105  0.0698  0.3547
  175DOPC  H11R21380   4.722   6.633   4.407  0.6543 -1.3479 -0.5629
  175DOPC  H11S21381   4.797   6.700   4.556 -0.4322  0.3105  0.0571
  175DOPC  C21221382   4.779   6.487   4.553 -0.0952  0.3380 -0.0598
  175DOPC  H12R21383   4.780   6.401   4.482 -0.4594 -0.2470  0.6248
  175DOPC  H12S21384   4.671   6.489   4.582  0.0980  1.4538  0.6223
  175DOPC  C21321385   4.867   6.455   4.676  0.5322 -0.0908 -0.2596
  175DOPC  H13R21386   4.890   6.541   4.743 -0.3051  0.1647 -0.2832
  175DOPC  H13S21387   4.972   6.427   4.651  0.8146  0.2968  0.4394
  175DOPC  C21421388   4.803   6.361   4.777 -0.0308 -0.2102  0.0659
  175DOPC  H14R21389   4.734   6.289   4.729  1.8584 -1.3582 -1.0665
  175DOPC  H14S21390   4.734   6.411   4.849 -1.1068 -0.4955 -0.7566
  175DOPC  C21521391   4.900   6.269   4.860  0.0074 -0.7081 -0.6913
  175DOPC  H15R21392   4.963   6.333   4.925 -1.3297 -0.7928  0.7224
  175DOPC  H15S21393   4.960   6.206   4.790  0.5936 -4.4210  2.7875
  175DOPC  C21621394   4.820   6.175   4.948 -0.0967  0.0675  0.0109
  175DOPC  H16R21395   4.751   6.113   4.887  0.3046  1.1305 -1.5693
  175DOPC  H16S21396   4.762   6.229   5.026 -0.7041  0.7044 -0.8627
  175DOPC  C21721397   4.921   6.082   5.023 -0.5367  0.1667  0.4200
  175DOPC  H17R21398   4.973   6.030   4.939 -1.6012  0.6224 -0.5415
  175DOPC  H17S21399   4.871   5.998   5.076  2.0486 -1.5382  0.3442
  175DOPC  C21821400   5.028   6.149   5.104  0.5019  0.0049 -0.4134
  175DOPC  H18R21401   4.975   6.213   5.177 -0.0044  0.9072 -1.5316
  175DOPC  H18S21402   5.101   6.205   5.042  2.8047 -1.7722  0.5785
  175DOPC  H18T21403   5.078   6.076   5.170  0.0740  0.2584  0.2033
  175DOPC   C3321404   4.443   6.857   3.750  0.3774  0.6968  0.0244
  175DOPC   H3X21405   4.365   6.936   3.745  0.1820  0.4474 -1.8604
  175DOPC   H3Y21406   4.519   6.885   3.674  0.7666 -1.7593 -0.5986
  175DOPC   C3421407   4.499   6.840   3.891  0.5284 -0.3247 -0.4424
  175DOPC   H4X21408   4.594   6.898   3.896 -0.5961  1.8787 -2.4472
  175DOPC   H4Y21409   4.518   6.733   3.912  1.7245 -0.0587 -0.0939
  175DOPC   C3521410   4.405   6.894   3.996 -0.1021  0.2125  0.1318
  175DOPC   H5X21411   4.313   6.831   3.998 -0.8403  1.2008 -1.2762
  175DOPC   H5Y21412   4.373   6.997   3.971  1.1615  0.5302 -0.2251
  175DOPC   C3621413   4.480   6.903   4.133 -0.8792 -0.1644 -0.9096
  175DOPC   H6X21414   4.537   6.810   4.152 -3.6547 -1.7544  0.2022
  175DOPC   H6Y21415   4.558   6.982   4.119  1.3342 -1.8193  1.2778
  175DOPC   C3721416   4.390   6.939   4.239 -0.7217 -0.1132 -0.5460
  175DOPC   H7X21417   4.315   7.009   4.196 -0.2080  0.4840 -0.4924
  175DOPC   H7Y21418   4.330   6.855   4.280  0.9958 -0.4650  1.4138
  175DOPC   C3821419   4.455   7.011   4.359 -0.4712  0.8714 -0.3431
  175DOPC   H8X21420   4.372   7.056   4.416  0.6433  0.8179  1.3828
  175DOPC   H8Y21421   4.512   7.099   4.322 -0.4520  0.5454 -1.1068
  175DOPC   C3921422   4.532   6.912   4.442 -0.6866  0.4747 -0.0883
  175DOPC   H9X21423   4.584   6.826   4.396  0.4377 -0.7596  3.2112
  175DOPC  C31021424   4.559   6.932   4.569  0.3074  0.2420 -0.2707
  175DOPC  H10X21425   4.618   6.860   4.628  2.1019  1.3412 -0.6585
  175DOPC  C31121426   4.509   7.037   4.658  0.0972 -0.3047 -0.7041
  175DOPC  H11X21427   4.491   7.132   4.603 -2.5892 -0.6756 -0.6071
  175DOPC  H11Y21428   4.584   7.055   4.737  0.2940 -0.4253 -0.8613
  175DOPC  C31221429   4.380   7.008   4.744  0.0502  0.3899  0.0302
  175DOPC  H12X21430   4.398   6.917   4.806 -0.9165  0.7069  0.8018
  175DOPC  H12Y21431   4.302   6.999   4.666 -0.5382  2.9479  0.2475
  175DOPC  C31321432   4.338   7.121   4.836  0.1826 -0.5766  0.4640
  175DOPC  H13X21433   4.417   7.143   4.911 -0.1212  1.3933  0.2562
  175DOPC  H13Y21434   4.332   7.214   4.775 -0.3526  0.5370  2.1271
  175DOPC  C31421435   4.206   7.095   4.910 -0.6393  0.2998 -0.5217
  175DOPC  H14X21436   4.118   7.125   4.849 -0.2450 -0.4288 -1.4815
  175DOPC  H14Y21437   4.197   6.987   4.936  1.0905  0.3129  0.2361
  175DOPC  C31521438   4.185   7.187   5.036 -0.2871  0.3397  0.8850
  175DOPC  H15X21439   4.178   7.294   5.006  0.2412  1.1342  3.3489
  175DOPC  H15Y21440   4.273   7.177   5.103  0.0285 -1.3518  0.2642
  175DOPC  C31621441   4.054   7.156   5.111  0.1635  0.5686  0.3027
  175DOPC  H16X21442   4.048   7.211   5.207 -1.4627  0.2233  0.4371
  175DOPC  H16Y21443   3.970   7.187   5.045  0.5239  0.7980 -0.0538
  175DOPC  C31721444   4.046   7.014   5.159  0.1141 -0.0826  0.3488
  175DOPC  H17X21445   4.041   6.938   5.077 -1.6334 -0.7914  1.0639
  175DOPC  H17Y21446   4.142   6.998   5.213  0.6623  1.1726 -0.2225
  175DOPC  C31821447   3.936   6.991   5.263  0.8078 -0.6586  0.0648
  175DOPC  H18X21448   3.943   7.070   5.341  2.5889 -0.5277 -0.1709
  175DOPC  H18Y21449   3.842   7.013   5.208  0.7542 -1.6358 -0.2509
  175DOPC  H18Z21450   3.930   6.887   5.302 -0.0235 -1.5508 -2.2612
  176DOPC     N21451   2.666   1.832   3.179 -0.4580 -0.0949 -0.2921
  176DOPC   C1221452   2.616   1.970   3.205  0.8438  0.1786  0.0793
  176DOPC  H12A21453   2.670   2.011   3.289 -1.3579  1.7496  0.8120
  176DOPC  H12B21454   2.512   1.967   3.233  1.0703  0.4316  0.9825
  176DOPC   C1321455   2.597   1.766   3.067  0.0701 -0.6252 -0.4429
  176DOPC  H13A21456   2.628   1.664   3.050  1.8552 -0.1774 -0.0359
  176DOPC  H13B21457   2.491   1.779   3.084  0.0681 -0.5354 -0.5204
  176DOPC  H13C21458   2.626   1.806   2.971 -2.5054 -0.4315 -1.2200
  176DOPC   C1421459   2.630   1.746   3.293 -0.6813 -0.2455  0.7624
  176DOPC  H14A21460   2.656   1.645   3.264  0.8347  0.8047 -1.9230
  176DOPC  H14B21461   2.682   1.767   3.385  1.5226  0.1887 -0.5085
  176DOPC  H14C21462   2.524   1.754   3.310 -0.9206  0.7459 -0.8685
  176DOPC   C1521463   2.812   1.836   3.164  0.7588  0.5853  0.0273
  176DOPC  H15A21464   2.862   1.876   3.250 -0.2629 -0.4434  1.1420
  176DOPC  H15B21465   2.840   1.905   3.086  3.2226  0.7940  1.0045
  176DOPC  H15C21466   2.845   1.737   3.137 -1.2835  0.6003 -3.0544
  176DOPC   C1121467   2.621   2.065   3.080  0.1060  0.2694  0.2464
  176DOPC  H11A21468   2.609   2.168   3.121 -1.1643  0.3879 -0.3951
  176DOPC  H11B21469   2.721   2.067   3.031  0.4450 -1.4012  0.8126
  176DOPC     P21470   2.363   2.076   3.004  0.2612 -0.2304 -0.3095
  176DOPC   O1321471   2.306   2.015   2.886  0.0582 -0.0327  0.4040
  176DOPC   O1421472   2.333   2.217   3.024 -0.0198  0.2144 -0.2366
  176DOPC   O1221473   2.514   2.029   2.993 -0.4705 -0.1340 -0.0516
  176DOPC   O1121474   2.318   1.993   3.125  0.3711  0.3718 -0.0808
  176DOPC    C121475   2.238   2.041   3.237 -0.0842  0.1672  0.0067
  176DOPC    HA21476   2.133   2.009   3.219 -0.2204  0.6932 -0.1496
  176DOPC    HB21477   2.237   2.152   3.250  0.9173  0.0002  1.8503
  176DOPC    C221478   2.268   1.972   3.369  0.1184  0.7337 -0.1604
  176DOPC    HS21479   2.180   1.990   3.435 -0.8000  0.0726 -1.1637
  176DOPC   O2121480   2.397   2.022   3.421 -0.1604  0.8019 -0.3765
  176DOPC   C2121481   2.377   2.078   3.541 -0.0117 -0.2231 -0.0532
  176DOPC   O2221482   2.271   2.096   3.598  0.3632 -0.6045  0.1930
  176DOPC   C2221483   2.514   2.115   3.592  0.1026 -0.0377  0.1668
  176DOPC   H2R21484   2.517   2.226   3.585 -1.8352  0.0742  0.5972
  176DOPC   H2S21485   2.593   2.066   3.530  0.4847  1.2269 -0.3744
  176DOPC    C321486   2.263   1.819   3.363  1.2292 -0.3640 -0.3625
  176DOPC    HX21487   2.362   1.784   3.328  1.0972  0.8109 -2.0033
  176DOPC    HY21488   2.197   1.794   3.277 -1.1656  1.3295  0.8632
  176DOPC   O3121489   2.201   1.769   3.493  0.2164  0.0286 -0.2482
  176DOPC   C3121490   2.289   1.726   3.584 -0.5265 -0.5851  0.0586
  176DOPC   O3221491   2.414   1.727   3.564  0.8660 -0.6581 -0.4264
  176DOPC   C3221492   2.223   1.670   3.711  0.6979  0.6516 -0.5604
  176DOPC   H2X21493   2.119   1.710   3.717  1.3943  2.3820  0.5516
  176DOPC   H2Y21494   2.230   1.560   3.704 -0.4030  0.4679  0.7530
  176DOPC   C2321495   2.529   2.096   3.746  0.3399  0.0818 -0.4226
  176DOPC   H3R21496   2.456   2.155   3.806 -0.3469 -1.7027  0.5856
  176DOPC   H3S21497   2.625   2.150   3.759 -0.9630  2.4069 -0.0379
  176DOPC   C2421498   2.545   1.948   3.790 -0.3262  0.1399  0.8435
  176DOPC   H4R21499   2.565   1.889   3.699 -0.3108  1.7397 -0.2358
  176DOPC   H4S21500   2.447   1.919   3.835  0.6514 -1.1698  2.2017
  176DOPC   C2521501   2.648   1.932   3.893 -0.2591  0.2078 -0.4881
  176DOPC   H5R21502   2.642   2.018   3.963  1.8435  1.8652 -2.1860
  176DOPC   H5S21503   2.754   1.931   3.859 -0.3147 -1.2831 -0.7031
  176DOPC   C2621504   2.621   1.801   3.965 -0.1115 -0.4443 -0.1419
  176DOPC   H6R21505   2.610   1.723   3.887 -1.9055 -0.6069  0.2517
  176DOPC   H6S21506   2.533   1.796   4.032  1.0523  0.3274  1.5333
  176DOPC   C2721507   2.735   1.751   4.060  0.6004  0.2594 -0.0453
  176DOPC   H7R21508   2.742   1.814   4.151  1.5880  2.2694 -1.4323
  176DOPC   H7S21509   2.832   1.746   4.005  1.3492 -1.0162  1.3355
  176DOPC   C2821510   2.720   1.602   4.109 -0.7558 -0.2035 -0.8227
  176DOPC   H8R21511   2.806   1.585   4.177 -1.4134 -0.4604 -0.0298
  176DOPC   H8S21512   2.723   1.536   4.020  0.1056 -0.3305 -0.7025
  176DOPC   C2921513   2.593   1.582   4.191 -0.3232 -0.0256 -0.0657
  176DOPC   H9R21514   2.500   1.555   4.138 -1.5683  1.3161  1.3312
  176DOPC  C21021515   2.586   1.602   4.325  0.1844  0.1062  0.0141
  176DOPC  H10R21516   2.489   1.604   4.378 -0.3339  0.5349 -0.9273
  176DOPC  C21121517   2.705   1.634   4.416  0.9106  0.1720  0.0222
  176DOPC  H11R21518   2.704   1.743   4.439  0.1498  0.3823 -0.9201
  176DOPC  H11S21519   2.805   1.629   4.368  0.4428 -2.2217 -0.8559
  176DOPC  C21221520   2.705   1.542   4.540 -0.3999 -0.2799 -0.0310
  176DOPC  H12R21521   2.746   1.450   4.494 -0.6061  0.2142 -1.2403
  176DOPC  H12S21522   2.603   1.530   4.581 -0.4040  0.9242  0.3619
  176DOPC  C21321523   2.803   1.573   4.656  0.0859  0.5253  0.2142
  176DOPC  H13R21524   2.909   1.588   4.624  0.6972 -2.4144  0.5875
  176DOPC  H13S21525   2.803   1.485   4.723 -1.7085 -1.7248 -2.5239
  176DOPC  C21421526   2.755   1.681   4.755 -0.3692 -0.6929 -1.2366
  176DOPC  H14R21527   2.737   1.766   4.686  0.3422  0.9279  0.4820
  176DOPC  H14S21528   2.837   1.708   4.825 -2.1677 -0.9729  1.1159
  176DOPC  C21521529   2.616   1.651   4.821 -0.8234 -0.1491  0.1387
  176DOPC  H15R21530   2.624   1.555   4.877 -1.6808 -0.9010 -0.9858
  176DOPC  H15S21531   2.545   1.632   4.738  1.0007  0.4686 -1.6457
  176DOPC  C21621532   2.565   1.770   4.915  0.2747  0.3501 -0.5631
  176DOPC  H16R21533   2.581   1.872   4.873 -0.4436  1.3373  1.4440
  176DOPC  H16S21534   2.627   1.773   5.006 -0.9197  2.4292  0.2600
  176DOPC  C21721535   2.428   1.757   4.967  0.2219  0.0737 -0.0144
  176DOPC  H17R21536   2.418   1.825   5.054 -0.2987  1.2196 -0.9300
  176DOPC  H17S21537   2.416   1.657   5.014 -0.6265  0.1191 -0.1214
  176DOPC  C21821538   2.311   1.779   4.869  0.4020 -0.1028  0.2158
  176DOPC  H18R21539   2.212   1.779   4.919  1.4483 -1.4419  2.4384
  176DOPC  H18S21540   2.313   1.696   4.794  0.1025 -1.2879  1.4824
  176DOPC  H18T21541   2.319   1.881   4.826 -2.1141 -0.0967 -0.4069
  176DOPC   C3321542   2.299   1.702   3.841 -0.3162  0.4566 -0.3937
  176DOPC   H3X21543   2.286   1.811   3.857  2.9654  1.2030 -1.8328
  176DOPC   H3Y21544   2.408   1.688   3.821 -0.4146  1.4525 -1.7401
  176DOPC   C3421545   2.259   1.614   3.961 -0.1699 -0.4572 -0.0845
  176DOPC   H4X21546   2.324   1.655   4.041  1.9591  1.2940 -2.5222
  176DOPC   H4Y21547   2.306   1.520   3.923  3.2515  0.6964  0.9155
  176DOPC   C3521548   2.120   1.583   3.998  0.8068 -0.7815  0.6347
  176DOPC   H5X21549   2.067   1.546   3.908 -1.3637  3.9455 -0.3361
  176DOPC   H5Y21550   2.065   1.678   4.016  0.2777 -0.2503 -3.0138
  176DOPC   C3621551   2.104   1.493   4.124  0.6658  0.0202  0.1595
  176DOPC   H6X21552   2.004   1.444   4.118  0.6529  0.1037 -0.4795
  176DOPC   H6Y21553   2.177   1.410   4.113  2.1843  1.6242 -5.3373
  176DOPC   C3721554   2.102   1.555   4.260 -0.4157  0.0829 -0.3975
  176DOPC   H7X21555   2.201   1.598   4.285 -1.3636  1.5008  1.1820
  176DOPC   H7Y21556   2.029   1.639   4.266 -0.5726 -0.1430  1.3297
  176DOPC   C3821557   2.070   1.453   4.376 -0.1449 -0.6716 -0.8149
  176DOPC   H8X21558   1.968   1.409   4.367  0.1446 -1.7673  0.8985
  176DOPC   H8Y21559   2.070   1.518   4.466 -1.6011  0.4497 -1.5826
  176DOPC   C3921560   2.169   1.339   4.392  0.3600 -0.4789  0.2841
  176DOPC   H9X21561   2.169   1.283   4.297 -2.1921  0.0243 -0.0997
  176DOPC  C31021562   2.260   1.314   4.488  0.4779 -0.4684  0.5812
  176DOPC  H10X21563   2.333   1.233   4.470  2.4764  1.3348  0.0992
  176DOPC  C31121564   2.278   1.401   4.607 -0.7575  0.7684  0.5816
  176DOPC  H11X21565   2.215   1.493   4.607  0.6332  1.7652  1.5309
  176DOPC  H11Y21566   2.388   1.416   4.611 -0.9416  2.1555  3.8946
  176DOPC  C31221567   2.251   1.320   4.740 -0.2261 -0.2131  0.3194
  176DOPC  H12X21568   2.318   1.231   4.739 -1.1497 -0.9302 -0.4758
  176DOPC  H12Y21569   2.148   1.279   4.739 -0.0119 -0.7706  0.9104
  176DOPC  C31321570   2.282   1.415   4.852 -0.5283  0.0975  0.6750
  176DOPC  H13X21571   2.387   1.452   4.847 -0.5043  0.2624  1.9328
  176DOPC  H13Y21572   2.208   1.497   4.844 -0.7287  0.2059  2.9510
  176DOPC  C31421573   2.263   1.364   4.990  0.0998 -0.3639 -0.0037
  176DOPC  H14X21574   2.247   1.444   5.066 -1.0032 -0.1040 -0.4877
  176DOPC  H14Y21575   2.181   1.289   5.000 -0.8461  0.6681  0.1770
  176DOPC  C31521576   2.383   1.275   5.040 -0.6431 -0.5775  0.0799
  176DOPC  H15X21577   2.472   1.341   5.032 -0.8437 -0.4702 -1.4853
  176DOPC  H15Y21578   2.398   1.186   4.975  1.2442  0.2931 -0.7551
  176DOPC  C31621579   2.370   1.233   5.181 -0.3365 -0.0087 -0.6401
  176DOPC  H16X21580   2.354   1.322   5.245 -1.1529 -0.5589 -0.0616
  176DOPC  H16Y21581   2.276   1.173   5.177 -0.3460 -0.0246 -0.1604
  176DOPC  C31721582   2.491   1.158   5.237  1.0173 -0.3473  0.0057
  176DOPC  H17X21583   2.457   1.112   5.332  0.4912  0.7273  0.3557
  176DOPC  H17Y21584   2.520   1.068   5.179 -0.9783 -1.8718  1.2445
  176DOPC  C31821585   2.608   1.252   5.265  0.1628 -0.7562 -0.0197
  176DOPC  H18X21586   2.572   1.340   5.322 -0.9046 -0.5197 -1.0200
  176DOPC  H18Y21587   2.688   1.210   5.330  0.2895  2.5657  2.2149
  176DOPC  H18Z21588   2.645   1.276   5.163  1.0700 -2.6203 -0.1852
  177DOPC     N21589   4.983   6.541   2.803 -0.2408 -0.1078  0.3130
  177DOPC   C1221590   4.888   6.546   2.920 -0.5541  0.0878 -0.4735
  177DOPC  H12A21591   4.877   6.441   2.942 -0.1188 -0.2009 -1.5792
  177DOPC  H12B21592   4.791   6.579   2.886 -1.0226 -3.1788 -2.8531
  177DOPC   C1321593   5.044   6.678   2.777 -0.7660 -0.1405  0.3102
  177DOPC  H13A21594   5.105   6.682   2.688  1.1493 -0.7199  1.5423
  177DOPC  H13B21595   4.978   6.763   2.770  0.1832  0.6020  0.0389
  177DOPC  H13C21596   5.115   6.702   2.855 -0.6004  0.4490 -0.0108
  177DOPC   C1421597   4.918   6.491   2.672  0.1107 -0.2594 -0.5690
  177DOPC  H14A21598   4.852   6.559   2.619  0.4719 -0.7680 -1.7034
  177DOPC  H14B21599   4.991   6.464   2.598 -0.5555  0.6155 -1.5826
  177DOPC  H14C21600   4.871   6.398   2.700  0.3292 -0.2554 -0.1902
  177DOPC   C1521601   5.094   6.444   2.836 -1.0065  0.6038  0.1687
  177DOPC  H15A21602   5.067   6.343   2.809  1.0538  0.0077  0.2040
  177DOPC  H15B21603   5.128   6.446   2.938  0.0530  0.1682 -0.1579
  177DOPC  H15C21604   5.174   6.468   2.767 -2.1162  0.1681 -1.3393
  177DOPC   C1121605   4.935   6.609   3.054  0.4406 -0.7879 -0.4028
  177DOPC  H11A21606   4.936   6.719   3.040 -1.4747 -1.0347 -3.4184
  177DOPC  H11B21607   4.862   6.591   3.136  0.0599 -0.1357 -0.5857
  177DOPC     P21608   5.189   6.641   3.121 -0.1307  0.0399  0.3985
  177DOPC   O1321609   5.191   6.775   3.052  0.4392  0.0209  0.0877
  177DOPC   O1421610   5.300   6.553   3.078 -0.2184 -0.0317 -0.0406
  177DOPC   O1221611   5.056   6.560   3.103 -0.0987  0.4516 -0.3118
  177DOPC   O1121612   5.193   6.667   3.281 -0.1585 -0.3242  0.4723
  177DOPC    C121613   5.070   6.706   3.344  0.3663 -0.1222 -0.6578
  177DOPC    HA21614   4.991   6.628   3.343 -0.5884  0.8179 -0.7218
  177DOPC    HB21615   5.022   6.787   3.286  1.2067 -0.7579 -2.2777
  177DOPC    C221616   5.095   6.762   3.481 -1.0475  0.3584 -0.6019
  177DOPC    HS21617   5.146   6.861   3.473 -1.7172  0.8130  0.5104
  177DOPC   O2121618   5.159   6.668   3.565  0.0367  0.1199 -0.1793
  177DOPC   C2121619   5.248   6.713   3.655  0.8888  0.3531  0.8055
  177DOPC   O2221620   5.301   6.821   3.652  0.1947  0.1425 -0.1348
  177DOPC   C2221621   5.255   6.612   3.768 -0.2788  0.6124  0.0490
  177DOPC   H2R21622   5.245   6.512   3.721  1.5446  0.0818  0.7077
  177DOPC   H2S21623   5.185   6.643   3.848 -0.5804  3.8067 -1.2726
  177DOPC    C321624   4.960   6.813   3.553  0.7260 -0.1444  0.0881
  177DOPC    HX21625   4.883   6.735   3.533  0.4817  0.4749 -1.5625
  177DOPC    HY21626   4.919   6.897   3.493  0.6711 -0.2601 -0.0374
  177DOPC   O3121627   4.970   6.833   3.703  0.1398  0.0716 -0.0228
  177DOPC   C3121628   4.895   6.933   3.748  0.2185 -0.4184  0.6764
  177DOPC   O3221629   4.809   6.986   3.676  0.9646  0.2161  0.0910
  177DOPC   C3221630   4.930   6.965   3.891 -0.8181  0.4113  0.7712
  177DOPC   H2X21631   4.871   7.057   3.912 -1.2346  0.6403 -1.1856
  177DOPC   H2Y21632   4.902   6.875   3.950 -0.6313  0.1729  0.4981
  177DOPC   C2321633   5.398   6.620   3.825 -0.4527 -0.3055  0.0718
  177DOPC   H3R21634   5.387   6.568   3.923 -1.1200 -0.4513 -0.0723
  177DOPC   H3S21635   5.418   6.725   3.855  0.6251 -0.7380  0.9608
  177DOPC   C2421636   5.516   6.569   3.751 -0.0734 -0.5789 -0.7007
  177DOPC   H4R21637   5.608   6.609   3.798  0.0686  1.1163 -2.3049
  177DOPC   H4S21638   5.515   6.622   3.653 -0.0289 -1.1700 -1.0270
  177DOPC   C2521639   5.522   6.412   3.746  0.4226 -0.0762  0.4000
  177DOPC   H5R21640   5.420   6.384   3.710  0.7587  0.2700 -0.8963
  177DOPC   H5S21641   5.542   6.368   3.846  0.9986  0.6163  0.5936
  177DOPC   C2621642   5.630   6.352   3.662 -0.0675  1.0551 -0.3581
  177DOPC   H6R21643   5.605   6.385   3.559 -1.4743  3.2089  0.6005
  177DOPC   H6S21644   5.620   6.244   3.686  0.3261  1.7328  3.6311
  177DOPC   C2721645   5.763   6.402   3.694  1.0383 -0.3563 -0.2159
  177DOPC   H7R21646   5.763   6.394   3.805 -2.9046 -2.4293 -0.1890
  177DOPC   H7S21647   5.774   6.507   3.660  2.1127 -0.5822 -0.5943
  177DOPC   C2821648   5.868   6.305   3.643 -1.1765  0.5172  0.2648
  177DOPC   H8R21649   5.869   6.311   3.532  1.8541 -1.7814  0.0285
  177DOPC   H8S21650   5.846   6.201   3.676 -1.1212 -0.6842 -3.1504
  177DOPC   C2921651   6.014   6.349   3.685 -0.0572  0.2550 -0.2466
  177DOPC   H9R21652   6.045   6.449   3.653  3.0509 -0.5066  0.0411
  177DOPC  C21021653   6.103   6.282   3.762  1.0285 -0.5337 -0.5419
  177DOPC  H10R21654   6.186   6.340   3.804 -1.4149  2.9300 -0.1352
  177DOPC  C21121655   6.081   6.138   3.812 -0.0950  0.4582  0.5632
  177DOPC  H11R21656   6.169   6.071   3.804 -1.8712 -1.7970 -1.7621
  177DOPC  H11S21657   6.017   6.079   3.744  1.8350  0.7988 -1.6573
  177DOPC  C21221658   6.028   6.127   3.954 -0.4403 -0.1471  0.1258
  177DOPC  H12R21659   6.014   6.021   3.982 -0.7903 -0.3085 -0.6139
  177DOPC  H12S21660   5.926   6.170   3.965 -0.5135 -0.7069  1.8910
  177DOPC  C21321661   6.123   6.187   4.062  0.0104 -0.0649 -0.8562
  177DOPC  H13R21662   6.143   6.289   4.023 -0.2663 -0.2426 -1.4749
  177DOPC  H13S21663   6.220   6.131   4.061 -0.6498 -1.2479 -0.6687
  177DOPC  C21421664   6.071   6.181   4.206  0.0328 -0.5538 -0.2584
  177DOPC  H14R21665   6.149   6.208   4.280 -1.5021  0.2076  1.1698
  177DOPC  H14S21666   6.042   6.080   4.243 -1.7634 -0.7085 -1.9373
  177DOPC  C21521667   5.955   6.278   4.227  0.7604 -0.3128  0.3008
  177DOPC  H15R21668   5.862   6.261   4.169 -0.5356 -0.1582  2.2602
  177DOPC  H15S21669   5.994   6.379   4.200  0.4459  0.3522  2.1783
  177DOPC  C21621670   5.911   6.287   4.374  0.0159 -0.7030 -0.0813
  177DOPC  H16R21671   5.831   6.364   4.378  1.2820  0.6526  0.0528
  177DOPC  H16S21672   5.997   6.316   4.438  1.2041 -2.0580 -0.9873
  177DOPC  C21721673   5.845   6.161   4.443  0.2813 -0.4173 -0.2131
  177DOPC  H17R21674   5.919   6.079   4.430  3.0950  1.4902  2.3976
  177DOPC  H17S21675   5.753   6.122   4.395 -0.2554 -0.3807  0.7480
  177DOPC  C21821676   5.819   6.172   4.588  0.2771 -0.8460 -0.4244
  177DOPC  H18R21677   5.908   6.176   4.655 -0.8969 -0.1303  1.1409
  177DOPC  H18S21678   5.765   6.082   4.621 -0.6908  0.3055  1.2576
  177DOPC  H18T21679   5.747   6.255   4.603 -1.1132 -2.2144  0.6778
  177DOPC   C3321680   5.074   7.002   3.928 -0.3376  0.4182  0.0988
  177DOPC   H3X21681   5.096   7.101   3.883 -1.7555  0.7234  0.0448
  177DOPC   H3Y21682   5.148   6.927   3.891 -0.8179 -1.0456  1.9814
  177DOPC   C3421683   5.093   7.001   4.084  0.5359  0.0249  0.3473
  177DOPC   H4X21684   5.067   6.908   4.139 -1.5448  1.2304  1.5320
  177DOPC   H4Y21685   5.026   7.076   4.131 -1.0216 -0.9888 -0.1795
  177DOPC   C3521686   5.240   7.034   4.121  0.0614 -0.0979 -0.4527
  177DOPC   H5X21687   5.269   7.133   4.079  2.3591 -0.8507 -0.7756
  177DOPC   H5Y21688   5.301   6.960   4.065 -0.3290 -1.1962  0.5299
  177DOPC   C3621689   5.261   7.045   4.273 -0.6034  0.8900  1.2503
  177DOPC   H6X21690   5.204   7.131   4.312  0.3268  2.2528 -0.2919
  177DOPC   H6Y21691   5.232   6.961   4.340  1.0761 -0.9759 -0.1918
  177DOPC   C3721692   5.411   7.063   4.312  0.1413 -0.5708 -0.9536
  177DOPC   H7X21693   5.475   6.978   4.281  1.5200  0.4161 -0.8781
  177DOPC   H7Y21694   5.435   7.158   4.259 -0.9986  0.9391  1.0825
  177DOPC   C3821695   5.416   7.082   4.467  1.3522 -0.3548  0.1222
  177DOPC   H8X21696   5.379   6.988   4.513 -0.8968 -0.1061 -1.0375
  177DOPC   H8Y21697   5.330   7.150   4.481 -0.8769 -2.5517 -1.8518
  177DOPC   C3921698   5.553   7.134   4.498 -0.3884  0.1034  0.6547
  177DOPC   H9X21699   5.630   7.063   4.466 -0.1820 -0.0971  1.5904
  177DOPC  C31021700   5.581   7.256   4.545  0.0162 -0.5065  1.1261
  177DOPC  H10X21701   5.688   7.273   4.564  0.4302 -3.1228  1.4870
  177DOPC  C31121702   5.488   7.369   4.579  0.1779  0.4868 -0.0943
  177DOPC  H11X21703   5.417   7.326   4.652  0.8397 -2.1690 -0.8918
  177DOPC  H11Y21704   5.438   7.405   4.487 -1.5264 -1.3505  0.0283
  177DOPC  C31221705   5.560   7.489   4.643 -0.3253  0.5931  0.0596
  177DOPC  H12X21706   5.477   7.563   4.648 -1.7363 -1.0054  1.3296
  177DOPC  H12Y21707   5.636   7.537   4.578 -0.6966 -0.2204 -1.0028
  177DOPC  C31321708   5.600   7.470   4.787  0.2836  0.4873  0.2362
  177DOPC  H13X21709   5.509   7.436   4.842  0.0031 -2.1497 -1.6575
  177DOPC  H13Y21710   5.676   7.390   4.799 -1.0957 -0.7786  0.8920
  177DOPC  C31421711   5.651   7.599   4.843 -0.3402  0.5147  1.0180
  177DOPC  H14X21712   5.751   7.625   4.804 -0.5674  1.1150  0.8206
  177DOPC  H14Y21713   5.582   7.680   4.809  0.9382  1.2978  0.1989
  177DOPC  C31521714   5.653   7.601   5.000 -0.1266  0.1122  0.3212
  177DOPC  H15X21715   5.679   7.502   5.045 -0.2529  0.3884  1.0214
  177DOPC  H15Y21716   5.549   7.622   5.029 -0.5347 -1.0783 -0.1875
  177DOPC  C31621717   5.744   7.706   5.054 -0.2425 -0.0656 -0.2371
  177DOPC  H16X21718   5.751   7.700   5.165 -0.5109  1.5328 -0.1080
  177DOPC  H16Y21719   5.849   7.699   5.017 -0.4971  0.1201 -1.0031
  177DOPC  C31721720   5.702   7.852   5.029  0.0161  0.0595 -0.1647
  177DOPC  H17X21721   5.720   7.888   4.926  0.9891  0.0351 -0.0115
  177DOPC  H17Y21722   5.591   7.851   5.037  0.1082  0.5799  1.8880
  177DOPC  C31821723   5.751   7.954   5.138  0.3498  0.3242  0.6943
  177DOPC  H18X21724   5.858   7.974   5.116  0.2075 -1.0302 -1.4431
  177DOPC  H18Y21725   5.693   8.049   5.129 -4.6134 -2.3961  0.6983
  177DOPC  H18Z21726   5.742   7.920   5.244 -1.8185  1.8371  1.0533
  178DOPC     N21727   2.626   6.585   2.892 -0.3716 -0.0548 -0.1824
  178DOPC   C1221728   2.687   6.466   2.814  0.2095 -0.4833 -0.1974
  178DOPC  H12A21729   2.745   6.511   2.734  0.0548  2.1779  1.0782
  178DOPC  H12B21730   2.609   6.402   2.776 -0.4661 -1.0648  2.0260
  178DOPC   C1321731   2.531   6.658   2.802  0.5132 -0.0216 -0.0402
  178DOPC  H13A21732   2.509   6.759   2.835 -1.4554  0.6303 -2.9304
  178DOPC  H13B21733   2.573   6.663   2.702  2.9035 -2.4412  0.7212
  178DOPC  H13C21734   2.433   6.613   2.796  0.1081  0.5637  1.7333
  178DOPC   C1421735   2.734   6.681   2.929 -0.2206 -0.0019 -0.4428
  178DOPC  H14A21736   2.812   6.622   2.976 -0.7446 -1.7239 -1.6425
  178DOPC  H14B21737   2.780   6.726   2.843 -0.3735  1.6346  0.3057
  178DOPC  H14C21738   2.699   6.754   2.999  1.0812 -0.5265  0.8150
  178DOPC   C1521739   2.554   6.537   3.013 -0.0779  0.7073 -0.1317
  178DOPC  H15A21740   2.619   6.501   3.091 -0.7353 -0.3720 -0.0556
  178DOPC  H15B21741   2.480   6.473   2.966  1.1291  0.9463 -2.5127
  178DOPC  H15C21742   2.494   6.616   3.056  0.4695  0.1075  1.8250
  178DOPC   C1121743   2.766   6.369   2.898  0.5147  0.2077 -0.0110
  178DOPC  H11A21744   2.694   6.320   2.968 -0.6301 -1.6477 -2.3190
  178DOPC  H11B21745   2.802   6.291   2.827  1.7350  0.5211  0.2480
  178DOPC     P21746   3.017   6.469   2.886  0.3912  0.2911  0.1507
  178DOPC   O1321747   2.998   6.579   2.785 -0.6213  0.3534  0.1399
  178DOPC   O1421748   3.086   6.346   2.846 -0.5628 -0.2301  0.2419
  178DOPC   O1221749   2.881   6.431   2.966  0.1609 -0.6976 -0.4688
  178DOPC   O1121750   3.103   6.528   2.998  0.2668  0.1022 -0.6119
  178DOPC    C121751   3.039   6.610   3.097 -0.4999 -0.1325 -0.2647
  178DOPC    HA21752   2.941   6.571   3.132 -0.3919 -1.4572 -1.3588
  178DOPC    HB21753   3.037   6.717   3.066 -0.0740  0.2976  1.1113
  178DOPC    C221754   3.127   6.628   3.228 -0.1357  0.1608  0.3313
  178DOPC    HS21755   3.232   6.625   3.192 -0.6565 -2.4778 -1.2451
  178DOPC   O2121756   3.097   6.510   3.299  0.5456  0.0868 -0.4980
  178DOPC   C2121757   3.177   6.404   3.289 -0.2155  0.4752  0.1155
  178DOPC   O2221758   3.284   6.397   3.230  0.0641  0.7386  0.1558
  178DOPC   C2221759   3.117   6.283   3.368  0.2197  0.1155  0.5551
  178DOPC   H2R21760   3.091   6.201   3.298 -1.7313  0.2325  1.0959
  178DOPC   H2S21761   3.018   6.319   3.402  0.1804  0.2183  0.3310
  178DOPC    C321762   3.107   6.752   3.315  0.1992  0.3210 -0.2756
  178DOPC    HX21763   2.997   6.761   3.330 -0.0071  0.7186 -1.8638
  178DOPC    HY21764   3.138   6.846   3.263  3.6035 -0.0792  0.7945
  178DOPC   O3121765   3.181   6.741   3.438 -0.0352 -0.1806  0.5505
  178DOPC   C3121766   3.316   6.758   3.428  0.0472  0.0262  0.4116
  178DOPC   O3221767   3.367   6.805   3.324 -0.5174 -0.0728 -0.2944
  178DOPC   C3221768   3.386   6.723   3.562 -0.1089  0.3574  0.5094
  178DOPC   H2X21769   3.488   6.769   3.563 -0.3910  1.0363 -0.3772
  178DOPC   H2Y21770   3.324   6.757   3.648 -0.9546 -0.2419  0.1468
  178DOPC   C2321771   3.194   6.227   3.482 -0.2786  0.5235 -0.3379
  178DOPC   H3R21772   3.229   6.310   3.547  2.7393  0.5261 -1.8092
  178DOPC   H3S21773   3.287   6.176   3.450  0.9435  1.3104  1.7489
  178DOPC   C2421774   3.116   6.128   3.570  0.4807 -0.1300  0.1976
  178DOPC   H4R21775   3.083   6.046   3.503  1.7076 -0.8340  0.4265
  178DOPC   H4S21776   3.017   6.167   3.604  1.1931  2.5600 -0.6368
  178DOPC   C2521777   3.206   6.075   3.682  0.4696 -0.2128  0.0196
  178DOPC   H5R21778   3.305   6.049   3.640  0.5560  0.4650 -0.2006
  178DOPC   H5S21779   3.149   5.983   3.709  1.9448 -1.3108 -0.4878
  178DOPC   C2621780   3.214   6.169   3.809  0.4727  0.1819  0.2139
  178DOPC   H6R21781   3.114   6.207   3.838 -0.5012 -1.1457 -1.2492
  178DOPC   H6S21782   3.287   6.251   3.790  2.0495 -1.0138  0.9040
  178DOPC   C2721783   3.266   6.084   3.930 -0.2859 -0.4523 -0.7267
  178DOPC   H7R21784   3.368   6.050   3.903  1.9615  4.9077 -0.2100
  178DOPC   H7S21785   3.194   6.002   3.950 -2.6065  2.2423  3.5999
  178DOPC   C2821786   3.276   6.172   4.059 -0.3391 -0.1112 -0.0706
  178DOPC   H8R21787   3.185   6.236   4.060  1.2354  2.2365  0.1258
  178DOPC   H8S21788   3.358   6.246   4.058  0.1273 -0.5320  2.1782
  178DOPC   C2921789   3.289   6.090   4.182  0.1830  0.3592  0.0790
  178DOPC   H9R21790   3.271   5.983   4.165 -3.4647  0.6112  1.4913
  178DOPC  C21021791   3.331   6.134   4.305 -0.6089  0.2197  1.1519
  178DOPC  H10R21792   3.345   6.067   4.391 -0.6160  1.5397  2.2294
  178DOPC  C21121793   3.368   6.280   4.333 -0.5035  0.0317 -0.3516
  178DOPC  H11R21794   3.282   6.348   4.321 -0.6232  0.4450  2.2448
  178DOPC  H11S21795   3.446   6.312   4.260 -0.7930  3.2055  0.5975
  178DOPC  C21221796   3.420   6.307   4.476  0.4012 -0.2817 -0.4238
  178DOPC  H12R21797   3.460   6.411   4.477  0.9393 -0.4843 -0.0803
  178DOPC  H12S21798   3.510   6.247   4.504 -0.9734 -0.8026  3.4501
  178DOPC  C21321799   3.312   6.303   4.588  0.1621 -0.0132  0.5552
  178DOPC  H13R21800   3.261   6.206   4.605  0.5063 -0.1719  0.6814
  178DOPC  H13S21801   3.230   6.370   4.554 -0.4201 -1.7750 -1.7347
  178DOPC  C21421802   3.374   6.343   4.725  0.7335 -0.5838 -0.4947
  178DOPC  H14R21803   3.470   6.291   4.745  0.2966 -1.0301  0.5227
  178DOPC  H14S21804   3.312   6.304   4.808  1.1436  3.1248  1.8087
  178DOPC  C21521805   3.384   6.492   4.755  0.4915  0.4200 -0.0702
  178DOPC  H15R21806   3.285   6.536   4.731 -0.3082 -2.2184 -2.0796
  178DOPC  H15S21807   3.460   6.538   4.689  0.3771 -0.5759 -0.9240
  178DOPC  C21621808   3.422   6.523   4.905 -0.5238  0.6845 -0.2220
  178DOPC  H16R21809   3.532   6.511   4.916 -0.4927 -0.4869 -1.4982
  178DOPC  H16S21810   3.378   6.445   4.971 -1.1978  0.5956 -0.7610
  178DOPC  C21721811   3.389   6.659   4.960  0.1976  0.2350 -0.4252
  178DOPC  H17R21812   3.281   6.685   4.949 -0.1965 -0.2587  1.7910
  178DOPC  H17S21813   3.438   6.737   4.898 -0.4072  0.0030 -1.2287
  178DOPC  C21821814   3.441   6.675   5.101  0.1415 -0.4116 -0.5455
  178DOPC  H18R21815   3.415   6.779   5.131  2.5887 -0.5691  2.6340
  178DOPC  H18S21816   3.547   6.648   5.117  0.4625  0.7721 -0.6084
  178DOPC  H18T21817   3.377   6.607   5.162 -1.1987 -0.2388 -1.6920
  178DOPC   C3321818   3.395   6.565   3.577 -0.1696 -0.2497  0.0289
  178DOPC   H3X21819   3.428   6.517   3.482 -0.1656 -1.5995  0.6861
  178DOPC   H3Y21820   3.297   6.519   3.602  0.5412 -2.5708 -1.1221
  178DOPC   C3421821   3.502   6.533   3.687  0.5069  0.3494  0.0169
  178DOPC   H4X21822   3.463   6.570   3.784  0.3268 -2.1301  0.9569
  178DOPC   H4Y21823   3.592   6.593   3.662  1.0411  0.0290  1.0975
  178DOPC   C3521824   3.542   6.392   3.682  0.5876  0.3461 -0.1558
  178DOPC   H5X21825   3.586   6.367   3.582  3.0776  3.0205  0.1454
  178DOPC   H5Y21826   3.452   6.328   3.683  1.1107 -0.4181  1.6850
  178DOPC   C3621827   3.632   6.344   3.795 -0.3203 -0.6569 -0.2976
  178DOPC   H6X21828   3.726   6.403   3.798 -0.5783 -0.0348 -2.7785
  178DOPC   H6Y21829   3.583   6.368   3.892 -1.7773  0.7312 -1.3317
  178DOPC   C3721830   3.657   6.194   3.785 -0.4789 -0.2680 -0.9850
  178DOPC   H7X21831   3.556   6.149   3.793 -0.8286  0.7676  1.2731
  178DOPC   H7Y21832   3.708   6.181   3.687  2.1662  0.1733  0.2435
  178DOPC   C3821833   3.756   6.138   3.885 -0.2153 -0.5729  0.4290
  178DOPC   H8X21834   3.849   6.199   3.885 -1.9456  2.2533 -0.4951
  178DOPC   H8Y21835   3.797   6.045   3.841  1.1634  0.8333 -1.4727
  178DOPC   C3921836   3.690   6.121   4.016  0.9359  0.0295  0.3194
  178DOPC   H9X21837   3.607   6.049   4.026 -1.5450  2.7685  0.6976
  178DOPC  C31021838   3.717   6.194   4.129 -0.2654 -0.3360 -0.5840
  178DOPC  H10X21839   3.650   6.180   4.215 -0.9214  0.0097 -1.0316
  178DOPC  C31121840   3.812   6.310   4.151  0.0060  0.1267  0.8156
  178DOPC  H11X21841   3.820   6.356   4.050 -2.9197  1.9510  1.2879
  178DOPC  H11Y21842   3.909   6.263   4.177 -0.1475 -0.7118 -0.0440
  178DOPC  C31221843   3.774   6.430   4.239 -0.4513 -0.1111  0.5198
  178DOPC  H12X21844   3.669   6.460   4.217 -0.5308 -0.1356  0.8571
  178DOPC  H12Y21845   3.851   6.504   4.209  0.2549 -1.1527 -0.2821
  178DOPC  C31321846   3.786   6.397   4.391 -0.8117 -0.2109 -0.0167
  178DOPC  H13X21847   3.727   6.314   4.434 -2.7381  1.1434  0.0685
  178DOPC  H13Y21848   3.892   6.367   4.408 -1.4619 -1.5272  2.2272
  178DOPC  C31421849   3.753   6.525   4.475  0.0094 -0.4216 -0.5375
  178DOPC  H14X21850   3.807   6.613   4.434 -0.1519  0.7295  1.5928
  178DOPC  H14Y21851   3.645   6.550   4.473  0.3757  1.2738 -0.3407
  178DOPC  C31521852   3.799   6.506   4.621 -1.1915  0.3670 -0.4563
  178DOPC  H15X21853   3.908   6.484   4.617 -1.5373 -2.1483  1.4695
  178DOPC  H15Y21854   3.752   6.417   4.667  1.3755 -0.2773  1.1632
  178DOPC  C31621855   3.789   6.630   4.702 -0.2663  0.0302 -1.0754
  178DOPC  H16X21856   3.866   6.706   4.675 -1.3831  2.2090  1.3788
  178DOPC  H16Y21857   3.691   6.678   4.683 -0.3269 -0.2547 -1.4847
  178DOPC  C31721858   3.821   6.600   4.855  0.2810  0.2734 -0.5396
  178DOPC  H17X21859   3.742   6.534   4.897  0.1903  0.7089  0.0043
  178DOPC  H17Y21860   3.918   6.546   4.855  0.1673  0.0662  0.0628
  178DOPC  C31821861   3.827   6.732   4.940  0.6427 -0.3060  0.4016
  178DOPC  H18X21862   3.907   6.804   4.910  1.7400 -1.3217  0.7977
  178DOPC  H18Y21863   3.732   6.789   4.936  1.0969  0.6457 -4.9163
  178DOPC  H18Z21864   3.854   6.706   5.045  1.5941  0.2138  0.3039
  179DOPC     N21865   6.087   6.746   3.136  0.7629 -0.3020 -0.2704
  179DOPC   C1221866   6.130   6.601   3.112 -0.3936  0.5614 -0.4588
  179DOPC  H12A21867   6.114   6.580   3.007  0.8122  2.2099 -1.0157
  179DOPC  H12B21868   6.067   6.542   3.176  0.3279  1.4459  1.1386
  179DOPC   C1321869   6.115   6.795   3.272  0.2587  0.1687 -0.9670
  179DOPC  H13A21870   6.211   6.844   3.278 -0.6781  1.9367  1.0131
  179DOPC  H13B21871   6.035   6.849   3.321  1.6641 -1.3511  3.5231
  179DOPC  H13C21872   6.121   6.709   3.337 -1.0534 -0.3986 -1.5560
  179DOPC   C1421873   5.938   6.750   3.123 -0.5334  0.2140  0.1427
  179DOPC  H14A21874   5.909   6.853   3.139 -1.5568  0.0038 -0.3061
  179DOPC  H14B21875   5.908   6.734   3.021  2.0856  0.5475 -0.7492
  179DOPC  H14C21876   5.887   6.684   3.192  1.5675  0.5025  2.1275
  179DOPC   C1521877   6.150   6.847   3.034  0.6211 -0.4964 -0.7229
  179DOPC  H15A21878   6.120   6.947   3.060 -0.4698 -1.2547  1.1188
  179DOPC  H15B21879   6.133   6.821   2.930  2.9611 -0.4569 -1.1581
  179DOPC  H15C21880   6.257   6.843   3.043  0.6760  0.3396 -1.0022
  179DOPC   C1121881   6.281   6.573   3.159  0.0147  0.1192 -0.0009
  179DOPC  H11A21882   6.287   6.604   3.265  1.0783 -0.8131  0.2240
  179DOPC  H11B21883   6.292   6.463   3.158 -4.3648 -0.5815 -3.0826
  179DOPC     P21884   6.458   6.579   2.978  0.2200  0.2163  0.4297
  179DOPC   O1321885   6.500   6.681   2.882  0.4101  0.1174 -0.4453
  179DOPC   O1421886   6.378   6.473   2.919  0.1395  0.3737  0.1556
  179DOPC   O1221887   6.376   6.654   3.084 -0.1384  0.1330 -0.6271
  179DOPC   O1121888   6.587   6.524   3.046  0.6486  1.1259  0.4973
  179DOPC    C121889   6.626   6.569   3.177 -0.6633  0.3815  0.4039
  179DOPC    HA21890   6.594   6.672   3.202  4.2713  2.3491 -0.3166
  179DOPC    HB21891   6.736   6.583   3.175 -0.5869 -0.2952 -0.6441
  179DOPC    C221892   6.578   6.473   3.295  0.2041 -0.3727  0.1591
  179DOPC    HS21893   6.468   6.489   3.293  0.2689  0.2265  1.1506
  179DOPC   O2121894   6.634   6.509   3.418 -0.0144 -0.5024  0.2003
  179DOPC   C2121895   6.553   6.492   3.527  0.5588  0.0974 -0.0995
  179DOPC   O2221896   6.434   6.459   3.520  0.0479 -0.3312  0.1209
  179DOPC   C2221897   6.626   6.529   3.655  0.2447  0.6723 -0.3164
  179DOPC   H2R21898   6.678   6.624   3.636  0.9768  0.2043 -0.6732
  179DOPC   H2S21899   6.692   6.445   3.685  0.8098  1.8529  1.9760
  179DOPC    C321900   6.618   6.321   3.263  0.0493  0.1261 -0.2319
  179DOPC    HX21901   6.726   6.301   3.251  0.5861  1.5919  1.7237
  179DOPC    HY21902   6.589   6.308   3.157  0.3599  0.4737 -0.3593
  179DOPC   O3121903   6.549   6.237   3.358  0.0882 -0.0978 -0.1016
  179DOPC   C3121904   6.425   6.204   3.327 -0.3422 -0.4233 -0.7931
  179DOPC   O3221905   6.371   6.233   3.221 -0.3473 -0.1466  0.0788
  179DOPC   C3221906   6.355   6.118   3.428  0.8757  0.0665 -0.7298
  179DOPC   H2X21907   6.295   6.186   3.493  1.2802 -0.7217  0.4914
  179DOPC   H2Y21908   6.292   6.047   3.371  0.7370  0.7000 -1.3775
  179DOPC   C2321909   6.516   6.536   3.765  0.1986  0.3078 -0.2664
  179DOPC   H3R21910   6.474   6.434   3.771 -1.2934  0.9913  2.3895
  179DOPC   H3S21911   6.430   6.596   3.730 -1.7900 -2.1663  0.1244
  179DOPC   C2421912   6.580   6.590   3.892 -0.4076  0.0720 -0.3709
  179DOPC   H4R21913   6.599   6.699   3.892 -1.8377  0.4528  2.6084
  179DOPC   H4S21914   6.667   6.524   3.912 -2.4047 -3.7547 -2.9939
  179DOPC   C2521915   6.489   6.580   4.012  0.0675 -0.1526  0.1077
  179DOPC   H5R21916   6.452   6.479   4.040  0.7677 -0.9018 -1.5379
  179DOPC   H5S21917   6.397   6.640   3.995  1.2733  1.5437 -0.7152
  179DOPC   C2621918   6.572   6.635   4.130 -0.4082 -0.3273 -0.0020
  179DOPC   H6R21919   6.637   6.719   4.096 -0.6594 -0.2963 -0.4237
  179DOPC   H6S21920   6.634   6.547   4.155 -0.3744  0.1557  1.7169
  179DOPC   C2721921   6.480   6.688   4.244 -0.0593 -1.0430  0.1757
  179DOPC   H7R21922   6.427   6.767   4.187  2.0208 -0.7099 -1.3887
  179DOPC   H7S21923   6.534   6.736   4.328  1.3456 -1.9251 -0.1933
  179DOPC   C2821924   6.376   6.588   4.311 -0.7059  0.3110  0.4049
  179DOPC   H8R21925   6.300   6.571   4.232  0.5128 -1.3073 -0.4973
  179DOPC   H8S21926   6.354   6.630   4.412  0.5832 -0.4211  1.0147
  179DOPC   C2921927   6.440   6.459   4.354  0.6789  0.3025 -0.2621
  179DOPC   H9R21928   6.514   6.415   4.286 -0.2996 -0.6736 -0.7215
  179DOPC  C21021929   6.428   6.386   4.466  0.3841 -0.0212  1.1462
  179DOPC  H10R21930   6.484   6.292   4.476 -0.9877 -1.0438 -0.3621
  179DOPC  C21121931   6.331   6.413   4.580 -0.0907 -0.6558 -0.2875
  179DOPC  H11R21932   6.248   6.480   4.550  0.5119  1.1354  1.8641
  179DOPC  H11S21933   6.377   6.460   4.669 -3.2460 -0.1136  1.1651
  179DOPC  C21221934   6.266   6.281   4.638  0.2649 -0.0845  0.4259
  179DOPC  H12R21935   6.346   6.219   4.682  1.0952  0.3608 -0.4172
  179DOPC  H12S21936   6.229   6.225   4.550  0.6639 -1.3183  1.0327
  179DOPC  C21321937   6.159   6.308   4.748 -1.3743  0.3779 -0.1367
  179DOPC  H13R21938   6.209   6.335   4.843 -0.5763  0.0166 -0.4486
  179DOPC  H13S21939   6.103   6.214   4.771  1.0434 -1.2088 -0.3736
  179DOPC  C21421940   6.044   6.406   4.718 -0.6445 -0.2259  0.0235
  179DOPC  H14R21941   5.967   6.373   4.791  1.7520 -3.5178  1.3297
  179DOPC  H14S21942   6.009   6.390   4.613  0.8413 -0.5456 -0.4582
  179DOPC  C21521943   6.075   6.558   4.746  0.1083 -0.3130 -0.1806
  179DOPC  H15R21944   6.176   6.585   4.708  0.7600  0.3270  1.8561
  179DOPC  H15S21945   6.098   6.563   4.855  1.2877 -2.5394 -0.2667
  179DOPC  C21621946   5.974   6.667   4.693 -0.1590 -0.8523 -0.3148
  179DOPC  H16R21947   6.016   6.763   4.729  2.1683 -1.9701  0.0912
  179DOPC  H16S21948   5.879   6.638   4.743 -0.4296 -1.3913 -1.1068
  179DOPC  C21721949   5.952   6.678   4.545 -0.2568  0.3210  0.2861
  179DOPC  H17R21950   5.866   6.748   4.534 -0.2640 -0.0629 -3.1729
  179DOPC  H17S21951   5.938   6.580   4.495  2.4208 -1.5555  2.8722
  179DOPC  C21821952   6.067   6.759   4.485  0.1310 -0.4591 -0.1588
  179DOPC  H18R21953   6.153   6.690   4.475 -0.0669 -1.0311  1.7500
  179DOPC  H18S21954   6.087   6.857   4.534 -3.8727  0.4005  0.1114
  179DOPC  H18T21955   6.044   6.786   4.380  0.1019  1.8313  0.3821
  179DOPC   C3321956   6.453   6.040   3.523 -0.6338 -0.2767  0.1992
  179DOPC   H3X21957   6.543   6.009   3.466 -2.6778 -1.4685 -2.6553
  179DOPC   H3Y21958   6.415   5.936   3.538  1.7363 -1.0822  1.0610
  179DOPC   C3421959   6.489   6.102   3.654 -0.3067 -0.3300 -0.6056
  179DOPC   H4X21960   6.403   6.140   3.713 -1.9677  0.7123 -3.4612
  179DOPC   H4Y21961   6.548   6.195   3.635 -3.2925  1.6869 -0.6802
  179DOPC   C3521962   6.582   6.009   3.732 -0.6100 -0.0367 -0.0740
  179DOPC   H5X21963   6.689   5.998   3.703  0.2050 -1.1535  2.9932
  179DOPC   H5Y21964   6.551   5.903   3.718  3.5282 -1.2713 -1.1672
  179DOPC   C3621965   6.585   6.026   3.887  0.8046 -0.3373  0.1609
  179DOPC   H6X21966   6.483   6.034   3.930 -0.0395 -2.8757 -1.1696
  179DOPC   H6Y21967   6.639   5.942   3.936  1.3116  1.0792  2.1622
  179DOPC   C3721968   6.681   6.140   3.920 -0.3274 -0.2914  0.2903
  179DOPC   H7X21969   6.776   6.112   3.869 -1.6052  1.7458 -3.5672
  179DOPC   H7Y21970   6.643   6.224   3.858 -0.6227  0.0508  0.9211
  179DOPC   C3821971   6.688   6.182   4.063 -0.0036  0.5241 -0.2058
  179DOPC   H8X21972   6.583   6.176   4.098 -0.4767  2.0430 -1.2727
  179DOPC   H8Y21973   6.729   6.283   4.084 -1.4009  0.7902  1.4799
  179DOPC   C3921974   6.774   6.081   4.145  0.1131  0.0977  0.3400
  179DOPC   H9X21975   6.827   6.005   4.086 -0.0108  0.8921 -0.8373
  179DOPC  C31021976   6.784   6.083   4.281 -0.3803  0.6205  0.6404
  179DOPC  H10X21977   6.863   6.028   4.333  0.5157  1.7768  0.5402
  179DOPC  C31121978   6.716   6.178   4.370  0.1455  0.1331  0.6106
  179DOPC  H11X21979   6.626   6.129   4.412  1.5256 -1.2189  2.1343
  179DOPC  H11Y21980   6.691   6.271   4.313  2.9160 -0.5499 -2.0085
  179DOPC  C31221981   6.785   6.213   4.501  0.4930 -0.6416  0.3609
  179DOPC  H12X21982   6.728   6.301   4.537  0.2312  0.5037 -2.5845
  179DOPC  H12Y21983   6.892   6.242   4.494  0.1632  0.1849 -1.7836
  179DOPC  C31321984   6.764   6.116   4.616  0.4624  0.4594 -0.5788
  179DOPC  H13X21985   6.659   6.133   4.648  0.9331  1.8924  0.2850
  179DOPC  H13Y21986   6.782   6.009   4.590 -1.4128 -0.3871  1.3009
  179DOPC  C31421987   6.842   6.153   4.747  0.2757  0.0938 -0.1966
  179DOPC  H14X21988   6.952   6.167   4.735  0.5131  2.1325  3.0418
  179DOPC  H14Y21989   6.813   6.258   4.765 -3.3767 -0.8909  0.3397
  179DOPC  C31521990   6.813   6.073   4.870  0.0948  0.2642 -0.2187
  179DOPC  H15X21991   6.872   5.979   4.863 -2.9524 -1.7317 -1.2776
  179DOPC  H15Y21992   6.713   6.026   4.863  0.1544 -0.0946  1.1095
  179DOPC  C31621993   6.824   6.142   5.008  0.0120  0.2595 -0.3713
  179DOPC  H16X21994   6.929   6.168   5.033 -0.4843  0.7045  1.3765
  179DOPC  H16Y21995   6.769   6.238   5.010 -0.9803 -0.2705  2.0000
  179DOPC  C31721996   6.790   6.057   5.135  0.4263 -0.7477  0.2928
  179DOPC  H17X21997   6.683   6.030   5.130 -0.0913  1.2957 -0.6302
  179DOPC  H17Y21998   6.851   5.964   5.144 -0.6463 -1.4304  0.6907
  179DOPC  C31821999   6.801   6.133   5.271 -0.4706  0.6103 -0.3701
  179DOPC  H18X22000   6.756   6.080   5.358 -0.1662  0.3759 -0.3527
  179DOPC  H18Y22001   6.904   6.171   5.286 -0.5450  1.0069 -0.8460
  179DOPC  H18Z22002   6.741   6.226   5.259  0.8581  1.8639  2.0311
  180DOPC     N22003   6.434   3.397   2.719  0.4443 -0.5273  0.0754
  180DOPC   C1222004   6.489   3.467   2.849  0.2593  0.3931  0.1942
  180DOPC  H12A22005   6.469   3.407   2.937 -0.8575  0.2799 -0.1292
  180DOPC  H12B22006   6.424   3.552   2.861 -0.0103  0.2256 -0.0687
  180DOPC   C1322007   6.434   3.501   2.608  0.4996 -0.7316  0.1736
  180DOPC  H13A22008   6.372   3.474   2.524  1.5317 -2.0282 -0.1979
  180DOPC  H13B22009   6.403   3.598   2.645  3.3709 -0.5437  2.5363
  180DOPC  H13C22010   6.538   3.517   2.581  1.0758 -2.3598  1.2617
  180DOPC   C1422011   6.291   3.361   2.737 -0.5754  0.1314 -0.2203
  180DOPC  H14A22012   6.273   3.275   2.800 -0.0664  1.9505  2.5451
  180DOPC  H14B22013   6.240   3.442   2.786 -0.9472 -1.3416  1.9579
  180DOPC  H14C22014   6.242   3.344   2.642 -0.2348  0.2781 -0.4258
  180DOPC   C1522015   6.516   3.280   2.672 -0.8946  0.3524  0.0252
  180DOPC  H15A22016   6.616   3.316   2.651 -0.7397  0.0496  0.2474
  180DOPC  H15B22017   6.485   3.247   2.574 -1.3228  3.0023 -0.8253
  180DOPC  H15C22018   6.530   3.206   2.749  0.0723 -0.1224 -0.5909
  180DOPC   C1122019   6.638   3.499   2.850  0.0239  0.1559  0.0241
  180DOPC  H11A22020   6.664   3.543   2.948  1.6806  0.5733 -0.5684
  180DOPC  H11B22021   6.687   3.401   2.832  0.8409  0.2230  1.7182
  180DOPC     P22022   6.640   3.749   2.760 -0.0463 -0.0018  0.0146
  180DOPC   O1322023   6.496   3.775   2.796  0.0519 -0.0084 -0.6673
  180DOPC   O1422024   6.693   3.824   2.642 -0.2363 -0.1023  0.4254
  180DOPC   O1222025   6.668   3.594   2.743 -0.3982 -0.5059 -0.1799
  180DOPC   O1122026   6.726   3.785   2.884  0.0274  0.0467 -0.8417
  180DOPC    C122027   6.739   3.927   2.911 -0.4463 -0.0052 -0.1931
  180DOPC    HA22028   6.686   3.995   2.842 -0.6668  0.4380  0.4034
  180DOPC    HB22029   6.841   3.967   2.894 -0.1117 -1.0991 -0.8716
  180DOPC    C222030   6.701   3.968   3.057  0.5061  0.5016 -0.2331
  180DOPC    HS22031   6.653   4.068   3.055  1.2188  0.8710  0.6763
  180DOPC   O2122032   6.812   3.966   3.147  0.7107 -1.0986  0.3812
  180DOPC   C2122033   6.883   4.074   3.142 -0.6011  0.1373  0.0135
  180DOPC   O2222034   6.857   4.177   3.078 -0.2684  0.0916  0.4469
  180DOPC   C2222035   7.008   4.049   3.228 -0.4526 -0.4473 -0.4431
  180DOPC   H2R22036   7.034   3.941   3.220 -0.5823 -0.6406  1.4135
  180DOPC   H2S22037   6.979   4.061   3.334 -2.6827 -2.7547 -0.6804
  180DOPC    C322038   6.594   3.865   3.118  0.2474 -0.8922  0.1704
  180DOPC    HX22039   6.642   3.766   3.124  2.8850  0.3341  0.6236
  180DOPC    HY22040   6.514   3.866   3.041  0.8647  1.9310 -0.5543
  180DOPC   O3122041   6.550   3.904   3.251  0.0040 -0.1774  0.1409
  180DOPC   C3122042   6.480   4.007   3.250  0.8332 -0.5814 -0.0844
  180DOPC   O3222043   6.451   4.078   3.153  0.4917  0.3263 -0.2837
  180DOPC   C3222044   6.422   4.025   3.395 -0.2882 -0.5506  0.9767
  180DOPC   H2X22045   6.347   4.105   3.383 -0.6344 -0.8445  1.1796
  180DOPC   H2Y22046   6.371   3.929   3.418  0.1483 -0.9903  0.1615
  180DOPC   C2322047   7.128   4.142   3.192 -0.6847 -0.1444 -0.9888
  180DOPC   H3R22048   7.097   4.249   3.187  1.5874  0.6301 -0.0017
  180DOPC   H3S22049   7.165   4.113   3.091  0.1065 -1.0397 -0.4550
  180DOPC   C2422050   7.254   4.131   3.276  0.0281  0.5611  0.3219
  180DOPC   H4R22051   7.343   4.176   3.227  0.7558 -2.5600 -1.5293
  180DOPC   H4S22052   7.274   4.023   3.293 -0.5658  0.5166  0.7721
  180DOPC   C2522053   7.235   4.195   3.415  0.0378  0.0187  0.7588
  180DOPC   H5R22054   7.143   4.161   3.467 -0.2364 -0.7656 -0.2180
  180DOPC   H5S22055   7.230   4.304   3.396  0.4036 -0.4513 -2.6156
  180DOPC   C2622056   7.357   4.188   3.509 -0.4872  0.3922  1.1100
  180DOPC   H6R22057   7.451   4.221   3.461  0.8541 -2.1282  1.8641
  180DOPC   H6S22058   7.377   4.083   3.537 -0.2289 -0.1913 -1.0806
  180DOPC   C2722059   7.329   4.273   3.634  0.1179 -0.5358  0.5846
  180DOPC   H7R22060   7.259   4.227   3.707 -0.3631  0.3886  0.7328
  180DOPC   H7S22061   7.286   4.372   3.606 -2.7115 -1.5348  1.0897
  180DOPC   C2822062   7.451   4.320   3.715 -0.3539 -0.7562 -0.0033
  180DOPC   H8R22063   7.423   4.385   3.802 -0.5393 -0.0286 -0.5938
  180DOPC   H8S22064   7.519   4.383   3.654  1.5052  0.3555  2.9808
  180DOPC   C2922065   7.533   4.206   3.759 -0.1137  0.1248  0.1495
  180DOPC   H9R22066   7.567   4.137   3.681  1.3887 -1.1016  1.8126
  180DOPC  C21022067   7.546   4.161   3.881 -0.1481 -1.0650 -0.3934
  180DOPC  H10R22068   7.618   4.079   3.892  1.7350  0.6538  0.7142
  180DOPC  C21122069   7.506   4.224   4.014 -0.2299  0.4519  0.3744
  180DOPC  H11R22070   7.421   4.291   3.991 -0.1218  0.2063 -0.8073
  180DOPC  H11S22071   7.593   4.285   4.044  0.1903  0.6217 -1.1119
  180DOPC  C21222072   7.462   4.123   4.121 -0.1481  0.0846 -0.6470
  180DOPC  H12R22073   7.394   4.042   4.087 -1.2348 -0.2592  2.1272
  180DOPC  H12S22074   7.403   4.181   4.194 -1.9246 -1.5726 -0.6819
  180DOPC  C21322075   7.584   4.061   4.202  0.0263  0.4890 -0.3905
  180DOPC  H13R22076   7.670   4.132   4.197  0.6525 -0.1851  0.3614
  180DOPC  H13S22077   7.628   3.966   4.165  0.8466  0.3460  0.8688
  180DOPC  C21422078   7.548   4.035   4.350 -0.0530 -0.7122 -0.5073
  180DOPC  H14R22079   7.461   3.966   4.349 -1.0985  0.5467  0.2994
  180DOPC  H14S22080   7.518   4.129   4.400  2.5405 -0.3431  0.4655
  180DOPC  C21522081   7.669   3.988   4.422  0.4945 -0.1340  0.2567
  180DOPC  H15R22082   7.755   4.059   4.410 -0.3367  1.2926  2.1833
  180DOPC  H15S22083   7.689   3.890   4.374  1.8640 -0.3633  1.2498
  180DOPC  C21622084   7.637   3.970   4.574 -0.7876 -0.1817 -0.2759
  180DOPC  H16R22085   7.718   3.904   4.609  0.5771  1.2639 -0.6107
  180DOPC  H16S22086   7.548   3.904   4.585 -0.6670 -0.7776 -2.4245
  180DOPC  C21722087   7.640   4.099   4.650 -0.3753 -0.9981 -0.0431
  180DOPC  H17R22088   7.626   4.083   4.759  3.3549 -0.1621  0.7152
  180DOPC  H17S22089   7.557   4.159   4.608  1.1017  0.3422 -1.1436
  180DOPC  C21822090   7.767   4.184   4.648 -0.2085 -0.0790  0.1888
  180DOPC  H18R22091   7.853   4.119   4.678 -0.8245 -1.4762 -0.9472
  180DOPC  H18S22092   7.758   4.265   4.723  0.6989 -0.5737  0.8592
  180DOPC  H18T22093   7.799   4.215   4.546  0.2452 -0.0372  0.3385
  180DOPC   C3322094   6.537   4.057   3.490 -0.5263 -0.4418 -0.2131
  180DOPC   H3X22095   6.585   4.154   3.465 -0.0068 -0.0239  2.1827
  180DOPC   H3Y22096   6.614   3.978   3.485  0.6573  0.6788 -0.3174
  180DOPC   C3422097   6.492   4.064   3.639  0.3237  1.4231  0.3989
  180DOPC   H4X22098   6.457   3.962   3.666 -3.0732  2.3641 -0.0162
  180DOPC   H4Y22099   6.403   4.131   3.645 -1.1883 -0.0433 -3.0431
  180DOPC   C3522100   6.591   4.117   3.738 -0.1024 -0.3229 -0.4919
  180DOPC   H5X22101   6.613   4.220   3.704  0.0674 -0.3532 -0.4749
  180DOPC   H5Y22102   6.680   4.051   3.728 -1.1189 -1.4614 -3.2537
  180DOPC   C3622103   6.538   4.103   3.886 -0.5896 -0.0636  0.5224
  180DOPC   H6X22104   6.441   4.151   3.909 -0.3660  0.2408  0.8398
  180DOPC   H6Y22105   6.522   3.995   3.908 -1.2443 -0.3047 -1.0128
  180DOPC   C3722106   6.633   4.158   3.986 -0.1870 -0.5233  0.0587
  180DOPC   H7X22107   6.739   4.167   3.954 -0.2718  1.6307  0.2470
  180DOPC   H7Y22108   6.594   4.258   4.013  0.0724 -0.9320  2.1465
  180DOPC   C3822109   6.618   4.081   4.121 -0.3441 -0.0742 -0.1123
  180DOPC   H8X22110   6.705   4.104   4.186 -0.3335 -2.5124  0.8498
  180DOPC   H8Y22111   6.635   3.973   4.098  0.2782  0.0601 -0.3235
  180DOPC   C3922112   6.488   4.106   4.187 -0.2603 -0.7790 -0.1900
  180DOPC   H9X22113   6.398   4.082   4.129 -0.5670  2.0054 -1.0116
  180DOPC  C31022114   6.463   4.179   4.299  0.5065 -0.0876 -0.2376
  180DOPC  H10X22115   6.358   4.196   4.329  0.7326  2.4776 -0.6606
  180DOPC  C31122116   6.567   4.254   4.381  0.1344 -0.1936 -0.7666
  180DOPC  H11X22117   6.659   4.264   4.320  0.3675  1.5429 -0.1892
  180DOPC  H11Y22118   6.600   4.184   4.461 -2.0147 -1.1572 -0.6528
  180DOPC  C31222119   6.520   4.392   4.440 -0.2550 -0.2154 -0.3108
  180DOPC  H12X22120   6.468   4.453   4.364  0.7879  1.9729  0.6175
  180DOPC  H12Y22121   6.612   4.446   4.473 -0.0202 -0.9869  0.3233
  180DOPC  C31322122   6.437   4.377   4.561  0.3246  0.2247 -0.2079
  180DOPC  H13X22123   6.347   4.329   4.519  0.5500 -0.6502  0.2832
  180DOPC  H13Y22124   6.485   4.297   4.622 -2.3033 -1.6435 -0.4288
  180DOPC  C31422125   6.400   4.502   4.643  0.3689 -0.5975 -0.1929
  180DOPC  H14X22126   6.488   4.520   4.707  1.0493 -0.6540 -1.0884
  180DOPC  H14Y22127   6.383   4.594   4.582 -0.6335 -0.5327  0.1536
  180DOPC  C31522128   6.267   4.497   4.721 -0.2830 -0.1976  0.1869
  180DOPC  H15X22129   6.185   4.482   4.648 -2.1249  0.6335  2.0078
  180DOPC  H15Y22130   6.264   4.599   4.766  0.1860  0.4341 -1.1428
  180DOPC  C31622131   6.265   4.380   4.820 -0.6474 -0.2850  0.1307
  180DOPC  H16X22132   6.278   4.286   4.761 -0.5555 -0.5083  0.4993
  180DOPC  H16Y22133   6.357   4.387   4.882 -0.2090  1.3863 -0.6542
  180DOPC  C31722134   6.131   4.361   4.891 -0.2404  0.0312  0.6850
  180DOPC  H17X22135   6.102   4.459   4.932 -1.7325  1.3435 -3.0121
  180DOPC  H17Y22136   6.056   4.323   4.818 -0.6489 -0.4977  1.3625
  180DOPC  C31822137   6.140   4.260   5.004  0.1769 -0.1006  0.1455
  180DOPC  H18X22138   6.054   4.271   5.073 -0.1402  1.7900 -0.4793
  180DOPC  H18Y22139   6.138   4.156   4.966 -3.7789 -0.2468  0.3551
  180DOPC  H18Z22140   6.237   4.272   5.058  1.1334  2.1579 -1.8833
  181DOPC     N22141   7.622   3.073   2.438 -0.2182  0.1406  0.3221
  181DOPC   C1222142   7.607   3.207   2.510 -0.0301  0.3455 -0.2442
  181DOPC  H12A22143   7.511   3.245   2.479 -0.3763 -1.7646 -2.0229
  181DOPC  H12B22144   7.673   3.284   2.475  1.6137 -0.8688  0.0383
  181DOPC   C1322145   7.569   3.096   2.300 -0.3913 -0.1620 -0.0046
  181DOPC  H13A22146   7.614   3.181   2.250  1.8770 -0.4106  1.4601
  181DOPC  H13B22147   7.590   3.014   2.233 -0.5348 -0.1434 -0.0740
  181DOPC  H13C22148   7.462   3.111   2.305 -0.6022 -1.4020 -0.5196
  181DOPC   C1422149   7.552   2.962   2.503 -0.4377  0.0017 -0.1883
  181DOPC  H14A22150   7.449   2.959   2.472  0.1591  1.8863 -2.6910
  181DOPC  H14B22151   7.597   2.868   2.472  0.0862 -0.0377  0.6611
  181DOPC  H14C22152   7.562   2.974   2.610  0.0036 -0.6785 -0.1420
  181DOPC   C1522153   7.764   3.041   2.434 -0.1391  0.0881 -0.6900
  181DOPC  H15A22154   7.802   3.027   2.535 -0.4128  0.1204 -0.5799
  181DOPC  H15B22155   7.817   3.120   2.384 -1.1379  1.3463  0.1731
  181DOPC  H15C22156   7.783   2.946   2.387  2.7033  1.4940 -2.6305
  181DOPC   C1122157   7.617   3.210   2.669 -0.0230 -0.0776 -0.3949
  181DOPC  H11A22158   7.538   3.154   2.724 -0.3416  1.8180  1.1433
  181DOPC  H11B22159   7.709   3.164   2.709 -0.1127 -1.4582 -1.6735
  181DOPC     P22160   7.472   3.424   2.717 -0.4217 -0.1126  0.4620
  181DOPC   O1322161   7.364   3.346   2.651  0.2274 -0.5672  0.2411
  181DOPC   O1422162   7.503   3.555   2.657  0.3284 -0.0461 -0.9144
  181DOPC   O1222163   7.609   3.344   2.716 -0.3541  0.0376  0.5776
  181DOPC   O1122164   7.434   3.444   2.864  0.1168 -0.2267  0.3474
  181DOPC    C122165   7.518   3.394   2.966  0.5268 -0.6142 -0.0192
  181DOPC    HA22166   7.586   3.313   2.934 -0.4208 -2.0670  1.4527
  181DOPC    HB22167   7.457   3.359   3.053 -0.7493 -1.9853 -1.3933
  181DOPC    C222168   7.584   3.519   3.031 -0.3017  0.8164  0.4134
  181DOPC    HS22169   7.651   3.560   2.952 -0.9599  2.6125  0.7278
  181DOPC   O2122170   7.675   3.470   3.128 -0.3185  1.2230 -0.2336
  181DOPC   C2122171   7.758   3.555   3.186  0.1834 -0.1075  0.0089
  181DOPC   O2222172   7.764   3.671   3.162  0.0646  0.0949 -0.0359
  181DOPC   C2222173   7.855   3.476   3.282  0.3080  0.6344 -0.3459
  181DOPC   H2R22174   7.947   3.473   3.220 -1.5266  0.3909 -3.2387
  181DOPC   H2S22175   7.812   3.377   3.305  2.0628  0.1688  1.2127
  181DOPC    C322176   7.480   3.624   3.082 -0.3596  0.8036 -0.1143
  181DOPC    HX22177   7.401   3.649   3.009  0.0110  1.8036 -0.1904
  181DOPC    HY22178   7.536   3.716   3.110  1.3149 -0.2876  0.2994
  181DOPC   O3122179   7.412   3.573   3.200 -0.8429  0.2801  0.4678
  181DOPC   C3122180   7.303   3.633   3.236  0.3078 -0.2257  0.1883
  181DOPC   O3222181   7.261   3.732   3.184  0.1612 -0.0737  0.3508
  181DOPC   C3222182   7.237   3.567   3.357  0.4308  0.0132 -0.9349
  181DOPC   H2X22183   7.191   3.473   3.320 -0.2367 -0.9088  1.9426
  181DOPC   H2Y22184   7.311   3.534   3.433  1.3526  1.2989 -1.2479
  181DOPC   C2322185   7.873   3.567   3.407 -0.6409 -0.6935 -0.3599
  181DOPC   H3R22186   7.890   3.674   3.383 -1.6588  0.8029  4.4695
  181DOPC   H3S22187   7.952   3.521   3.471 -0.6799 -2.5778 -1.6022
  181DOPC   C2422188   7.745   3.558   3.497  0.9318 -0.5274 -0.1126
  181DOPC   H4R22189   7.729   3.451   3.524  0.6662 -0.0891  1.5670
  181DOPC   H4S22190   7.657   3.592   3.440  1.9793  1.6288 -0.5462
  181DOPC   C2522191   7.754   3.641   3.634  0.3618  0.7146  0.0231
  181DOPC   H5R22192   7.731   3.748   3.615  1.4990  0.8864 -0.5323
  181DOPC   H5S22193   7.851   3.653   3.687  0.3146 -2.1395  0.9012
  181DOPC   C2622194   7.651   3.592   3.735 -0.0203  0.0893  0.2949
  181DOPC   H6R22195   7.696   3.618   3.834  0.0151 -2.8063  1.1244
  181DOPC   H6S22196   7.647   3.481   3.731 -2.1890 -0.0213  2.5857
  181DOPC   C2722197   7.514   3.648   3.714 -0.3837 -0.3652 -0.6087
  181DOPC   H7R22198   7.475   3.599   3.623  1.3900 -1.7397 -0.6934
  181DOPC   H7S22199   7.522   3.756   3.690 -3.6334  0.0632 -0.1525
  181DOPC   C2822200   7.430   3.635   3.839  0.3046  0.4223 -0.0173
  181DOPC   H8R22201   7.429   3.530   3.877 -0.2208  0.7299  0.8468
  181DOPC   H8S22202   7.324   3.667   3.828  0.6645  2.1254  1.0824
  181DOPC   C2922203   7.482   3.725   3.953  1.3470 -0.3218  0.5161
  181DOPC   H9R22204   7.485   3.834   3.936  1.7698 -0.5657 -1.1412
  181DOPC  C21022205   7.542   3.684   4.064 -0.3779  0.2106 -0.2520
  181DOPC  H10R22206   7.583   3.761   4.131  0.1820 -1.6761  1.7001
  181DOPC  C21122207   7.571   3.540   4.103  0.3442 -0.4470  0.8183
  181DOPC  H11R22208   7.676   3.519   4.074  0.2281 -1.4338  1.0824
  181DOPC  H11S22209   7.498   3.475   4.051  0.9722 -0.2501 -0.3302
  181DOPC  C21222210   7.564   3.526   4.255  0.4968  0.2371  0.0585
  181DOPC  H12R22211   7.667   3.536   4.294  0.8530 -1.1533 -0.4579
  181DOPC  H12S22212   7.538   3.419   4.270 -1.3226  0.2201 -2.4875
  181DOPC  C21322213   7.454   3.605   4.327 -0.3304 -0.1982 -0.5200
  181DOPC  H13R22214   7.356   3.583   4.281 -1.3028  0.9114  0.9135
  181DOPC  H13S22215   7.460   3.716   4.323 -1.2472 -0.1506 -0.6753
  181DOPC  C21422216   7.434   3.546   4.476  0.2790  0.2705  0.3690
  181DOPC  H14R22217   7.533   3.549   4.526  0.4390 -1.9392  0.2564
  181DOPC  H14S22218   7.397   3.442   4.471 -0.9934  0.7214  0.0085
  181DOPC  C21522219   7.344   3.643   4.547  0.1827 -0.0930 -0.9448
  181DOPC  H15R22220   7.254   3.652   4.482 -0.0341  1.6431 -0.4587
  181DOPC  H15S22221   7.385   3.747   4.549 -0.4783  0.1645  0.4672
  181DOPC  C21622222   7.307   3.586   4.690 -0.0724  0.2914 -0.0160
  181DOPC  H16R22223   7.401   3.551   4.739  0.3723 -0.1316 -1.1311
  181DOPC  H16S22224   7.245   3.496   4.671 -0.7108  0.8131 -0.4665
  181DOPC  C21722225   7.237   3.686   4.786 -0.0802  0.0466 -0.4419
  181DOPC  H17R22226   7.135   3.707   4.746 -0.8445 -0.7827  1.0177
  181DOPC  H17S22227   7.291   3.783   4.793 -0.9941  0.4968  0.6535
  181DOPC  C21822228   7.213   3.617   4.923 -0.3627 -0.2100 -0.1703
  181DOPC  H18R22229   7.305   3.586   4.977 -0.5037  0.8232  0.6853
  181DOPC  H18S22230   7.152   3.525   4.907  0.0684 -0.3850 -0.8881
  181DOPC  H18T22231   7.161   3.685   4.993  0.8419 -0.3834  0.9302
  181DOPC   C3322232   7.131   3.669   3.411  0.1565 -0.3388  0.5006
  181DOPC   H3X22233   7.049   3.699   3.342  0.4245 -0.1964  0.2447
  181DOPC   H3Y22234   7.186   3.763   3.431 -0.7086  0.4045 -0.4958
  181DOPC   C3422235   7.051   3.616   3.536  0.0601 -0.6587  0.6123
  181DOPC   H4X22236   7.125   3.578   3.610 -1.2588 -2.5870  1.0053
  181DOPC   H4Y22237   6.982   3.533   3.514 -2.0050  1.1312 -0.0059
  181DOPC   C3522238   6.968   3.734   3.594 -0.7566 -0.4686  0.1817
  181DOPC   H5X22239   6.889   3.683   3.653 -0.4629 -0.4849  0.5584
  181DOPC   H5Y22240   6.920   3.805   3.523 -0.7236  0.1484  0.7698
  181DOPC   C3622241   7.065   3.825   3.675 -0.7429 -0.4771  1.1893
  181DOPC   H6X22242   7.105   3.756   3.753  0.5088  0.5473  1.4787
  181DOPC   H6Y22243   7.153   3.862   3.619 -1.7216  1.4375  0.8479
  181DOPC   C3722244   6.979   3.939   3.733  0.3995  0.0838  0.1588
  181DOPC   H7X22245   6.929   3.987   3.646  1.4067 -0.7241 -0.8969
  181DOPC   H7Y22246   6.902   3.896   3.801 -0.3700 -2.2178 -1.9956
  181DOPC   C3822247   7.055   4.041   3.821 -0.6408  0.1888  0.1303
  181DOPC   H8X22248   6.988   4.105   3.883 -0.5549  0.0855  0.3297
  181DOPC   H8Y22249   7.125   4.113   3.773  0.3146 -0.4250  0.5594
  181DOPC   C3922250   7.152   3.962   3.907 -0.0082 -0.2671  0.4602
  181DOPC   H9X22251   7.256   3.961   3.873 -0.1657 -2.4002 -0.0895
  181DOPC  C31022252   7.132   3.926   4.038  0.6778 -0.9316 -0.2170
  181DOPC  H10X22253   7.200   3.851   4.083  1.9260  0.1092 -0.3025
  181DOPC  C31122254   6.996   3.932   4.104  0.2205  0.0019 -0.0088
  181DOPC  H11X22255   6.963   3.829   4.130  1.4241 -0.5032 -0.3948
  181DOPC  H11Y22256   6.919   3.980   4.040  1.2747  2.3189  0.3811
  181DOPC  C31222257   7.013   4.013   4.231  0.2814 -0.3961 -0.0036
  181DOPC  H12X22258   6.918   4.002   4.288  1.5539 -1.7725  1.9807
  181DOPC  H12Y22259   7.031   4.122   4.216  1.7573 -0.6069  0.0697
  181DOPC  C31322260   7.109   3.973   4.339 -0.4523 -0.6760  0.9990
  181DOPC  H13X22261   7.088   3.870   4.375 -2.2400 -0.7520 -0.1579
  181DOPC  H13Y22262   7.209   3.987   4.294 -0.6286  0.7119  1.0079
  181DOPC  C31422263   7.103   4.065   4.462 -0.0226  0.1443 -0.1062
  181DOPC  H14X22264   7.126   4.172   4.439  0.1250 -0.2760 -2.1338
  181DOPC  H14Y22265   7.001   4.061   4.504 -0.0755  0.6979 -0.1735
  181DOPC  C31522266   7.206   4.002   4.561  0.1939 -0.8736 -0.3347
  181DOPC  H15X22267   7.298   3.984   4.501 -0.5841 -0.6542 -1.6282
  181DOPC  H15Y22268   7.162   3.908   4.602  1.0786 -1.2859 -0.3077
  181DOPC  C31622269   7.240   4.103   4.676  0.5837  0.0772 -0.6292
  181DOPC  H16X22270   7.300   4.058   4.758  0.3309  2.7707  1.1633
  181DOPC  H16Y22271   7.297   4.194   4.646 -3.1906  2.3259 -1.6691
  181DOPC  C31722272   7.105   4.145   4.752  0.0364  0.2511 -0.0058
  181DOPC  H17X22273   7.135   4.213   4.834  1.0268 -2.0174  1.6316
  181DOPC  H17Y22274   7.037   4.204   4.687 -1.2616 -1.3138 -0.1659
  181DOPC  C31822275   7.019   4.027   4.815 -0.5870 -0.4796  0.3774
  181DOPC  H18X22276   7.078   3.982   4.899 -2.9396  1.7738  3.4736
  181DOPC  H18Y22277   6.931   4.066   4.870  0.3365  1.6135  0.4896
  181DOPC  H18Z22278   6.994   3.948   4.742  0.7970  0.2493 -0.9386
  182DOPC     N22279   2.642   0.923   3.080 -0.2972 -0.2866  0.4975
  182DOPC   C1222280   2.543   0.910   3.193  0.1365 -0.6395 -0.0716
  182DOPC  H12A22281   2.441   0.909   3.157 -0.1142 -0.0811  0.5921
  182DOPC  H12B22282   2.546   1.000   3.254 -1.0606 -1.3398  1.0723
  182DOPC   C1322283   2.779   0.937   3.139 -0.0691 -0.6198 -0.3801
  182DOPC  H13A22284   2.804   0.854   3.203 -0.2582  0.3124  0.9298
  182DOPC  H13B22285   2.858   0.942   3.065 -1.0251 -2.0941 -1.5682
  182DOPC  H13C22286   2.785   1.028   3.197  2.3964  0.1484 -1.6660
  182DOPC   C1422287   2.607   1.046   2.999 -0.2816  0.7520 -0.1377
  182DOPC  H14A22288   2.618   1.128   3.069 -1.0218  0.0152  0.8802
  182DOPC  H14B22289   2.679   1.063   2.921 -2.5969  1.1060 -2.3111
  182DOPC  H14C22290   2.506   1.033   2.964 -0.5893 -0.2920  1.0351
  182DOPC   C1522291   2.630   0.800   2.992 -0.1279  0.3188 -0.6678
  182DOPC  H15A22292   2.543   0.803   2.928 -1.5776  1.1409  1.2569
  182DOPC  H15B22293   2.617   0.716   3.059 -0.4708  0.2625 -0.8039
  182DOPC  H15C22294   2.721   0.767   2.943  0.6732 -0.9069  1.5135
  182DOPC   C1122295   2.551   0.792   3.287  0.2606 -0.0662  0.4208
  182DOPC  H11A22296   2.648   0.794   3.341  0.0452  1.4272  0.7933
  182DOPC  H11B22297   2.479   0.806   3.370 -0.1776 -0.0630  0.0437
  182DOPC     P22298   2.405   0.570   3.242  0.4218 -0.1381 -0.1309
  182DOPC   O1322299   2.435   0.439   3.187  0.9098  0.4973  0.2688
  182DOPC   O1422300   2.291   0.641   3.181  0.1244 -0.0517  0.3638
  182DOPC   O1222301   2.532   0.664   3.221  0.3137 -0.4195  0.2190
  182DOPC   O1122302   2.383   0.565   3.401 -0.3366 -0.4866 -0.1719
  182DOPC    C122303   2.314   0.462   3.467  0.5470  0.4558 -0.9153
  182DOPC    HA22304   2.373   0.369   3.459  0.9144  0.1195  3.3942
  182DOPC    HB22305   2.215   0.442   3.422  1.3402 -0.0385 -2.4921
  182DOPC    C222306   2.273   0.487   3.615 -0.1217 -0.1568 -0.0183
  182DOPC    HS22307   2.226   0.398   3.661  0.2650  0.0945  0.8969
  182DOPC   O2122308   2.194   0.610   3.624  0.0941 -0.8897 -0.3933
  182DOPC   C2122309   2.066   0.584   3.623 -0.4271  0.4963 -0.3864
  182DOPC   O2222310   2.015   0.474   3.607  0.0742 -0.0238 -0.0739
  182DOPC   C2222311   1.991   0.715   3.657  0.5844 -0.0629 -0.6158
  182DOPC   H2R22312   1.960   0.745   3.554  2.3967 -1.4386 -1.6451
  182DOPC   H2S22313   2.066   0.788   3.696 -1.3168  2.9287 -2.1836
  182DOPC    C322314   2.405   0.515   3.695  0.0099 -0.2316 -0.3790
  182DOPC    HX22315   2.454   0.601   3.645 -0.6118  0.1133 -0.4044
  182DOPC    HY22316   2.461   0.424   3.665 -0.8259  0.3666 -4.2553
  182DOPC   O3122317   2.370   0.542   3.838 -0.0786 -0.0579 -0.1821
  182DOPC   C3122318   2.377   0.422   3.911 -0.0256  0.7879 -0.0591
  182DOPC   O3222319   2.398   0.312   3.861 -0.4072 -0.0576  0.0278
  182DOPC   C3222320   2.361   0.453   4.060  0.0528 -0.1763  0.0247
  182DOPC   H2X22321   2.454   0.502   4.097 -0.8821  0.7012  1.2956
  182DOPC   H2Y22322   2.276   0.524   4.059 -0.2402 -0.5244 -0.6282
  182DOPC   C2322323   1.860   0.713   3.734 -0.0672 -0.0239 -0.2177
  182DOPC   H3R22324   1.790   0.631   3.704  1.8010 -1.6817 -0.2544
  182DOPC   H3S22325   1.809   0.810   3.719 -0.8144 -0.5033 -0.8839
  182DOPC   C2422326   1.878   0.689   3.888 -0.3469 -0.6927  0.1101
  182DOPC   H4R22327   1.771   0.689   3.917 -1.3696  1.2727 -3.0691
  182DOPC   H4S22328   1.924   0.783   3.927  0.1976 -0.9221  0.0234
  182DOPC   C2522329   1.944   0.558   3.929 -0.7851  0.7443 -0.3464
  182DOPC   H5R22330   2.051   0.564   3.897 -1.4125  1.0495 -2.5411
  182DOPC   H5S22331   1.895   0.475   3.873 -0.8839  1.8401 -1.9336
  182DOPC   C2622332   1.953   0.538   4.079  0.2652  0.0711  0.8257
  182DOPC   H6R22333   1.993   0.630   4.126 -1.6325  0.5892  1.5231
  182DOPC   H6S22334   2.023   0.453   4.094  1.5999  0.7185 -1.3230
  182DOPC   C2722335   1.814   0.514   4.146  0.8355  0.5690 -0.1412
  182DOPC   H7R22336   1.765   0.421   4.109  3.6375 -0.7087 -0.9431
  182DOPC   H7S22337   1.743   0.593   4.113  1.0723  0.2992 -1.3625
  182DOPC   C2822338   1.828   0.511   4.303 -0.3545  0.2634  0.9610
  182DOPC   H8R22339   1.723   0.518   4.338 -0.6457 -2.3727  0.8326
  182DOPC   H8S22340   1.878   0.605   4.334 -2.1524  0.9888  1.8025
  182DOPC   C2922341   1.889   0.378   4.347  0.0823 -0.5508  0.3193
  182DOPC   H9R22342   1.844   0.294   4.292 -0.9364 -1.3222  2.2378
  182DOPC  C21022343   1.983   0.357   4.432 -0.2842 -0.2789 -0.4589
  182DOPC  H10R22344   2.027   0.257   4.444  0.3678 -0.0121 -0.5834
  182DOPC  C21122345   2.051   0.457   4.522  0.2919 -0.2918  0.1676
  182DOPC  H11R22346   1.973   0.526   4.561 -0.5387  0.2819 -2.2929
  182DOPC  H11S22347   2.125   0.512   4.460 -1.0208  1.3701  0.0078
  182DOPC  C21222348   2.129   0.382   4.628 -0.1112 -0.3385  0.4276
  182DOPC  H12R22349   2.195   0.448   4.689  1.4867 -0.2122 -1.3379
  182DOPC  H12S22350   2.208   0.319   4.581  2.4537  1.0620  2.5432
  182DOPC  C21322351   2.047   0.295   4.715  1.2626  0.3128 -0.2252
  182DOPC  H13R22352   1.982   0.226   4.657 -1.1928  1.0847  1.4744
  182DOPC  H13S22353   1.984   0.362   4.777  0.7102 -0.8321  0.4858
  182DOPC  C21422354   2.136   0.205   4.802 -0.4326  1.3742 -0.5419
  182DOPC  H14R22355   2.211   0.143   4.749 -0.2512 -0.6271  1.8795
  182DOPC  H14S22356   2.071   0.127   4.847  2.4456 -0.8080  0.1403
  182DOPC  C21522357   2.212   0.267   4.920  0.5073  0.0669  0.3172
  182DOPC  H15R22358   2.129   0.290   4.990 -0.0704 -2.1963  0.4519
  182DOPC  H15S22359   2.262   0.363   4.897 -2.5816  1.9560  0.8444
  182DOPC  C21622360   2.306   0.165   4.985  0.0699 -0.4580  0.2260
  182DOPC  H16R22361   2.389   0.150   4.913  0.8211  2.2291  0.4422
  182DOPC  H16S22362   2.254   0.068   5.000 -0.1443 -0.5041 -0.7356
  182DOPC  C21722363   2.363   0.212   5.110 -0.2524 -0.4179 -0.3132
  182DOPC  H17R22364   2.291   0.254   5.184 -0.1849 -2.5903  1.0594
  182DOPC  H17S22365   2.417   0.309   5.097  0.0150 -0.4408  0.6055
  182DOPC  C21822366   2.468   0.121   5.173 -0.1454 -0.1296 -0.0819
  182DOPC  H18R22367   2.497   0.177   5.264 -0.5304  0.5644 -0.3835
  182DOPC  H18S22368   2.555   0.085   5.113  0.1165  0.6308 -0.1603
  182DOPC  H18T22369   2.419   0.027   5.207 -0.3938 -0.4234 -1.2060
  182DOPC   C3322370   2.317   0.330   4.153  0.2386 -0.2342  0.3366
  182DOPC   H3X22371   2.237   0.266   4.111 -0.2034 -0.1484  1.0421
  182DOPC   H3Y22372   2.273   0.371   4.246 -0.0297  0.0221  0.0993
  182DOPC   C3422373   2.427   0.248   4.213 -0.9448 -0.3603  0.6429
  182DOPC   H4X22374   2.509   0.313   4.250 -0.1399 -0.2690 -1.1727
  182DOPC   H4Y22375   2.464   0.181   4.132 -0.6265  1.2990 -0.6348
  182DOPC   C3522376   2.372   0.170   4.330  0.4064 -0.0070  0.3137
  182DOPC   H5X22377   2.337   0.232   4.415  0.7323  1.1481 -0.3825
  182DOPC   H5Y22378   2.456   0.104   4.360 -0.3340 -1.6978 -1.1541
  182DOPC   C3622379   2.272   0.060   4.292  0.6061  0.2783  0.1903
  182DOPC   H6X22380   2.186   0.122   4.257  1.0610 -0.0176 -1.5404
  182DOPC   H6Y22381   2.321  -0.004   4.215  1.3494 -0.5132  1.2945
  182DOPC   C3722382   2.228  -0.034   4.399 -0.9422  0.4962  0.7407
  182DOPC   H7X22383   2.312  -0.100   4.431 -0.0707  0.6799 -1.0413
  182DOPC   H7Y22384   2.217   0.018   4.497 -0.0641 -0.0651  1.1542
  182DOPC   C3822385   2.098  -0.116   4.363 -0.3272 -0.0931  0.2497
  182DOPC   H8X22386   2.015  -0.043   4.368 -1.1882 -0.9885 -0.5836
  182DOPC   H8Y22387   2.072  -0.179   4.450 -0.1105  0.5828  0.8148
  182DOPC   C3922388   2.103  -0.187   4.230 -0.0984 -0.4344  0.1260
  182DOPC   H9X22389   2.076  -0.124   4.143  2.4898 -0.8087 -1.0292
  182DOPC  C31022390   2.142  -0.315   4.207 -0.9255 -1.0648 -0.3081
  182DOPC  H10X22391   2.155  -0.344   4.102 -1.4086 -0.5707 -0.5066
  182DOPC  C31122392   2.203  -0.405   4.311  0.1274  0.4081 -0.3695
  182DOPC  H11X22393   2.130  -0.405   4.395 -1.1260  0.3518 -1.4366
  182DOPC  H11Y22394   2.305  -0.379   4.348 -0.4942 -0.9574  2.5643
  182DOPC  C31222395   2.207  -0.548   4.258  0.1614  0.2589  0.0014
  182DOPC  H12X22396   2.288  -0.541   4.182 -0.5542  1.1793 -0.7078
  182DOPC  H12Y22397   2.111  -0.572   4.206 -0.3976  2.0984  0.1204
  182DOPC  C31322398   2.250  -0.652   4.356  0.6662  0.5179 -0.8065
  182DOPC  H13X22399   2.235  -0.750   4.306 -1.2842 -1.4131  3.1100
  182DOPC  H13Y22400   2.355  -0.637   4.389 -0.4496  1.5584  2.7057
  182DOPC  C31422401   2.156  -0.671   4.475 -0.2317  0.3559  0.3828
  182DOPC  H14X22402   2.140  -0.571   4.520 -0.4359 -0.5108  2.3451
  182DOPC  H14Y22403   2.054  -0.695   4.438 -0.0485 -2.8973  1.6360
  182DOPC  C31522404   2.200  -0.782   4.565  0.0702  0.3326  0.8420
  182DOPC  H15X22405   2.168  -0.760   4.669 -0.3431 -0.3976  0.8752
  182DOPC  H15Y22406   2.311  -0.790   4.568  0.2866  2.7600  1.5675
  182DOPC  C31622407   2.147  -0.924   4.540 -0.7994  0.1858 -0.4155
  182DOPC  H16X22408   2.036  -0.929   4.531 -0.9099  1.2694  0.1603
  182DOPC  H16Y22409   2.184  -0.956   4.440  1.6764 -1.3775  0.9104
  182DOPC  C31722410   2.211  -1.033   4.626  0.0320  0.2223  0.1867
  182DOPC  H17X22411   2.321  -1.040   4.613 -0.0664 -1.3628  0.0423
  182DOPC  H17Y22412   2.196  -1.009   4.733  1.8061 -0.7595  0.6953
  182DOPC  C31822413   2.155  -1.174   4.592  0.2583 -0.4605 -0.6612
  182DOPC  H18X22414   2.137  -1.182   4.483  0.3033 -0.7005 -0.6505
  182DOPC  H18Y22415   2.231  -1.247   4.627 -0.0548  0.2400  1.6155
  182DOPC  H18Z22416   2.063  -1.198   4.650 -1.0747  0.0573 -2.4805
  183DOPC     N22417   6.703   6.425   2.668  0.0771  0.2527 -0.1446
  183DOPC   C1222418   6.768   6.428   2.809  0.0905 -0.8515  0.7081
  183DOPC  H12A22419   6.701   6.476   2.879 -1.0525 -1.1852 -0.1125
  183DOPC  H12B22420   6.851   6.496   2.799 -0.8260  0.1199 -0.6769
  183DOPC   C1322421   6.652   6.562   2.632 -0.2176  0.5799  0.0542
  183DOPC  H13A22422   6.735   6.629   2.614 -0.8979  1.8902  1.5449
  183DOPC  H13B22423   6.585   6.561   2.547  1.7349  1.7135 -1.5904
  183DOPC  H13C22424   6.602   6.606   2.717  0.5223  0.3211  0.6327
  183DOPC   C1422425   6.585   6.326   2.671 -0.2566 -0.8045 -0.5726
  183DOPC  H14A22426   6.544   6.310   2.573  1.6212 -0.9585 -1.3655
  183DOPC  H14B22427   6.615   6.232   2.715  0.2147 -0.2879  0.2576
  183DOPC  H14C22428   6.507   6.365   2.734 -2.8479 -1.5921 -3.0969
  183DOPC   C1522429   6.791   6.385   2.557  0.1202 -0.3101 -0.2636
  183DOPC  H15A22430   6.843   6.294   2.582 -0.8256 -0.6400  0.5797
  183DOPC  H15B22431   6.862   6.465   2.543 -0.3619 -0.0573 -1.3824
  183DOPC  H15C22432   6.737   6.367   2.465 -1.3484 -2.3016  0.8995
  183DOPC   C1122433   6.828   6.307   2.872 -0.0223 -0.0435 -0.6580
  183DOPC  H11A22434   6.863   6.318   2.977 -0.9907 -2.3073 -0.0377
  183DOPC  H11B22435   6.742   6.237   2.882 -1.3925  1.7550  1.0244
  183DOPC     P22436   7.071   6.333   2.803  0.2407 -0.4736 -0.7761
  183DOPC   O1322437   7.052   6.473   2.765  0.2883  0.4873  0.5044
  183DOPC   O1422438   7.168   6.260   2.733 -0.1665  0.0524  0.3158
  183DOPC   O1222439   6.932   6.254   2.791 -0.4420  0.0611 -0.1627
  183DOPC   O1122440   7.105   6.317   2.958 -0.0358 -0.3584 -0.2004
  183DOPC    C122441   7.189   6.428   3.014 -0.5389 -0.2037 -0.1282
  183DOPC    HA22442   7.160   6.530   2.980  0.4804 -0.1234 -0.7955
  183DOPC    HB22443   7.299   6.421   3.005 -0.3414  0.6307  1.3804
  183DOPC    C222444   7.160   6.437   3.171  0.3054 -0.2839  0.0278
  183DOPC    HS22445   7.232   6.512   3.209  0.0329 -1.0572  2.1834
  183DOPC   O2122446   7.177   6.306   3.228  0.4155 -0.2536  0.1858
  183DOPC   C2122447   7.301   6.266   3.241  1.4710 -0.9000  0.2881
  183DOPC   O2222448   7.400   6.335   3.227 -0.2262  0.2370 -0.1232
  183DOPC   C2222449   7.297   6.123   3.297  0.2259  0.6898  0.2642
  183DOPC   H2R22450   7.401   6.087   3.310  0.5713  1.2361 -0.8662
  183DOPC   H2S22451   7.237   6.055   3.232  1.7625 -0.2365 -0.2543
  183DOPC    C322452   7.012   6.484   3.207 -0.3750  0.5646 -0.4296
  183DOPC    HX22453   6.942   6.442   3.131 -1.3469  1.1412  0.1131
  183DOPC    HY22454   6.994   6.593   3.195  1.1364  0.7653 -0.9698
  183DOPC   O3122455   6.962   6.422   3.322  0.3596 -0.0476 -0.0615
  183DOPC   C3122456   7.019   6.477   3.429 -0.5521  0.2533  0.1995
  183DOPC   O3222457   7.103   6.563   3.430 -0.1891 -0.4853  0.0043
  183DOPC   C3222458   6.962   6.425   3.565  0.9815  0.2984 -0.0504
  183DOPC   H2X22459   6.854   6.452   3.570  0.7400 -0.6021 -0.2133
  183DOPC   H2Y22460   6.974   6.315   3.569 -0.4245 -0.0449 -2.9051
  183DOPC   C2322461   7.238   6.113   3.440  0.0674 -0.5028 -0.2816
  183DOPC   H3R22462   7.130   6.139   3.445 -0.2633 -1.6645 -1.1008
  183DOPC   H3S22463   7.292   6.180   3.511 -2.4527  1.0344  0.2957
  183DOPC   C2422464   7.235   5.972   3.503  0.1664  0.3531 -0.0383
  183DOPC   H4R22465   7.311   5.907   3.453  1.2638  1.2860  0.3719
  183DOPC   H4S22466   7.133   5.929   3.494  0.5542 -0.5412 -0.4014
  183DOPC   C2522467   7.277   5.978   3.646 -0.3125 -0.9884  0.4425
  183DOPC   H5R22468   7.374   6.033   3.650 -1.0296  0.9940 -3.7648
  183DOPC   H5S22469   7.292   5.876   3.687  3.0933 -0.9762 -0.4914
  183DOPC   C2622470   7.186   6.052   3.740  0.4967 -0.1850  0.2312
  183DOPC   H6R22471   7.167   6.156   3.707  2.3659  0.0184 -0.2661
  183DOPC   H6S22472   7.231   6.060   3.841  1.4497  2.3083 -0.3330
  183DOPC   C2722473   7.045   5.966   3.753 -0.2043 -1.1117  0.0473
  183DOPC   H7R22474   6.988   5.976   3.658 -0.9096  0.3788  0.5951
  183DOPC   H7S22475   6.984   6.029   3.822 -0.4684  0.6451 -1.6898
  183DOPC   C2822476   7.055   5.820   3.797  0.0926  0.2006 -0.3732
  183DOPC   H8R22477   7.110   5.824   3.894 -1.6229  1.3072  0.6053
  183DOPC   H8S22478   7.117   5.773   3.717  0.7033 -0.6876  0.5868
  183DOPC   C2922479   6.924   5.746   3.807 -0.8033  0.2324  0.5604
  183DOPC   H9R22480   6.870   5.737   3.711  0.9984  0.5921 -0.5435
  183DOPC  C21022481   6.867   5.696   3.919 -0.1591 -0.6879  0.7147
  183DOPC  H10R22482   6.767   5.652   3.907 -1.3514  2.3241 -1.7090
  183DOPC  C21122483   6.923   5.696   4.055 -0.9472 -0.2012 -0.4321
  183DOPC  H11R22484   6.846   5.733   4.125  0.7359 -0.4598  1.6487
  183DOPC  H11S22485   7.014   5.759   4.069 -0.0880 -1.5109  0.1025
  183DOPC  C21222486   6.970   5.554   4.099 -0.1134  0.3909 -0.0158
  183DOPC  H12R22487   7.013   5.517   4.003  1.1532 -1.7382  1.2826
  183DOPC  H12S22488   6.886   5.483   4.119 -0.5568  0.0797 -2.6206
  183DOPC  C21322489   7.082   5.553   4.205  0.0411  0.1307  0.0084
  183DOPC  H13R22490   7.143   5.644   4.190  0.3566 -0.1651 -0.5579
  183DOPC  H13S22491   7.142   5.460   4.190 -2.4280 -1.6275  0.4540
  183DOPC  C21422492   7.032   5.548   4.350  0.4698 -0.2877 -0.0574
  183DOPC  H14R22493   7.116   5.535   4.421  0.3749  1.2948  0.3919
  183DOPC  H14S22494   6.970   5.457   4.363 -0.3612 -0.1535 -2.5144
  183DOPC  C21522495   6.950   5.671   4.385  0.6062  0.1713  0.5761
  183DOPC  H15R22496   6.841   5.649   4.377  0.0464  2.5691  0.6676
  183DOPC  H15S22497   6.957   5.750   4.307 -2.2088 -1.4677 -1.5161
  183DOPC  C21622498   6.983   5.727   4.521  0.0865  0.0135 -0.4900
  183DOPC  H16R22499   6.968   5.661   4.609 -0.0149 -0.7976 -1.1050
  183DOPC  H16S22500   6.915   5.811   4.547  1.1919  0.0646  2.5673
  183DOPC  C21722501   7.130   5.776   4.542 -0.3397  0.0131 -0.3382
  183DOPC  H17R22502   7.206   5.695   4.545  0.5568  0.8589  0.0353
  183DOPC  H17S22503   7.134   5.820   4.644 -0.9133  1.6528 -0.9923
  183DOPC  C21822504   7.181   5.879   4.440 -0.4392 -0.7482  0.1782
  183DOPC  H18R22505   7.220   5.824   4.351  0.9933  1.4731 -0.6643
  183DOPC  H18S22506   7.261   5.941   4.487  0.3368 -1.2774 -0.4129
  183DOPC  H18T22507   7.101   5.951   4.414  0.5481  0.2127 -0.2920
  183DOPC   C3322508   7.048   6.470   3.683 -0.0661 -0.0596  0.1072
  183DOPC   H3X22509   7.022   6.575   3.705 -3.2318 -0.2844 -1.9094
  183DOPC   H3Y22510   7.156   6.450   3.664 -0.3713 -0.7718 -0.9610
  183DOPC   C3422511   7.006   6.393   3.809  0.7882 -0.4819 -0.0767
  183DOPC   H4X22512   7.028   6.285   3.797 -1.7071 -1.1763  0.8078
  183DOPC   H4Y22513   6.896   6.405   3.822  0.7033 -2.1394  1.0636
  183DOPC   C3522514   7.056   6.458   3.950 -0.3338  0.0642  0.0981
  183DOPC   H5X22515   7.058   6.568   3.942  1.9029  0.0775  0.2155
  183DOPC   H5Y22516   7.158   6.419   3.968 -1.3546 -3.1894 -0.4833
  183DOPC   C3622517   6.959   6.408   4.057 -0.1332 -0.2681 -0.2642
  183DOPC   H6X22518   6.859   6.456   4.046 -1.4181 -2.5756  0.6681
  183DOPC   H6Y22519   6.952   6.298   4.046 -0.0847 -0.3367  0.3664
  183DOPC   C3722520   7.009   6.437   4.204  0.2605  0.3059 -0.3614
  183DOPC   H7X22521   7.025   6.546   4.213  0.3791  0.2777 -0.2340
  183DOPC   H7Y22522   6.925   6.398   4.267  0.9865  0.1221  0.5181
  183DOPC   C3822523   7.134   6.357   4.243 -0.6283  0.5989  1.2600
  183DOPC   H8X22524   7.210   6.392   4.170 -0.7679  0.7419  1.1829
  183DOPC   H8Y22525   7.110   6.250   4.224  0.1931  0.5845  0.1784
  183DOPC   C3922526   7.177   6.392   4.382 -0.1057 -0.1989 -0.1888
  183DOPC   H9X22527   7.105   6.365   4.460 -0.4265  0.7911 -0.1290
  183DOPC  C31022528   7.303   6.433   4.413  0.1696 -0.7187 -0.0775
  183DOPC  H10X22529   7.319   6.470   4.515 -0.9516 -0.5761  0.0546
  183DOPC  C31122530   7.427   6.442   4.323 -0.9279 -0.2985 -0.5895
  183DOPC  H11X22531   7.430   6.548   4.291 -3.3838 -0.5688 -2.0471
  183DOPC  H11Y22532   7.418   6.396   4.222  0.2249  1.1234 -1.3715
  183DOPC  C31222533   7.554   6.396   4.400  0.3539  0.1684  0.1916
  183DOPC  H12X22534   7.595   6.476   4.466  0.3347  0.8843 -0.6477
  183DOPC  H12Y22535   7.635   6.380   4.325 -0.9700 -1.7434 -0.9189
  183DOPC  C31322536   7.541   6.273   4.487  0.5048  0.1641  0.5441
  183DOPC  H13X22537   7.483   6.296   4.579 -1.3014 -0.6465 -0.3551
  183DOPC  H13Y22538   7.489   6.193   4.431  2.0161 -1.1203  0.8778
  183DOPC  C31422539   7.679   6.208   4.521 -0.3727 -0.4342 -0.2494
  183DOPC  H14X22540   7.664   6.109   4.570 -3.0031 -1.1056 -2.1293
  183DOPC  H14Y22541   7.737   6.175   4.432  1.6083  1.5364  0.2273
  183DOPC  C31522542   7.773   6.295   4.608  0.3552  0.1251  0.3508
  183DOPC  H15X22543   7.715   6.332   4.696 -1.1469 -1.3188  0.0238
  183DOPC  H15Y22544   7.802   6.383   4.546 -0.0197  0.7235  1.0124
  183DOPC  C31622545   7.900   6.217   4.659  0.1051  0.1778  0.0361
  183DOPC  H16X22546   7.862   6.137   4.726 -2.1598  1.2487  0.1307
  183DOPC  H16Y22547   7.953   6.181   4.569 -1.1644 -0.6530 -0.4053
  183DOPC  C31722548   7.991   6.306   4.736 -1.3279  0.0495 -0.1111
  183DOPC  H17X22549   8.022   6.389   4.669  0.1006  0.4406  0.9652
  183DOPC  H17Y22550   7.940   6.338   4.829 -1.7909  0.9121 -0.6540
  183DOPC  C31822551   8.127   6.238   4.783  0.2002  0.3238  0.0957
  183DOPC  H18X22552   8.106   6.195   4.883 -0.4393 -1.5956 -0.8053
  183DOPC  H18Y22553   8.151   6.151   4.717  1.8811 -1.1757  2.5388
  183DOPC  H18Z22554   8.206   6.314   4.795  0.7562 -0.0556 -1.0336
  184DOPC     N22555   5.192   1.885   3.593  0.0032  0.5016  0.1124
  184DOPC   C1222556   5.276   1.975   3.669  0.3100 -0.5363  0.1282
  184DOPC  H12A22557   5.336   2.038   3.606  1.2172 -0.7681  0.7416
  184DOPC  H12B22558   5.350   1.918   3.723  0.3120 -2.2307 -1.5556
  184DOPC   C1322559   5.137   1.775   3.685  0.1257 -0.2823 -0.4994
  184DOPC  H13A22560   5.073   1.706   3.632 -1.2385 -0.3562  1.1688
  184DOPC  H13B22561   5.215   1.714   3.730  1.0823  0.2127 -1.4455
  184DOPC  H13C22562   5.088   1.821   3.769  4.5174  1.4888  1.4276
  184DOPC   C1422563   5.275   1.823   3.488  0.2618  0.4775 -0.1949
  184DOPC  H14A22564   5.223   1.760   3.417 -0.3317 -0.2893  0.8972
  184DOPC  H14B22565   5.330   1.894   3.428 -0.6053  1.3110 -0.0272
  184DOPC  H14C22566   5.348   1.760   3.536 -0.2227  1.3225  1.7724
  184DOPC   C1522567   5.079   1.953   3.516 -0.2422 -0.1098  0.1169
  184DOPC  H15A22568   5.105   2.035   3.451 -1.1497  1.2766  1.4326
  184DOPC  H15B22569   5.015   2.003   3.587  0.1051  0.2836  0.1633
  184DOPC  H15C22570   5.020   1.879   3.465  0.0345 -1.3895  1.5575
  184DOPC   C1122571   5.203   2.075   3.768 -0.8404 -0.4863  0.3170
  184DOPC  H11A22572   5.141   2.016   3.839  0.9518 -0.6625  1.8076
  184DOPC  H11B22573   5.280   2.123   3.831 -0.6653  0.8947 -0.9034
  184DOPC     P22574   5.201   2.299   3.645 -0.6993 -0.2662 -0.0453
  184DOPC   O1322575   5.119   2.373   3.554  0.0949  0.2540  0.3803
  184DOPC   O1422576   5.328   2.247   3.589 -0.4015  0.1013  0.0254
  184DOPC   O1222577   5.120   2.176   3.708  0.1652  0.0824 -0.8426
  184DOPC   O1122578   5.229   2.387   3.769 -0.2904  0.1586  0.2472
  184DOPC    C122579   5.145   2.398   3.884 -0.9557 -0.3583  0.1222
  184DOPC    HA22580   5.215   2.413   3.969 -1.0345  0.0957  0.1127
  184DOPC    HB22581   5.103   2.297   3.905  0.3350 -1.1998 -1.1433
  184DOPC    C222582   5.044   2.507   3.874  0.2240 -0.6347  0.4432
  184DOPC    HS22583   4.976   2.497   3.787 -1.7659  0.1702  1.8297
  184DOPC   O2122584   5.121   2.627   3.870 -0.5339  0.3895  0.1769
  184DOPC   C2122585   5.071   2.729   3.809 -0.0003 -0.3073  0.3655
  184DOPC   O2222586   4.963   2.736   3.749 -0.3618  0.4762 -0.2151
  184DOPC   C2222587   5.172   2.841   3.825 -0.5093 -0.4700 -0.1427
  184DOPC   H2R22588   5.115   2.932   3.797 -1.3632  0.4907  3.9651
  184DOPC   H2S22589   5.255   2.808   3.759 -0.2392 -1.6817  0.7507
  184DOPC    C322590   4.945   2.506   3.995  0.3364 -0.2928  0.4916
  184DOPC    HX22591   4.897   2.406   3.980  0.4201  0.0717 -3.1311
  184DOPC    HY22592   4.865   2.580   3.977  0.7439 -0.1782 -1.0059
  184DOPC   O3122593   5.009   2.515   4.125  0.4069 -0.1410  0.7538
  184DOPC   C3122594   4.976   2.617   4.202 -0.1260  0.2184 -0.0372
  184DOPC   O3222595   4.905   2.715   4.173 -0.2518  0.2517  0.1703
  184DOPC   C3222596   5.059   2.607   4.329 -0.1217 -0.6775  0.5770
  184DOPC   H2X22597   5.045   2.503   4.365  0.7893 -1.1834 -0.4772
  184DOPC   H2Y22598   5.166   2.633   4.313 -0.4169  0.9951  1.1754
  184DOPC   C2322599   5.226   2.859   3.970  0.7830  1.0546 -0.1749
  184DOPC   H3R22600   5.279   2.762   3.986 -0.9027 -0.4582 -2.9923
  184DOPC   H3S22601   5.145   2.855   4.046  1.6514  0.3647  0.7524
  184DOPC   C2422602   5.319   2.974   3.992 -0.2667 -0.0782 -0.0716
  184DOPC   H4R22603   5.270   3.066   3.956 -1.9981 -0.6724  0.6365
  184DOPC   H4S22604   5.406   2.947   3.928  1.0651  1.7035  0.9176
  184DOPC   C2522605   5.353   2.986   4.140  0.0805  0.3956  0.6727
  184DOPC   H5R22606   5.385   2.884   4.170  0.0071  0.3555  0.6153
  184DOPC   H5S22607   5.258   3.011   4.192 -0.3710  2.0759 -0.8634
  184DOPC   C2622608   5.469   3.090   4.178 -0.3674 -0.0029  0.7503
  184DOPC   H6R22609   5.422   3.187   4.151  1.6433  1.5449  2.4945
  184DOPC   H6S22610   5.559   3.080   4.113 -0.8129  0.3757  0.0577
  184DOPC   C2722611   5.494   3.076   4.329 -0.2891  0.2189  0.2893
  184DOPC   H7R22612   5.563   2.993   4.359  3.2527  1.9811 -2.2619
  184DOPC   H7S22613   5.393   3.074   4.375 -0.9812  0.7094 -1.1702
  184DOPC   C2822614   5.579   3.203   4.351 -0.1452 -0.0550  0.0876
  184DOPC   H8R22615   5.521   3.283   4.301 -1.3563 -1.5567 -1.0115
  184DOPC   H8S22616   5.675   3.192   4.296 -0.5830 -1.2079 -0.4612
  184DOPC   C2922617   5.592   3.234   4.498  0.4877  0.2264  0.5824
  184DOPC   H9R22618   5.531   3.177   4.569  1.5865 -2.6073 -0.6211
  184DOPC  C21022619   5.676   3.327   4.542 -0.4427  0.6554  0.7050
  184DOPC  H10R22620   5.691   3.334   4.651 -1.2062 -0.1805  0.8722
  184DOPC  C21122621   5.755   3.432   4.463 -0.1907 -0.4134 -0.1624
  184DOPC  H11R22622   5.727   3.440   4.356  1.9479  1.1875 -0.6699
  184DOPC  H11S22623   5.864   3.412   4.474  0.2800  2.2164  0.6011
  184DOPC  C21222624   5.740   3.579   4.504  0.5965 -0.5816  0.0137
  184DOPC  H12R22625   5.631   3.593   4.486  0.2646 -1.2776  1.3502
  184DOPC  H12S22626   5.795   3.643   4.431  2.5280  0.5402  2.2979
  184DOPC  C21322627   5.781   3.623   4.649  0.2831  0.3893  0.0549
  184DOPC  H13R22628   5.713   3.566   4.717  1.5453 -2.0597 -0.6293
  184DOPC  H13S22629   5.763   3.732   4.662 -1.8575  0.0989 -0.1400
  184DOPC  C21422630   5.930   3.595   4.684  0.4816  0.1825  0.0109
  184DOPC  H14R22631   5.955   3.487   4.675 -1.4793 -0.3022  0.0105
  184DOPC  H14S22632   5.950   3.617   4.791 -3.4818 -1.0439  1.1556
  184DOPC  C21522633   6.022   3.678   4.597 -0.5598  0.2922  0.3466
  184DOPC  H15R22634   6.005   3.649   4.491 -0.2451  0.3796  0.2694
  184DOPC  H15S22635   6.129   3.654   4.615 -0.4505 -0.6837 -1.3400
  184DOPC  C21622636   5.991   3.834   4.605 -0.6264  0.1590  0.2730
  184DOPC  H16R22637   6.024   3.863   4.708 -0.0242 -0.2685  0.2119
  184DOPC  H16S22638   5.885   3.860   4.587  0.0125  1.8698 -1.3182
  184DOPC  C21722639   6.079   3.909   4.498  0.0745  0.2722 -0.3081
  184DOPC  H17R22640   6.041   3.880   4.398  2.2992 -3.0026 -0.3680
  184DOPC  H17S22641   6.178   3.859   4.509 -0.1337  0.2840  2.0961
  184DOPC  C21822642   6.104   4.060   4.522  0.0452  0.2655  0.4004
  184DOPC  H18R22643   6.115   4.079   4.630 -2.3368 -0.1760  0.7819
  184DOPC  H18S22644   6.031   4.132   4.479 -1.0527 -0.1115  1.5750
  184DOPC  H18T22645   6.203   4.080   4.476 -0.7028 -2.0179 -2.5523
  184DOPC   C3322646   5.002   2.697   4.446 -0.0767 -0.3908  0.3970
  184DOPC   H3X22647   4.982   2.802   4.417 -1.0645 -0.5993  0.2627
  184DOPC   H3Y22648   5.078   2.682   4.526  0.6253  0.5788 -0.0786
  184DOPC   C3422649   4.874   2.628   4.500 -0.3138 -0.5333 -0.1569
  184DOPC   H4X22650   4.887   2.518   4.512  3.6989 -0.1463  0.4880
  184DOPC   H4Y22651   4.782   2.650   4.442 -1.2926  0.8589  1.8359
  184DOPC   C3522652   4.841   2.679   4.637 -0.5416 -0.4570  0.3036
  184DOPC   H5X22653   4.838   2.790   4.627  0.9299 -0.5385 -1.6665
  184DOPC   H5Y22654   4.929   2.660   4.703 -0.5570 -0.3848  0.3459
  184DOPC   C3622655   4.700   2.634   4.690  0.0267 -0.1524  0.3977
  184DOPC   H6X22656   4.628   2.666   4.612  1.7386  0.8283 -0.8474
  184DOPC   H6Y22657   4.705   2.523   4.685 -1.3734 -0.2187 -0.0452
  184DOPC   C3722658   4.660   2.686   4.828  0.0662 -0.1641  0.0046
  184DOPC   H7X22659   4.737   2.642   4.895  0.7250  0.5298 -0.2898
  184DOPC   H7Y22660   4.671   2.797   4.831 -0.2059 -0.1184 -0.5320
  184DOPC   C3822661   4.528   2.637   4.876  1.4306  0.1202 -0.1271
  184DOPC   H8X22662   4.453   2.687   4.811  1.1745  0.3446  0.3336
  184DOPC   H8Y22663   4.507   2.676   4.978 -1.6803  0.2329 -0.7059
  184DOPC   C3922664   4.529   2.485   4.889  0.1289  0.5169  0.2063
  184DOPC   H9X22665   4.609   2.452   4.956 -2.0196 -1.5690  1.8808
  184DOPC  C31022666   4.434   2.402   4.839 -0.2925 -0.0043 -0.0412
  184DOPC  H10X22667   4.444   2.294   4.859  0.2191  0.2710  1.2643
  184DOPC  C31122668   4.322   2.443   4.751 -0.0705 -0.0373  0.1355
  184DOPC  H11X22669   4.324   2.553   4.739 -2.4334 -0.0843 -1.7415
  184DOPC  H11Y22670   4.230   2.416   4.807 -0.1061  1.5511  0.8714
  184DOPC  C31222671   4.316   2.388   4.608 -0.0529  0.2870  0.6275
  184DOPC  H12X22672   4.227   2.434   4.558  0.2933 -1.4259 -1.7674
  184DOPC  H12Y22673   4.306   2.277   4.605  0.3779  0.2601  0.0744
  184DOPC  C31322674   4.444   2.432   4.520 -0.4312  0.1869 -0.2481
  184DOPC  H13X22675   4.431   2.542   4.506  1.4924  0.5462  0.5080
  184DOPC  H13Y22676   4.539   2.417   4.575  1.1665  1.7517 -2.4117
  184DOPC  C31422677   4.446   2.363   4.385 -0.0434  0.5372  0.6761
  184DOPC  H14X22678   4.451   2.254   4.405 -1.0512  0.5103  0.7937
  184DOPC  H14Y22679   4.358   2.390   4.323 -0.2775  1.6269  1.4367
  184DOPC  C31522680   4.563   2.405   4.298  0.0616 -0.0793 -1.0585
  184DOPC  H15X22681   4.660   2.388   4.349 -0.2518 -2.0868 -1.0404
  184DOPC  H15Y22682   4.561   2.513   4.273 -0.9307  0.0357 -0.5135
  184DOPC  C31622683   4.577   2.327   4.168  0.0327 -0.4037 -0.3873
  184DOPC  H16X22684   4.497   2.367   4.103 -1.1654 -0.1092  1.2058
  184DOPC  H16Y22685   4.677   2.347   4.123  2.3984 -5.6691  1.6059
  184DOPC  C31722686   4.576   2.176   4.183  0.2346  0.0710 -0.0051
  184DOPC  H17X22687   4.650   2.147   4.260  3.5265  0.8389 -2.6128
  184DOPC  H17Y22688   4.476   2.137   4.213 -0.3067  1.4680  0.0999
  184DOPC  C31822689   4.618   2.093   4.057 -0.2710 -0.7957 -0.7243
  184DOPC  H18X22690   4.716   2.119   4.011 -0.2207 -1.7944 -1.1957
  184DOPC  H18Y22691   4.621   1.985   4.081  1.4490 -0.3555  1.3270
  184DOPC  H18Z22692   4.543   2.098   3.975  0.8865  1.0510 -1.7335
  185DOPC     N22693   5.600   7.355   3.095 -0.1161  0.3496  0.2602
  185DOPC   C1222694   5.653   7.380   3.231 -0.0926 -0.5290 -0.5444
  185DOPC  H12A22695   5.583   7.413   3.306  1.7070  1.4141  0.3805
  185DOPC  H12B22696   5.706   7.473   3.219  0.0388 -0.8246 -2.8439
  185DOPC   C1322697   5.550   7.478   3.042  0.0472  0.1536  0.1486
  185DOPC  H13A22698   5.625   7.555   3.040 -0.4271  0.6441  0.7613
  185DOPC  H13B22699   5.511   7.461   2.943 -0.9383 -3.7090  1.0084
  185DOPC  H13C22700   5.463   7.513   3.095  0.1777  0.1493  0.3641
  185DOPC   C1422701   5.492   7.250   3.099 -0.0188  0.8657 -0.3791
  185DOPC  H14A22702   5.414   7.275   3.169 -0.3980  0.3701 -0.6149
  185DOPC  H14B22703   5.448   7.243   3.000  1.2811 -0.1883 -0.9115
  185DOPC  H14C22704   5.526   7.152   3.129 -1.4546  1.2955  3.1400
  185DOPC   C1522705   5.714   7.307   3.007  0.7142 -0.0891 -0.3986
  185DOPC  H15A22706   5.678   7.270   2.913  0.7647  0.9814 -0.8582
  185DOPC  H15B22707   5.774   7.229   3.051  0.1663 -1.7655 -2.4641
  185DOPC  H15C22708   5.770   7.399   2.993 -0.6620  0.8986  0.2833
  185DOPC   C1122709   5.748   7.282   3.295  0.6422 -0.3513  0.3003
  185DOPC  H11A22710   5.836   7.263   3.230  0.7974  0.8627  0.1265
  185DOPC  H11B22711   5.794   7.335   3.382 -1.8099  0.3323  1.2668
  185DOPC     P22712   5.754   7.031   3.338  0.2374 -0.0128  0.4051
  185DOPC   O1322713   5.876   7.035   3.256  0.2793  0.1387 -0.7255
  185DOPC   O1422714   5.669   6.916   3.319  0.0043  0.6332  0.6709
  185DOPC   O1222715   5.670   7.161   3.330  0.3479 -0.0188 -0.2282
  185DOPC   O1122716   5.798   7.019   3.491  0.1364 -0.3493 -0.3231
  185DOPC    C122717   5.697   7.048   3.589 -0.2294 -0.0067 -0.0662
  185DOPC    HA22718   5.603   6.993   3.567 -1.2372  0.9495  1.6838
  185DOPC    HB22719   5.675   7.156   3.591  1.1068  0.2862 -0.2218
  185DOPC    C222720   5.748   6.999   3.728 -0.2302 -0.5428  0.2662
  185DOPC    HS22721   5.817   7.079   3.762 -1.9924  0.2263  2.3324
  185DOPC   O2122722   5.825   6.884   3.720 -0.0875  0.4923 -0.3570
  185DOPC   C2122723   5.900   6.862   3.830  0.3096  0.6853  0.1394
  185DOPC   O2222724   5.928   6.952   3.908 -0.2179 -0.3084 -0.5099
  185DOPC   C2222725   5.944   6.715   3.840  0.2102  0.2673  0.4031
  185DOPC   H2R22726   6.053   6.703   3.822 -0.1571 -2.8657 -0.4558
  185DOPC   H2S22727   5.884   6.654   3.769  1.0770  1.0087 -1.0286
  185DOPC    C322728   5.628   6.985   3.824 -0.2840 -0.7269 -0.1663
  185DOPC    HX22729   5.582   6.885   3.806 -1.0259  0.0728 -3.2718
  185DOPC    HY22730   5.557   7.063   3.790 -0.8984 -0.5828  1.3622
  185DOPC   O3122731   5.651   7.006   3.960  0.4513  0.2369 -0.3441
  185DOPC   C3122732   5.691   7.127   4.009 -0.2227 -0.1233  0.6894
  185DOPC   O3222733   5.710   7.228   3.936  0.5140  0.1509 -0.4735
  185DOPC   C3222734   5.713   7.115   4.160  0.3357  0.6673  0.4791
  185DOPC   H2X22735   5.639   7.179   4.212 -0.8840 -0.1644 -0.2026
  185DOPC   H2Y22736   5.699   7.007   4.182 -1.9209  0.4011 -1.8902
  185DOPC   C2322737   5.924   6.661   3.986 -0.3744 -0.2258 -0.7439
  185DOPC   H3R22738   5.971   6.733   4.057 -1.2514 -1.3667  1.0861
  185DOPC   H3S22739   5.970   6.562   4.005  0.8191  0.4592  0.0885
  185DOPC   C2422740   5.770   6.641   4.017  0.1263  0.4232 -0.5490
  185DOPC   H4R22741   5.731   6.559   3.954 -1.2940 -0.6599  1.5903
  185DOPC   H4S22742   5.721   6.740   4.008  1.4878  1.4326  2.1219
  185DOPC   C2522743   5.740   6.603   4.156  0.1431 -0.2929  0.2465
  185DOPC   H5R22744   5.762   6.686   4.227  1.3605 -0.0412 -0.4094
  185DOPC   H5S22745   5.789   6.508   4.184  0.3317 -0.6367 -1.1827
  185DOPC   C2622746   5.591   6.573   4.180  0.2502  0.9167  0.0965
  185DOPC   H6R22747   5.576   6.508   4.268 -1.3025  1.6282  0.3913
  185DOPC   H6S22748   5.556   6.507   4.098  1.3563 -1.8730  1.7350
  185DOPC   C2722749   5.497   6.692   4.219 -0.1927 -0.1248 -0.4298
  185DOPC   H7R22750   5.512   6.762   4.134 -3.9494 -0.6070 -1.6747
  185DOPC   H7S22751   5.520   6.732   4.320 -1.9617 -0.4823  0.1455
  185DOPC   C2822752   5.347   6.649   4.219  0.4894  0.4424  0.4593
  185DOPC   H8R22753   5.329   6.636   4.110  2.9438 -1.9773  0.2179
  185DOPC   H8S22754   5.281   6.736   4.237 -1.5310 -0.7500 -0.7452
  185DOPC   C2922755   5.302   6.525   4.303  0.0812 -0.1708 -0.1076
  185DOPC   H9R22756   5.255   6.446   4.243 -2.7312  0.9523  0.4630
  185DOPC  C21022757   5.295   6.510   4.440 -0.4352 -0.2444  0.3500
  185DOPC  H10R22758   5.263   6.410   4.472 -1.9433 -0.6792 -2.1829
  185DOPC  C21122759   5.331   6.610   4.552 -0.3023 -0.0523 -0.0139
  185DOPC  H11R22760   5.237   6.632   4.607 -0.4106  0.6599 -0.4726
  185DOPC  H11S22761   5.366   6.704   4.504 -0.8971  1.2937  2.0596
  185DOPC  C21222762   5.444   6.569   4.649 -0.7738  0.3186  0.3859
  185DOPC  H12R22763   5.535   6.560   4.585 -0.6686 -1.9363  0.7813
  185DOPC  H12S22764   5.415   6.471   4.692  0.0993 -0.1291 -0.0276
  185DOPC  C21322765   5.445   6.664   4.770  0.2240 -0.7364  0.6054
  185DOPC  H13R22766   5.493   6.623   4.861  1.5099  0.5174  0.5269
  185DOPC  H13S22767   5.341   6.687   4.802 -0.1829  0.9570 -1.6239
  185DOPC  C21422768   5.525   6.788   4.736  0.4508 -0.5307  0.1125
  185DOPC  H14R22769   5.486   6.842   4.647 -3.0967 -0.9325  1.2516
  185DOPC  H14S22770   5.628   6.756   4.714  0.3466 -0.9967  0.2923
  185DOPC  C21522771   5.531   6.879   4.859  0.7521 -0.1792  0.5020
  185DOPC  H15R22772   5.578   6.821   4.941 -0.2866 -0.1389  1.1353
  185DOPC  H15S22773   5.427   6.899   4.893  0.4017 -2.6436  1.0782
  185DOPC  C21622774   5.617   7.005   4.848  1.3325  0.0240 -0.4732
  185DOPC  H16R22775   5.621   7.043   4.952  0.0684  1.4963 -0.9337
  185DOPC  H16S22776   5.564   7.079   4.785  0.2368 -0.0402  0.3342
  185DOPC  C21722777   5.751   6.975   4.788 -0.0872 -0.0755 -0.0159
  185DOPC  H17R22778   5.742   6.962   4.678  0.8398 -0.7507 -0.0204
  185DOPC  H17S22779   5.792   6.878   4.824 -0.0159  0.8969  2.6758
  185DOPC  C21822780   5.846   7.092   4.814  0.3838 -0.5043  0.0348
  185DOPC  H18R22781   5.806   7.175   4.751  0.8777 -1.2088 -1.2466
  185DOPC  H18S22782   5.953   7.081   4.785  0.4788  1.8500 -0.7826
  185DOPC  H18T22783   5.839   7.124   4.920  2.4038 -0.5207  0.2231
  185DOPC   C3322784   5.854   7.168   4.180 -0.3933 -0.6433 -0.3184
  185DOPC   H3X22785   5.854   7.268   4.132 -0.1965 -0.0047  0.9537
  185DOPC   H3Y22786   5.934   7.110   4.130  0.3197  0.2140 -0.2009
  185DOPC   C3422787   5.888   7.209   4.334  0.9285 -0.7540  0.7859
  185DOPC   H4X22788   5.874   7.113   4.389 -3.8848  0.0318  1.3190
  185DOPC   H4Y22789   5.811   7.278   4.375 -0.6201 -3.3154  2.4762
  185DOPC   C3522790   6.027   7.264   4.355  0.2887 -0.2930  0.4129
  185DOPC   H5X22791   6.101   7.200   4.303 -0.2664  1.2446 -2.4849
  185DOPC   H5Y22792   6.054   7.271   4.463 -0.2701 -0.6295  0.5777
  185DOPC   C3622793   6.048   7.397   4.285 -0.1553  0.3023 -0.3778
  185DOPC   H6X22794   6.022   7.380   4.178 -0.1746  0.1192 -0.3453
  185DOPC   H6Y22795   5.972   7.471   4.319 -0.4551  0.3217 -1.0775
  185DOPC   C3722796   6.183   7.461   4.296 -0.4633 -0.0350  0.4914
  185DOPC   H7X22797   6.263   7.386   4.283 -1.6348 -1.1992 -0.2830
  185DOPC   H7Y22798   6.191   7.528   4.208  2.6474  0.9731  1.4245
  185DOPC   C3822799   6.203   7.545   4.427 -0.3732 -0.7006 -0.0629
  185DOPC   H8X22800   6.314   7.557   4.426 -0.0914 -2.7061 -2.0312
  185DOPC   H8Y22801   6.185   7.489   4.521 -0.6515 -0.3588  0.0849
  185DOPC   C3922802   6.135   7.678   4.417 -0.1901  0.5636  0.0560
  185DOPC   H9X22803   6.156   7.729   4.322 -0.7897 -1.0484 -0.9873
  185DOPC  C31022804   6.047   7.731   4.511 -0.4257  0.5192  0.0804
  185DOPC  H10X22805   6.004   7.829   4.484 -1.4329 -0.3068 -1.4327
  185DOPC  C31122806   6.005   7.670   4.641  0.0188  0.0388  0.5607
  185DOPC  H11X22807   6.054   7.574   4.666  0.1581 -0.0609 -0.0850
  185DOPC  H11Y22808   5.896   7.652   4.650  0.3529 -2.0286  1.1012
  185DOPC  C31222809   6.042   7.761   4.761  0.6760  0.2554  0.0571
  185DOPC  H12X22810   5.999   7.721   4.855 -2.0410 -0.3366 -1.3534
  185DOPC  H12Y22811   6.009   7.866   4.745  1.4068  0.0732 -3.3962
  185DOPC  C31322812   6.197   7.778   4.784  0.3297  0.3548  0.2660
  185DOPC  H13X22813   6.253   7.682   4.796  1.7746  0.9842 -1.0973
  185DOPC  H13Y22814   6.230   7.816   4.685  3.1108  0.8691  1.2773
  185DOPC  C31422815   6.230   7.859   4.909 -0.0447 -0.2401  0.0002
  185DOPC  H14X22816   6.338   7.880   4.918 -0.3464  1.8093 -0.6728
  185DOPC  H14Y22817   6.188   7.962   4.903  0.6078  0.0726  0.6514
  185DOPC  C31522818   6.175   7.800   5.042  0.9303  0.0658  0.2464
  185DOPC  H15X22819   6.205   7.693   5.049  0.4272 -0.2046 -1.2639
  185DOPC  H15Y22820   6.065   7.798   5.032  0.8907 -0.2254  0.7445
  185DOPC  C31622821   6.214   7.873   5.167  0.2549  0.0887 -0.7678
  185DOPC  H16X22822   6.324   7.878   5.176  0.1641  1.0251 -0.0208
  185DOPC  H16Y22823   6.180   7.978   5.162  1.1615  0.4794  0.6802
  185DOPC  C31722824   6.162   7.804   5.294  0.3412 -0.5750  0.2046
  185DOPC  H17X22825   6.052   7.815   5.302  0.4100 -0.5249  1.2096
  185DOPC  H17Y22826   6.181   7.694   5.287  0.4902 -0.4927 -0.7134
  185DOPC  C31822827   6.217   7.861   5.423 -0.2330  0.2221 -0.3401
  185DOPC  H18X22828   6.197   7.970   5.436  0.4781  0.2999  0.1356
  185DOPC  H18Y22829   6.175   7.812   5.514  1.8106  0.8416  1.0142
  185DOPC  H18Z22830   6.325   7.838   5.427 -0.0019  1.0034 -1.5290
  186DOPC     N22831   0.403   3.601   2.221  0.5785 -0.4614  0.0393
  186DOPC   C1222832   0.494   3.596   2.345 -0.2981  0.1719 -0.2946
  186DOPC  H12A22833   0.526   3.697   2.364  0.2562 -0.0364 -0.0861
  186DOPC  H12B22834   0.585   3.542   2.321 -0.3780 -0.0049 -0.1995
  186DOPC   C1322835   0.384   3.469   2.148 -0.1944  0.6272 -0.8491
  186DOPC  H13A22836   0.479   3.422   2.126  0.6655  2.1440 -0.5679
  186DOPC  H13B22837   0.330   3.409   2.220  2.0235 -0.3473  0.1124
  186DOPC  H13C22838   0.323   3.470   2.059 -1.0609 -1.5768 -0.3453
  186DOPC   C1422839   0.459   3.696   2.113 -0.0619  0.2111  0.4001
  186DOPC  H14A22840   0.378   3.707   2.042 -0.3357  0.1934  0.7093
  186DOPC  H14B22841   0.481   3.795   2.149 -1.2368  0.4164  0.5916
  186DOPC  H14C22842   0.543   3.641   2.071 -0.0537 -0.6728  1.5376
  186DOPC   C1522843   0.271   3.647   2.266  0.5408 -0.1739 -0.0932
  186DOPC  H15A22844   0.244   3.597   2.357 -0.5435  0.7704  0.1301
  186DOPC  H15B22845   0.186   3.629   2.202  1.1020 -0.1671 -0.8582
  186DOPC  H15C22846   0.274   3.753   2.287 -2.2173  0.0798 -0.5644
  186DOPC   C1122847   0.442   3.543   2.479 -0.6700 -0.3083  0.0482
  186DOPC  H11A22848   0.522   3.547   2.556  2.1215  2.9775 -2.6946
  186DOPC  H11B22849   0.363   3.609   2.521 -0.3710 -0.0007  0.1335
  186DOPC     P22850   0.479   3.284   2.456 -0.0629  0.1879  0.1293
  186DOPC   O1322851   0.587   3.314   2.356  0.1558 -0.2906  0.0767
  186DOPC   O1422852   0.397   3.165   2.429  0.3265  0.4961 -0.0582
  186DOPC   O1222853   0.383   3.408   2.462 -0.0287  0.0351 -0.0607
  186DOPC   O1122854   0.541   3.276   2.603  0.5289 -0.2282 -0.7153
  186DOPC    C122855   0.467   3.236   2.714 -0.4392 -0.5713 -0.2277
  186DOPC    HA22856   0.535   3.227   2.801 -0.2829 -0.0879 -0.2995
  186DOPC    HB22857   0.420   3.136   2.701 -0.5419 -0.6527  0.6764
  186DOPC    C222858   0.364   3.337   2.770  0.3443  0.0914  0.8654
  186DOPC    HS22859   0.288   3.363   2.693 -0.3070  0.2788  1.5689
  186DOPC   O2122860   0.438   3.459   2.816  0.0295  0.1954  0.5925
  186DOPC   C2122861   0.357   3.564   2.851  0.2573  0.0363  0.5497
  186DOPC   O2222862   0.236   3.570   2.837 -0.6579  0.3609  0.6224
  186DOPC   C2222863   0.441   3.662   2.916 -0.3156 -0.2733  0.0589
  186DOPC   H2R22864   0.508   3.713   2.843  1.0345 -0.9027  0.8245
  186DOPC   H2S22865   0.511   3.611   2.986  0.5180  1.4819  0.5795
  186DOPC    C322866   0.281   3.278   2.889  0.9504  0.7695  0.4374
  186DOPC    HX22867   0.218   3.199   2.843  3.5237 -0.4262 -1.2600
  186DOPC    HY22868   0.214   3.359   2.925 -1.1611 -0.8210  0.2844
  186DOPC   O3122869   0.362   3.222   2.995  0.1001 -0.2217 -0.5100
  186DOPC   C3122870   0.352   3.089   3.019 -0.1429  0.4819 -1.0135
  186DOPC   O3222871   0.287   3.015   2.953  0.1604 -0.0674  0.5561
  186DOPC   C3222872   0.432   3.058   3.142 -0.1178  0.3539 -0.4771
  186DOPC   H2X22873   0.542   3.068   3.129  0.3865 -1.1937  1.9712
  186DOPC   H2Y22874   0.394   3.130   3.217 -1.3922  1.1507 -1.8399
  186DOPC   C2322875   0.364   3.764   3.006 -0.9459  0.0130  0.0182
  186DOPC   H3R22876   0.254   3.749   3.000 -1.1151  1.4312 -0.7582
  186DOPC   H3S22877   0.381   3.869   2.975  1.8821 -0.2775  0.3109
  186DOPC   C2422878   0.408   3.759   3.151 -0.0508 -0.0732 -0.1964
  186DOPC   H4R22879   0.395   3.660   3.199 -0.3449  0.9098  1.8758
  186DOPC   H4S22880   0.339   3.819   3.214 -1.2755 -2.7070  1.1321
  186DOPC   C2522881   0.564   3.795   3.177 -0.3477  0.2695 -0.3860
  186DOPC   H5R22882   0.600   3.873   3.107  4.5027 -0.9967  0.3268
  186DOPC   H5S22883   0.620   3.706   3.142 -0.7666  0.2791 -1.1100
  186DOPC   C2622884   0.603   3.819   3.326  0.2463  0.4973 -0.0314
  186DOPC   H6R22885   0.544   3.906   3.362 -1.2982 -0.2195 -0.6826
  186DOPC   H6S22886   0.709   3.850   3.334 -0.3961  2.3184  2.5941
  186DOPC   C2722887   0.568   3.695   3.416  0.5299 -0.0044  1.0083
  186DOPC   H7R22888   0.569   3.596   3.366 -0.9290  1.2770 -1.8185
  186DOPC   H7S22889   0.457   3.697   3.423  0.4165  0.4366 -0.4676
  186DOPC   C2822890   0.622   3.691   3.551 -0.1912  0.1665 -0.5226
  186DOPC   H8R22891   0.570   3.623   3.623 -0.2723  0.6781 -0.0858
  186DOPC   H8S22892   0.607   3.787   3.604 -2.8853 -0.6657  0.4144
  186DOPC   C2922893   0.768   3.642   3.547 -0.2934  0.3644 -0.7746
  186DOPC   H9R22894   0.794   3.535   3.543 -1.2350  0.0265  1.2816
  186DOPC  C21022895   0.876   3.722   3.567  0.9061  0.1954 -0.1619
  186DOPC  H10R22896   0.977   3.685   3.549  0.9523  1.2689 -2.5064
  186DOPC  C21122897   0.871   3.876   3.580  0.2810  0.0062  0.2462
  186DOPC  H11R22898   0.905   3.900   3.683 -0.6991 -0.0554  0.5935
  186DOPC  H11S22899   0.773   3.924   3.560  0.2993  0.4324  1.1226
  186DOPC  C21222900   0.965   3.955   3.489 -0.2870  0.0613 -0.1805
  186DOPC  H12R22901   0.960   4.062   3.518  0.2207 -0.1418  0.7124
  186DOPC  H12S22902   0.923   3.950   3.387  0.6613  0.8272 -0.6258
  186DOPC  C21322903   1.113   3.917   3.487 -0.4729  0.0560 -0.4172
  186DOPC  H13R22904   1.183   3.990   3.442  0.5561  1.2445  2.8201
  186DOPC  H13S22905   1.132   3.817   3.443 -1.4462  0.3463 -1.5481
  186DOPC  C21422906   1.176   3.905   3.627 -0.0691 -0.2095  0.1589
  186DOPC  H14R22907   1.131   3.818   3.680  0.5239 -0.5782  0.0750
  186DOPC  H14S22908   1.148   3.994   3.686  2.9580  0.9878 -0.0287
  186DOPC  C21522909   1.327   3.869   3.631 -0.5768  0.5334 -0.1185
  186DOPC  H15R22910   1.378   3.955   3.582 -1.4529  0.2464 -1.5719
  186DOPC  H15S22911   1.349   3.778   3.572  0.3419  0.6677  0.0035
  186DOPC  C21622912   1.387   3.848   3.770 -0.1158 -0.1258 -0.3908
  186DOPC  H16R22913   1.332   3.766   3.822 -0.9182  1.3265  1.1386
  186DOPC  H16S22914   1.369   3.936   3.836 -2.4189 -1.9100  1.5492
  186DOPC  C21722915   1.539   3.823   3.750  0.0014 -0.5422  0.3924
  186DOPC  H17R22916   1.587   3.816   3.851  1.0190 -0.3305 -0.0596
  186DOPC  H17S22917   1.582   3.917   3.710 -0.2722 -0.6894 -0.2510
  186DOPC  C21822918   1.586   3.706   3.667  0.1636  0.5467  1.3272
  186DOPC  H18R22919   1.527   3.614   3.684 -1.4298  1.1483 -0.6146
  186DOPC  H18S22920   1.696   3.691   3.676  0.1233 -0.0554  0.8873
  186DOPC  H18T22921   1.573   3.727   3.559  2.5935 -0.5000  0.7442
  186DOPC   C3322922   0.412   2.906   3.185 -0.6836  0.4322 -0.1727
  186DOPC   H3X22923   0.459   2.839   3.109  1.1136  0.2116  1.0820
  186DOPC   H3Y22924   0.306   2.873   3.184 -1.2051  1.8845 -2.6278
  186DOPC   C3422925   0.481   2.870   3.316  0.4749  0.1818  0.4597
  186DOPC   H4X22926   0.450   2.934   3.401  1.0426  1.6990 -0.4220
  186DOPC   H4Y22927   0.589   2.892   3.300  0.4594  0.4055  0.6722
  186DOPC   C3522928   0.453   2.724   3.358  0.0583 -0.0810  0.3787
  186DOPC   H5X22929   0.492   2.656   3.278 -2.1017 -1.8340  0.7178
  186DOPC   H5Y22930   0.343   2.717   3.371 -0.1147 -0.6865 -1.1520
  186DOPC   C3622931   0.513   2.695   3.498 -0.0965 -0.1895  0.1850
  186DOPC   H6X22932   0.611   2.643   3.494  0.1379  0.3172 -1.8856
  186DOPC   H6Y22933   0.524   2.785   3.564  2.4513 -0.9225  0.8834
  186DOPC   C3722934   0.416   2.612   3.583  0.3521 -0.4713  0.5677
  186DOPC   H7X22935   0.317   2.661   3.588 -0.0166 -1.0217 -0.8787
  186DOPC   H7Y22936   0.386   2.515   3.539 -0.2276 -0.1751  0.2996
  186DOPC   C3822937   0.464   2.587   3.732 -0.9020 -0.4975  0.4752
  186DOPC   H8X22938   0.510   2.679   3.775  3.6246 -1.8557 -0.8917
  186DOPC   H8Y22939   0.539   2.506   3.720  1.3698  1.4434  0.6245
  186DOPC   C3922940   0.361   2.546   3.837  0.4433  0.0394 -0.1434
  186DOPC   H9X22941   0.293   2.469   3.798  1.5874 -2.0459  1.7324
  186DOPC  C31022942   0.335   2.596   3.961  0.6617 -0.2495  0.1747
  186DOPC  H10X22943   0.248   2.567   4.023 -0.2812  1.5510 -0.2284
  186DOPC  C31122944   0.411   2.699   4.038  0.2044 -0.1163  0.4838
  186DOPC  H11X22945   0.366   2.800   4.028  1.3857  0.5987  1.9992
  186DOPC  H11Y22946   0.512   2.724   3.998 -0.6152  2.2192 -0.3058
  186DOPC  C31222947   0.414   2.655   4.186 -0.0701  0.5382 -0.6242
  186DOPC  H12X22948   0.422   2.544   4.195 -0.4014  0.5734  0.2288
  186DOPC  H12Y22949   0.320   2.693   4.231  1.1398  0.6051  2.0065
  186DOPC  C31322950   0.526   2.715   4.267  0.1549  0.1070 -0.7440
  186DOPC  H13X22951   0.612   2.754   4.209  1.3190  2.4636  2.3355
  186DOPC  H13Y22952   0.475   2.808   4.301  0.2968  0.2917 -1.0347
  186DOPC  C31422953   0.559   2.635   4.393 -0.3609 -0.2417  0.4148
  186DOPC  H14X22954   0.465   2.616   4.450 -1.6284 -0.0769 -1.5317
  186DOPC  H14Y22955   0.606   2.541   4.355 -0.0583 -0.0533  0.3206
  186DOPC  C31522956   0.651   2.716   4.481  0.2163 -0.4217  0.3176
  186DOPC  H15X22957   0.597   2.812   4.496  0.5017 -0.0730 -0.8033
  186DOPC  H15Y22958   0.743   2.748   4.427 -1.4765 -0.0490 -2.5556
  186DOPC  C31622959   0.681   2.655   4.619  0.7130 -0.0751  0.5801
  186DOPC  H16X22960   0.584   2.673   4.670  0.9136 -1.4458  1.5061
  186DOPC  H16Y22961   0.696   2.548   4.593 -1.0535 -0.0033 -0.8884
  186DOPC  C31722962   0.784   2.722   4.700  0.0206  0.3094  0.8385
  186DOPC  H17X22963   0.790   2.678   4.802  0.6804 -1.0057  0.2689
  186DOPC  H17Y22964   0.885   2.700   4.658 -0.2419  0.2007  0.2592
  186DOPC  C31822965   0.774   2.873   4.701  0.3508  0.4850 -0.2694
  186DOPC  H18X22966   0.785   2.921   4.601  1.9275 -0.9674 -0.8476
  186DOPC  H18Y22967   0.683   2.913   4.751  1.1747  1.4529  0.4761
  186DOPC  H18Z22968   0.862   2.909   4.758 -0.0135 -0.7454  1.1317
  187DOPC     N22969   5.503   1.030   3.781 -0.2638 -0.1300 -0.1107
  187DOPC   C1222970   5.552   1.127   3.893  0.8985  0.0732 -0.1318
  187DOPC  H12A22971   5.469   1.142   3.960  0.5664 -0.7089 -0.3555
  187DOPC  H12B22972   5.577   1.222   3.848 -1.1881  0.5511 -0.4088
  187DOPC   C1322973   5.509   0.892   3.833  0.2292  0.2763 -0.1327
  187DOPC  H13A22974   5.430   0.871   3.904  1.2625 -1.2217  0.6242
  187DOPC  H13B22975   5.509   0.816   3.756  2.5454 -1.4091  1.3888
  187DOPC  H13C22976   5.604   0.876   3.882  1.4607 -0.5917 -2.6495
  187DOPC   C1422977   5.597   1.034   3.662 -1.5015  0.0472 -0.1975
  187DOPC  H14A22978   5.695   1.005   3.696 -1.5034 -0.2330 -0.4264
  187DOPC  H14B22979   5.572   0.959   3.588  2.2727 -1.5920 -0.0394
  187DOPC  H14C22980   5.582   1.127   3.610  0.6092 -0.9888 -2.9019
  187DOPC   C1522981   5.366   1.060   3.739  0.9350 -0.3830 -0.5477
  187DOPC  H15A22982   5.298   1.042   3.821  1.3232  1.4439  0.2466
  187DOPC  H15B22983   5.340   1.007   3.649  0.7509 -1.9785  0.4238
  187DOPC  H15C22984   5.348   1.161   3.705  0.9470 -0.1616  0.0751
  187DOPC   C1122985   5.668   1.081   3.992  0.7447 -0.6528 -0.1401
  187DOPC  H11A22986   5.690   1.163   4.063  0.6523  0.0608 -0.9177
  187DOPC  H11B22987   5.628   0.992   4.045 -3.8068  1.4111  0.4122
  187DOPC     P22988   5.863   1.162   3.843 -0.4247 -0.0534  0.1028
  187DOPC   O1322989   5.771   1.276   3.809 -0.1195 -0.3806 -0.8218
  187DOPC   O1422990   5.933   1.094   3.729 -0.2448 -0.3580 -0.2198
  187DOPC   O1222991   5.790   1.047   3.928  0.2643 -0.2429 -0.4852
  187DOPC   O1122992   5.983   1.207   3.948  0.2896 -0.2722  0.3150
  187DOPC    C122993   6.045   1.113   4.035  0.6100  0.6942  0.0866
  187DOPC    HA22994   6.154   1.095   4.020  1.0511 -0.3182  3.6204
  187DOPC    HB22995   5.995   1.016   4.017  0.1109  0.9162  0.2577
  187DOPC    C222996   6.014   1.138   4.189 -0.0523 -0.1900  0.4753
  187DOPC    HS22997   5.917   1.094   4.222  0.4923 -2.3209 -0.5556
  187DOPC   O2122998   6.033   1.271   4.224  0.4175  0.3119  0.0653
  187DOPC   C2122999   5.929   1.353   4.225 -0.5434  0.0833  0.4423
  187DOPC   O2223000   5.815   1.319   4.209  0.1919 -0.5105 -0.3220
  187DOPC   C2223001   5.984   1.495   4.256  0.5909 -0.1542  0.2516
  187DOPC   H2R23002   6.025   1.535   4.161  0.9529 -0.0554  0.4469
  187DOPC   H2S23003   6.058   1.486   4.339  2.5535  0.9223 -1.2722
  187DOPC    C323004   6.122   1.063   4.271  0.3895 -0.2092 -0.2605
  187DOPC    HX23005   6.215   1.124   4.278 -0.8265  1.7504 -0.4657
  187DOPC    HY23006   6.136   0.965   4.221 -1.4205 -0.5032 -0.2792
  187DOPC   O3123007   6.081   1.041   4.409 -0.1902  0.7158  0.0005
  187DOPC   C3123008   6.027   0.917   4.434  0.2285  0.7380 -0.4271
  187DOPC   O3223009   5.993   0.837   4.350  0.1978 -0.2217 -0.2767
  187DOPC   C3223010   6.026   0.897   4.585 -0.8187  0.3125  0.2550
  187DOPC   H2X23011   5.939   0.949   4.628  0.4528  1.5199  1.4740
  187DOPC   H2Y23012   6.004   0.792   4.612 -2.5358  0.0825 -1.7651
  187DOPC   C2323013   5.877   1.605   4.299 -1.0853  0.7066 -0.1757
  187DOPC   H3R23014   5.817   1.569   4.386 -0.8047 -0.7779 -0.5802
  187DOPC   H3S23015   5.814   1.621   4.209 -0.0002 -0.6038 -1.2064
  187DOPC   C2423016   5.934   1.742   4.349 -0.3017 -0.4385  0.3124
  187DOPC   H4R23017   5.853   1.817   4.357 -0.6718 -0.7398 -0.4671
  187DOPC   H4S23018   6.006   1.772   4.269 -0.8347  1.5112  0.5312
  187DOPC   C2523019   6.012   1.737   4.474  0.0117  0.3389  0.1592
  187DOPC   H5R23020   6.100   1.804   4.463  0.2309 -0.3280 -2.9751
  187DOPC   H5S23021   6.052   1.640   4.512  2.4577  1.0786 -0.3587
  187DOPC   C2623022   5.925   1.782   4.592 -0.4341  0.4256 -0.2779
  187DOPC   H6R23023   5.829   1.726   4.590 -0.2645  0.0332  1.2745
  187DOPC   H6S23024   5.889   1.887   4.584  1.3960  1.1378  0.3964
  187DOPC   C2723025   6.004   1.773   4.726 -0.0990 -0.3252  0.0109
  187DOPC   H7R23026   6.095   1.837   4.729  0.1963 -0.7021  3.1417
  187DOPC   H7S23027   6.045   1.669   4.728  3.3157  0.8680 -0.1681
  187DOPC   C2823028   5.933   1.799   4.855  0.3325 -0.1269  0.5135
  187DOPC   H8R23029   5.849   1.728   4.873  0.8756 -1.8649 -2.8785
  187DOPC   H8S23030   5.887   1.899   4.840  0.3287 -0.3401 -1.1456
  187DOPC   C2923031   6.014   1.796   4.981  0.0773 -0.2052 -0.1123
  187DOPC   H9R23032   6.061   1.699   5.006 -0.7324 -0.6005 -0.0823
  187DOPC  C21023033   6.036   1.898   5.067 -0.9459 -0.1425  0.1923
  187DOPC  H10R23034   6.092   1.882   5.161 -1.2460  0.4725  0.4806
  187DOPC  C21123035   5.985   2.037   5.049  0.5876  0.3618 -0.0784
  187DOPC  H11R23036   5.993   2.063   4.941  0.1502  0.8073 -0.0049
  187DOPC  H11S23037   6.042   2.121   5.095  2.4549 -1.2031  0.6297
  187DOPC  C21223038   5.828   2.049   5.076 -0.1330  0.2002  0.2448
  187DOPC  H12R23039   5.774   1.970   5.020 -0.5554  0.6970 -0.0510
  187DOPC  H12S23040   5.795   2.149   5.041 -1.0255  0.4498  1.7268
  187DOPC  C21323041   5.777   2.036   5.215  0.2546  0.0076  0.2099
  187DOPC  H13R23042   5.835   2.104   5.280  0.5371  1.0131 -1.0671
  187DOPC  H13S23043   5.787   1.928   5.239  0.1483 -0.0284  0.0927
  187DOPC  C21423044   5.625   2.070   5.227 -0.7163  0.0611  0.3415
  187DOPC  H14R23045   5.587   2.002   5.147  2.4984 -1.0125 -0.4108
  187DOPC  H14S23046   5.611   2.177   5.202  1.1308  0.2636  0.0397
  187DOPC  C21523047   5.580   2.020   5.365  0.0903 -0.6225  0.0749
  187DOPC  H15R23048   5.623   2.091   5.438  0.8545  1.3095 -2.1120
  187DOPC  H15S23049   5.605   1.916   5.393  3.2894  0.1901  0.5606
  187DOPC  C21623050   5.428   2.023   5.385  0.4571  0.2687  0.0548
  187DOPC  H16R23051   5.373   1.959   5.313  0.4389 -1.1730  1.2909
  187DOPC  H16S23052   5.392   2.127   5.366  0.8628  0.4357  0.1904
  187DOPC  C21723053   5.389   1.987   5.526 -0.3615  0.0148  0.3111
  187DOPC  H17R23054   5.443   2.056   5.594 -0.1813 -0.3827  0.5788
  187DOPC  H17S23055   5.418   1.882   5.548 -0.2724 -0.2180 -0.8591
  187DOPC  C21823056   5.240   2.002   5.553  0.0454  0.1549 -0.1817
  187DOPC  H18R23057   5.226   1.956   5.653 -0.6824 -2.0933 -1.2496
  187DOPC  H18S23058   5.183   1.943   5.478  0.7570 -1.8616  0.7679
  187DOPC  H18T23059   5.213   2.109   5.542  0.0348  0.0661 -1.0637
  187DOPC   C3323060   6.152   0.958   4.660 -0.7048 -0.2131 -0.2882
  187DOPC   H3X23061   6.120   0.986   4.763 -0.2928  0.1085 -0.2453
  187DOPC   H3Y23062   6.195   1.048   4.610 -0.6938 -0.4443 -0.7033
  187DOPC   C3423063   6.268   0.849   4.677  0.3300 -0.1814 -0.4453
  187DOPC   H4X23064   6.215   0.752   4.685 -0.7811  0.4410 -0.0482
  187DOPC   H4Y23065   6.317   0.881   4.771 -1.5557 -0.5693  0.7268
  187DOPC   C3523066   6.366   0.828   4.559 -0.2786  0.0664  0.5663
  187DOPC   H5X23067   6.407   0.924   4.521 -1.0187 -0.3714 -1.5238
  187DOPC   H5Y23068   6.307   0.792   4.472 -0.4458  0.8608  0.3405
  187DOPC   C3623069   6.477   0.727   4.599  0.1519  0.1075 -0.2243
  187DOPC   H6X23070   6.530   0.774   4.684 -1.2589  0.3184  0.5767
  187DOPC   H6Y23071   6.438   0.636   4.648  0.3312  1.3085  2.2872
  187DOPC   C3723072   6.579   0.694   4.492 -1.4178  0.3497  0.7061
  187DOPC   H7X23073   6.656   0.623   4.530 -2.3120 -0.2985  1.3284
  187DOPC   H7Y23074   6.524   0.646   4.409  1.8873 -0.6704 -1.0754
  187DOPC   C3823075   6.667   0.811   4.436  0.6276  0.1288 -0.3074
  187DOPC   H8X23076   6.708   0.869   4.521 -0.9371 -0.2878  0.7921
  187DOPC   H8Y23077   6.593   0.876   4.386 -0.1440 -1.0842 -0.7929
  187DOPC   C3923078   6.767   0.758   4.334 -0.5358 -0.0264  0.8493
  187DOPC   H9X23079   6.773   0.652   4.307  1.9542  0.5101 -1.0870
  187DOPC  C31023080   6.859   0.835   4.271  0.4911  0.0280 -0.4069
  187DOPC  H10X23081   6.930   0.785   4.204  1.0354 -0.4432  0.5001
  187DOPC  C31123082   6.891   0.987   4.281 -0.1344  0.0882  0.5494
  187DOPC  H11X23083   6.802   1.031   4.329 -1.6401 -1.4084 -0.7274
  187DOPC  H11Y23084   6.898   1.020   4.175 -0.4807 -0.6972  0.2743
  187DOPC  C31223085   7.024   1.020   4.366  0.2369 -0.6535 -0.8449
  187DOPC  H12X23086   7.066   1.122   4.351 -0.5123 -0.0489  0.8485
  187DOPC  H12Y23087   7.104   0.947   4.339  1.1838 -0.4563  1.2175
  187DOPC  C31323088   6.996   1.006   4.516 -0.5232 -0.2330  0.4970
  187DOPC  H13X23089   6.925   1.084   4.547 -1.2643  0.3391 -2.3065
  187DOPC  H13Y23090   6.946   0.908   4.529 -2.7502  0.6957 -0.6172
  187DOPC  C31423091   7.133   1.021   4.592  0.1145  0.0745  0.0906
  187DOPC  H14X23092   7.207   0.944   4.562 -1.1465 -1.2854  0.3572
  187DOPC  H14Y23093   7.183   1.119   4.578 -0.2426  0.3936  0.9728
  187DOPC  C31523094   7.103   0.996   4.741  0.6610  0.7347 -0.5628
  187DOPC  H15X23095   7.065   0.894   4.764 -0.7125  1.4512  0.5107
  187DOPC  H15Y23096   7.032   1.078   4.769  1.6170  1.8194 -1.2625
  187DOPC  C31623097   7.238   1.002   4.812 -0.0625 -0.0616 -0.4903
  187DOPC  H16X23098   7.297   0.908   4.815  0.0857  0.0101 -0.9519
  187DOPC  H16Y23099   7.301   1.086   4.776 -1.0822  0.7421 -0.4528
  187DOPC  C31723100   7.218   1.041   4.961  0.3824 -0.9746  0.2219
  187DOPC  H17X23101   7.151   1.130   4.961 -0.8153 -1.8472  1.0681
  187DOPC  H17Y23102   7.157   0.965   5.014  0.1754 -1.3501 -0.5496
  187DOPC  C31823103   7.348   1.091   5.025  0.6305  0.3986  0.5148
  187DOPC  H18X23104   7.428   1.015   5.013  0.0954 -0.5182  2.4352
  187DOPC  H18Y23105   7.378   1.192   4.990  0.7728  0.1535 -0.0923
  187DOPC  H18Z23106   7.327   1.109   5.133 -0.9878 -0.1548  0.3215
  188DOPC     N23107   0.966   1.483   2.841 -1.0870  0.1003 -0.3346
  188DOPC   C1223108   1.066   1.441   2.949 -0.7011 -0.2154 -1.0181
  188DOPC  H12A23109   1.121   1.530   2.974  0.4582 -1.3639  0.7122
  188DOPC  H12B23110   1.132   1.366   2.909 -0.2482  1.5286 -3.8808
  188DOPC   C1323111   0.902   1.363   2.780  0.9264 -0.4491  0.1675
  188DOPC  H13A23112   0.850   1.394   2.690  2.0999 -0.3018 -0.4820
  188DOPC  H13B23113   0.969   1.284   2.751 -0.3491 -1.5933  0.2340
  188DOPC  H13C23114   0.836   1.327   2.857  0.1356 -1.8227 -1.0880
  188DOPC   C1423115   1.042   1.556   2.730  0.3589 -0.2384 -0.3072
  188DOPC  H14A23116   0.972   1.578   2.651  0.1578  1.1188  0.2257
  188DOPC  H14B23117   1.075   1.655   2.756 -0.0618 -0.0658 -0.4128
  188DOPC  H14C23118   1.124   1.493   2.700 -0.1089 -0.6039 -0.8518
  188DOPC   C1523119   0.864   1.581   2.891 -0.1239 -0.1714 -0.0284
  188DOPC  H15A23120   0.773   1.585   2.834 -0.3764 -0.6758  0.3342
  188DOPC  H15B23121   0.903   1.682   2.898 -0.3758 -0.0060 -0.8524
  188DOPC  H15C23122   0.837   1.550   2.991  0.7661 -1.4902 -0.1613
  188DOPC   C1123123   1.022   1.375   3.084  0.2881  0.0585  0.1286
  188DOPC  H11A23124   1.112   1.365   3.148  2.2542 -1.7970 -2.7025
  188DOPC  H11B23125   0.943   1.437   3.133 -0.2970  0.1994 -0.9674
  188DOPC     P23126   1.058   1.120   3.033 -0.5938 -0.7173 -0.3020
  188DOPC   O1323127   1.196   1.159   3.003  0.1421 -0.4851 -0.0070
  188DOPC   O1423128   0.999   1.028   2.931 -0.5091  0.1442 -0.3183
  188DOPC   O1223129   0.970   1.244   3.047 -0.3475  0.5057 -0.5217
  188DOPC   O1123130   1.060   1.076   3.180  0.1287 -0.6204  0.1564
  188DOPC    C123131   0.957   1.008   3.245 -0.4442  0.9181  0.2960
  188DOPC    HA23132   0.956   0.907   3.198  0.6834  2.1725 -2.7567
  188DOPC    HB23133   0.854   1.047   3.233 -1.3362 -1.4715 -0.3735
  188DOPC    C223134   0.977   0.996   3.398  0.1166  0.4482  0.3584
  188DOPC    HS23135   0.921   0.904   3.422 -1.4618  0.9879 -1.0602
  188DOPC   O2123136   0.921   1.110   3.456 -0.2216 -0.8382  0.4314
  188DOPC   C2123137   0.795   1.116   3.484 -0.1606 -0.1121  0.0290
  188DOPC   O2223138   0.710   1.032   3.461 -0.4200 -0.0408 -0.4097
  188DOPC   C2223139   0.766   1.257   3.543  0.1197  0.2725 -0.0805
  188DOPC   H2R23140   0.660   1.270   3.512  0.8507  0.1334 -2.9493
  188DOPC   H2S23141   0.833   1.328   3.489  1.4134  0.0710  1.2091
  188DOPC    C323142   1.125   0.979   3.437 -0.6038 -0.1406  0.3532
  188DOPC    HX23143   1.179   1.071   3.409  0.1118 -0.6617  0.0016
  188DOPC    HY23144   1.169   0.895   3.379  1.1517  2.4613 -2.3939
  188DOPC   O3123145   1.123   0.951   3.576 -0.1719 -0.0250  0.1282
  188DOPC   C3123146   1.235   0.948   3.640  0.2037  0.3083 -0.2874
  188DOPC   O3223147   1.339   0.978   3.588  0.0034 -0.2268  0.2980
  188DOPC   C3223148   1.215   0.880   3.777  0.4485  0.8256  0.4121
  188DOPC   H2X23149   1.259   0.955   3.847 -2.8384  0.6757  2.8935
  188DOPC   H2Y23150   1.107   0.871   3.800 -0.2321  1.0112 -2.3588
  188DOPC   C2323151   0.799   1.275   3.690 -0.4193 -0.1714 -0.3056
  188DOPC   H3R23152   0.813   1.175   3.737  1.7451  0.8997  1.4732
  188DOPC   H3S23153   0.720   1.322   3.752  0.0551  1.5414 -0.9391
  188DOPC   C2423154   0.931   1.363   3.714  0.5910  0.2590 -0.3920
  188DOPC   H4R23155   0.935   1.445   3.639  3.1299  0.5352 -0.0509
  188DOPC   H4S23156   1.018   1.295   3.703 -0.8515 -1.7751  0.2415
  188DOPC   C2523157   0.927   1.424   3.860 -0.1399  0.0572  0.0469
  188DOPC   H5R23158   0.843   1.496   3.864  0.2578  0.8136 -2.8994
  188DOPC   H5S23159   1.027   1.469   3.873  1.2933 -2.7099 -0.5412
  188DOPC   C2623160   0.916   1.319   3.975  0.2246 -0.0588  0.4265
  188DOPC   H6R23161   1.007   1.256   3.959  0.0660 -0.0489 -0.6014
  188DOPC   H6S23162   0.824   1.263   3.947 -0.1264  1.0067 -0.6682
  188DOPC   C2723163   0.906   1.370   4.116  0.4969  0.3969 -0.0555
  188DOPC   H7R23164   0.807   1.409   4.146  0.1314 -1.9149  2.1272
  188DOPC   H7S23165   0.986   1.446   4.126 -0.2434  1.4015 -1.4374
  188DOPC   C2823166   0.931   1.260   4.217 -0.2201 -0.7684 -0.3429
  188DOPC   H8R23167   0.945   1.311   4.315 -2.2573 -0.2334 -0.2949
  188DOPC   H8S23168   1.028   1.209   4.200  1.4568  2.2038 -0.3862
  188DOPC   C2923169   0.827   1.152   4.218  0.3177  0.4747 -0.2079
  188DOPC   H9R23170   0.788   1.123   4.119  0.3478 -0.0828 -0.0601
  188DOPC  C21023171   0.783   1.083   4.328 -1.0117 -1.1452 -0.6624
  188DOPC  H10R23172   0.695   1.018   4.321 -1.6413 -0.5372  1.1852
  188DOPC  C21123173   0.832   1.094   4.472 -0.1058 -0.0402 -0.4051
  188DOPC  H11R23174   0.743   1.115   4.535 -0.2281  2.3969 -1.2961
  188DOPC  H11S23175   0.897   1.183   4.490 -2.1635  1.4766 -0.1671
  188DOPC  C21223176   0.893   0.970   4.527 -0.4421  0.1677 -0.7009
  188DOPC  H12R23177   0.970   0.921   4.464  2.4830  0.0782  2.6291
  188DOPC  H12S23178   0.818   0.891   4.553 -3.0813  2.2111 -1.6462
  188DOPC  C21323179   0.968   0.992   4.662  0.0505  0.7835  0.5842
  188DOPC  H13R23180   0.896   1.004   4.746 -0.1622  1.4525  0.3105
  188DOPC  H13S23181   1.028   1.085   4.663  0.6804  0.3909  1.6625
  188DOPC  C21423182   1.057   0.879   4.697  1.0857 -0.2133 -0.6345
  188DOPC  H14R23183   1.086   0.904   4.802 -0.7217 -2.0951  0.3959
  188DOPC  H14S23184   1.140   0.893   4.625  1.7180 -0.1164  0.1057
  188DOPC  C21523185   1.016   0.734   4.693 -0.8998  0.3625  0.6209
  188DOPC  H15R23186   0.966   0.713   4.596 -1.1565 -0.6203  0.9508
  188DOPC  H15S23187   0.945   0.719   4.777 -1.0724 -0.1406  0.3876
  188DOPC  C21623188   1.137   0.633   4.708 -0.2615 -0.7861 -0.3643
  188DOPC  H16R23189   1.183   0.653   4.807 -1.5905  0.2386  0.0802
  188DOPC  H16S23190   1.207   0.667   4.628  1.6748 -0.4260  1.3961
  188DOPC  C21723191   1.104   0.490   4.685  0.0863  0.0535  0.2647
  188DOPC  H17R23192   1.060   0.478   4.583 -0.6890 -0.7179  0.6782
  188DOPC  H17S23193   1.024   0.460   4.756 -1.4328  2.1489 -0.4465
  188DOPC  C21823194   1.221   0.394   4.699  0.6172  0.8746 -0.2103
  188DOPC  H18R23195   1.305   0.432   4.637  0.3491  0.8238 -0.6151
  188DOPC  H18S23196   1.199   0.294   4.656  0.6884 -0.1110  1.9537
  188DOPC  H18T23197   1.244   0.404   4.807 -1.4966  0.5473  0.3280
  188DOPC   C3323198   1.290   0.745   3.779  0.0818 -0.0312  0.2972
  188DOPC   H3X23199   1.393   0.749   3.737  0.0711 -1.1824  0.1173
  188DOPC   H3Y23200   1.229   0.686   3.708 -1.0515  0.8806  0.4968
  188DOPC   C3423201   1.299   0.681   3.916  0.5969  0.5009  0.3097
  188DOPC   H4X23202   1.369   0.594   3.917 -2.0613 -1.8025 -0.3929
  188DOPC   H4Y23203   1.205   0.628   3.941  0.3707  0.4075 -0.7228
  188DOPC   C3523204   1.345   0.779   4.027 -0.2066 -0.1685 -0.5342
  188DOPC   H5X23205   1.265   0.856   4.032  1.7536  1.9554  0.4023
  188DOPC   H5Y23206   1.444   0.822   4.000  0.6360 -1.4272  0.4623
  188DOPC   C3623207   1.362   0.726   4.179 -0.6497  0.0843  0.0546
  188DOPC   H6X23208   1.263   0.735   4.228  0.6190 -0.7462  2.9922
  188DOPC   H6Y23209   1.397   0.621   4.170 -0.2652  0.1652  0.5588
  188DOPC   C3723210   1.458   0.795   4.269 -0.9545 -0.6715  0.2101
  188DOPC   H7X23211   1.560   0.767   4.233 -1.3292 -0.1503 -1.3155
  188DOPC   H7Y23212   1.451   0.905   4.267  1.4930 -0.4585 -0.2750
  188DOPC   C3823213   1.442   0.737   4.413 -0.1672  0.3505 -0.3313
  188DOPC   H8X23214   1.440   0.627   4.402  2.2086  0.0795  1.1986
  188DOPC   H8Y23215   1.348   0.769   4.462  0.2130  0.4892  0.3111
  188DOPC   C3923216   1.563   0.765   4.501 -0.6545 -0.1095  0.3801
  188DOPC   H9X23217   1.655   0.766   4.441 -2.2398 -0.2939 -2.2012
  188DOPC  C31023218   1.564   0.814   4.627 -0.4813 -0.6235  0.4820
  188DOPC  H10X23219   1.662   0.840   4.671 -0.9644  0.0857  1.1701
  188DOPC  C31123220   1.440   0.836   4.704 -0.4088  0.2350 -0.3944
  188DOPC  H11X23221   1.410   0.740   4.751 -0.0059  0.2477 -0.1069
  188DOPC  H11Y23222   1.362   0.876   4.636  0.1235  1.4090 -0.3498
  188DOPC  C31223223   1.458   0.942   4.805  0.5703 -0.3029 -0.6359
  188DOPC  H12X23224   1.357   0.965   4.845  0.1083 -2.3683 -0.5452
  188DOPC  H12Y23225   1.488   1.034   4.750  0.8698  0.3912  0.6459
  188DOPC  C31323226   1.545   0.919   4.928 -0.3166  0.3713  0.7082
  188DOPC  H13X23227   1.515   0.830   4.988  0.5984 -1.4327 -1.3595
  188DOPC  H13Y23228   1.652   0.901   4.901 -0.1887 -0.0443  1.4604
  188DOPC  C31423229   1.542   1.036   5.033  0.0670  0.7268 -0.1244
  188DOPC  H14X23230   1.565   1.126   4.973  0.0388  0.9506  0.1975
  188DOPC  H14Y23231   1.442   1.052   5.079  0.1074  0.2375  0.1433
  188DOPC  C31523232   1.647   1.034   5.145 -0.5572 -0.0970  0.2309
  188DOPC  H15X23233   1.629   0.948   5.213  1.4873 -0.1839  0.7299
  188DOPC  H15Y23234   1.642   1.124   5.210  2.1106  1.3654 -1.4198
  188DOPC  C31623235   1.794   1.016   5.103 -0.0960 -0.2529 -0.3854
  188DOPC  H16X23236   1.852   1.019   5.198  0.9697  1.1871 -1.0374
  188DOPC  H16Y23237   1.810   0.914   5.064 -0.9759 -1.0760  1.3034
  188DOPC  C31723238   1.843   1.129   5.011 -0.4754  0.5624  0.0136
  188DOPC  H17X23239   1.949   1.113   4.983 -0.7434 -1.9366  0.2426
  188DOPC  H17Y23240   1.792   1.121   4.912  2.0382 -0.9801 -1.2385
  188DOPC  C31823241   1.828   1.279   5.040  0.2534  0.4694  0.5199
  188DOPC  H18X23242   1.848   1.338   4.948 -1.1056  0.2787  0.0859
  188DOPC  H18Y23243   1.728   1.304   5.083 -0.5105 -3.1563  1.1904
  188DOPC  H18Z23244   1.905   1.313   5.113  1.0804 -0.7196  0.2417
  189DOPC     N23245   3.117   1.162   3.370 -0.2675  0.0351 -0.0594
  189DOPC   C1223246   3.072   1.026   3.416  0.0595  0.1878  0.1220
  189DOPC  H12A23247   3.143   0.982   3.484  0.0357 -0.6953 -0.4033
  189DOPC  H12B23248   3.077   0.968   3.325 -0.0015 -0.3509  0.4544
  189DOPC   C1323249   3.256   1.174   3.326  0.1726 -0.2019 -0.1245
  189DOPC  H13A23250   3.290   1.276   3.321  1.1745 -0.5675 -1.1318
  189DOPC  H13B23251   3.318   1.139   3.408 -2.1105 -2.5181  0.7866
  189DOPC  H13C23252   3.281   1.123   3.234 -1.4946  0.4485 -0.9674
  189DOPC   C1423253   3.096   1.260   3.481  0.9885 -0.2859 -0.3613
  189DOPC  H14A23254   3.149   1.221   3.566  1.4512 -0.0928 -0.5559
  189DOPC  H14B23255   3.132   1.360   3.460  0.6839 -0.0813  0.0743
  189DOPC  H14C23256   2.991   1.262   3.507  1.6964 -0.8235  2.9618
  189DOPC   C1523257   3.043   1.220   3.253 -0.4834 -0.1363  0.2890
  189DOPC  H15A23258   3.059   1.161   3.164  2.0498 -0.4147  0.8451
  189DOPC  H15B23259   3.071   1.319   3.219 -0.2191 -0.3657 -0.1656
  189DOPC  H15C23260   2.937   1.227   3.274 -0.4777  1.7588 -0.1326
  189DOPC   C1123261   2.924   1.010   3.476 -1.1134 -0.1970  0.5472
  189DOPC  H11A23262   2.900   0.902   3.481  0.5923 -0.7336 -1.5153
  189DOPC  H11B23263   2.927   1.062   3.574  2.8114 -1.8693  1.4904
  189DOPC     P23264   2.711   1.145   3.443  0.4780 -0.2741 -0.1191
  189DOPC   O1323265   2.614   1.170   3.338 -0.0863 -0.4428  0.1604
  189DOPC   O1423266   2.764   1.259   3.516  0.1268  0.3184  0.6129
  189DOPC   O1223267   2.832   1.066   3.383 -0.3614 -0.0275 -0.4385
  189DOPC   O1123268   2.645   1.049   3.549  0.2776  0.5446 -0.2228
  189DOPC    C123269   2.501   1.077   3.581  0.4769  0.3159 -0.3195
  189DOPC    HA23270   2.470   0.974   3.609  1.2857 -0.5231 -2.2717
  189DOPC    HB23271   2.439   1.091   3.490 -0.0379  0.8705  0.1125
  189DOPC    C223272   2.476   1.190   3.683 -0.5122  0.0136 -1.3988
  189DOPC    HS23273   2.504   1.288   3.638  0.4897  1.5887  2.2963
  189DOPC   O2123274   2.565   1.171   3.801  0.1534  0.4173  0.1079
  189DOPC   C2123275   2.611   1.283   3.853  0.4188 -0.0796 -0.1382
  189DOPC   O2223276   2.584   1.394   3.814 -0.6874 -0.1631  0.3214
  189DOPC   C2223277   2.693   1.242   3.964  0.4875  0.1232 -0.3691
  189DOPC   H2R23278   2.743   1.333   4.003  0.9696  0.6000 -2.0484
  189DOPC   H2S23279   2.771   1.175   3.923 -1.1834 -0.6633 -2.4625
  189DOPC    C323280   2.327   1.219   3.725  0.5627  0.1311  0.0313
  189DOPC    HX23281   2.259   1.260   3.648 -2.5567 -0.8254  2.1081
  189DOPC    HY23282   2.332   1.301   3.801  0.7356  0.4500 -0.3162
  189DOPC   O3123283   2.275   1.096   3.775 -0.0797 -0.1271 -0.3024
  189DOPC   C3123284   2.256   1.082   3.907  1.1767  0.3705 -0.2078
  189DOPC   O3223285   2.287   1.160   3.991 -0.3119 -0.0153  0.4284
  189DOPC   C3223286   2.208   0.936   3.927  0.0764 -1.3883 -0.6546
  189DOPC   H2X23287   2.104   0.929   3.889 -0.6858 -0.3392  1.0802
  189DOPC   H2Y23288   2.275   0.866   3.873 -1.6995 -3.8473  0.1426
  189DOPC   C2323289   2.615   1.163   4.075  0.2198  0.6274  0.4115
  189DOPC   H3R23290   2.569   1.067   4.045  2.1598  0.1577 -1.2697
  189DOPC   H3S23291   2.529   1.229   4.100 -0.4643 -0.2935  0.5489
  189DOPC   C2423292   2.695   1.152   4.203  1.0617  0.6021  1.3024
  189DOPC   H4R23293   2.721   1.257   4.230  0.4040  1.0798  0.1621
  189DOPC   H4S23294   2.787   1.094   4.180  0.6025  1.4589 -3.8879
  189DOPC   C2523295   2.608   1.096   4.314 -0.2619 -0.3723 -0.3077
  189DOPC   H5R23296   2.611   0.986   4.300 -1.0054 -0.4471  0.0555
  189DOPC   H5S23297   2.502   1.130   4.308 -0.3969 -0.7194  0.0809
  189DOPC   C2623298   2.672   1.133   4.451 -0.2477 -0.3157 -0.6296
  189DOPC   H6R23299   2.653   1.241   4.469  0.0257 -0.1160 -1.5031
  189DOPC   H6S23300   2.779   1.109   4.441 -0.3717 -0.8089 -0.7834
  189DOPC   C2723301   2.625   1.053   4.571  0.4333  0.0818 -0.6662
  189DOPC   H7R23302   2.638   0.944   4.552  0.5343  0.1683 -1.0970
  189DOPC   H7S23303   2.514   1.056   4.561  0.5713  1.2813 -2.2253
  189DOPC   C2823304   2.672   1.092   4.716  0.2560 -0.1415  0.3529
  189DOPC   H8R23305   2.640   1.196   4.737  1.1032 -0.1832  2.0152
  189DOPC   H8S23306   2.783   1.093   4.721  0.4692 -4.3235 -0.3110
  189DOPC   C2923307   2.614   0.992   4.816 -0.3243  0.7470 -0.2928
  189DOPC   H9R23308   2.514   0.954   4.791 -1.1827  1.7202  1.4082
  189DOPC  C21023309   2.660   0.963   4.942  0.3191 -0.2705  0.1059
  189DOPC  H10R23310   2.591   0.902   5.003  1.0814 -0.0193  1.2582
  189DOPC  C21123311   2.779   1.020   5.015 -0.1630 -1.0189 -0.0712
  189DOPC  H11R23312   2.748   1.076   5.106 -0.1570 -1.6821  0.3442
  189DOPC  H11S23313   2.834   1.096   4.956 -1.8243  0.2483 -0.0342
  189DOPC  C21223314   2.886   0.918   5.052  0.0104  0.0797 -0.3025
  189DOPC  H12R23315   2.912   0.868   4.957 -0.4508  2.0338 -1.5256
  189DOPC  H12S23316   2.839   0.842   5.119 -0.3144 -1.1633 -1.8831
  189DOPC  C21323317   3.002   0.994   5.116  0.1712  0.2261 -0.2452
  189DOPC  H13R23318   2.960   1.037   5.210 -1.7534 -0.3468 -0.8007
  189DOPC  H13S23319   3.045   1.080   5.060  0.3945 -0.4724 -1.1524
  189DOPC  C21423320   3.126   0.903   5.151  0.2676  0.0747  0.2584
  189DOPC  H14R23321   3.153   0.846   5.060 -1.8229 -3.3345  1.5978
  189DOPC  H14S23322   3.097   0.831   5.230 -0.0817 -1.2980 -1.0766
  189DOPC  C21523323   3.250   0.979   5.201  0.2965 -0.8406 -0.4624
  189DOPC  H15R23324   3.274   1.064   5.133  1.4621  0.6202  1.6836
  189DOPC  H15S23325   3.340   0.915   5.211  0.5374 -0.7812 -1.9547
  189DOPC  C21623326   3.235   1.041   5.341  0.9397  0.2414 -0.0001
  189DOPC  H16R23327   3.212   0.952   5.402  1.2767  0.9456  1.1865
  189DOPC  H16S23328   3.142   1.103   5.341  0.6190 -0.1522  2.0700
  189DOPC  C21723329   3.356   1.115   5.397 -0.0613 -0.4054  0.8386
  189DOPC  H17R23330   3.376   1.200   5.328 -1.6922  0.2554  1.1153
  189DOPC  H17S23331   3.436   1.039   5.402  1.2496  0.8677 -0.1001
  189DOPC  C21823332   3.332   1.163   5.541  0.0004 -0.1026 -0.3237
  189DOPC  H18R23333   3.410   1.237   5.571 -0.8827  1.2424 -1.2397
  189DOPC  H18S23334   3.319   1.077   5.610  0.3371 -0.7007 -0.9972
  189DOPC  H18T23335   3.235   1.217   5.548  0.7506  1.2261  0.4618
  189DOPC   C3323336   2.196   0.902   4.076 -0.6109  0.2035 -0.1598
  189DOPC   H3X23337   2.112   0.830   4.084  1.2018 -1.8088  2.4053
  189DOPC   H3Y23338   2.169   0.986   4.143 -1.3251  1.6253 -2.1081
  189DOPC   C3423339   2.312   0.818   4.135 -0.6550  0.4549 -0.5675
  189DOPC   H4X23340   2.408   0.874   4.122 -0.4561  0.0804 -0.7232
  189DOPC   H4Y23341   2.320   0.720   4.085 -3.5114 -0.7859  1.1584
  189DOPC   C3523342   2.291   0.789   4.277 -0.2804 -0.1172  0.0346
  189DOPC   H5X23343   2.195   0.737   4.295 -0.2070  0.1054  1.1399
  189DOPC   H5Y23344   2.301   0.879   4.342 -0.0215 -0.0655 -0.0747
  189DOPC   C3623345   2.403   0.703   4.330 -0.2161 -0.0088 -0.1256
  189DOPC   H6X23346   2.397   0.604   4.280 -0.7003  0.0379 -0.1729
  189DOPC   H6Y23347   2.502   0.747   4.308  0.4003 -0.9162  0.7361
  189DOPC   C3723348   2.389   0.680   4.484  0.6592 -0.0242  0.5303
  189DOPC   H7X23349   2.353   0.774   4.532 -0.1898 -1.4372  2.8238
  189DOPC   H7Y23350   2.306   0.607   4.498  0.7110 -0.6045 -1.8397
  189DOPC   C3823351   2.519   0.650   4.552 -0.1358 -0.0448  0.1097
  189DOPC   H8X23352   2.489   0.646   4.659 -0.4630  1.2773  0.0819
  189DOPC   H8Y23353   2.598   0.727   4.542  2.4684 -2.5754 -0.3143
  189DOPC   C3923354   2.566   0.511   4.506  0.2570 -0.1726 -0.1493
  189DOPC   H9X23355   2.584   0.503   4.398  1.3262 -2.0596  0.1304
  189DOPC  C31023356   2.582   0.401   4.584 -1.0560  0.7136  0.0808
  189DOPC  H10X23357   2.608   0.303   4.541 -1.5388  1.0806 -1.0825
  189DOPC  C31123358   2.553   0.390   4.731  0.1077 -0.7397 -0.3136
  189DOPC  H11X23359   2.442   0.384   4.740  0.1060 -2.0381 -0.8791
  189DOPC  H11Y23360   2.576   0.482   4.789 -0.8658 -1.4478  1.2816
  189DOPC  C31223361   2.630   0.273   4.804 -0.2901  0.4565  0.6652
  189DOPC  H12X23362   2.595   0.169   4.789 -0.0497  0.2533  1.4608
  189DOPC  H12Y23363   2.610   0.276   4.914 -0.3730  0.7266  0.6435
  189DOPC  C31323364   2.785   0.277   4.780 -0.0112  0.2848  0.1144
  189DOPC  H13X23365   2.812   0.248   4.677 -1.1214  0.9676 -0.3859
  189DOPC  H13Y23366   2.813   0.384   4.783  0.9889  0.0092  1.4482
  189DOPC  C31423367   2.869   0.206   4.884  0.3880 -0.2152  0.2401
  189DOPC  H14X23368   2.852   0.239   4.989  0.2053  0.1023  0.1136
  189DOPC  H14Y23369   2.860   0.096   4.875  3.9776 -0.8179  2.1915
  189DOPC  C31523370   3.016   0.227   4.853 -0.1157 -0.1807  0.1147
  189DOPC  H15X23371   3.030   0.336   4.834  1.4176 -0.8192 -3.1649
  189DOPC  H15Y23372   3.034   0.179   4.755 -1.9657 -1.2096  0.2529
  189DOPC  C31623373   3.098   0.168   4.975 -0.7549 -0.0255 -0.3062
  189DOPC  H16X23374   3.105   0.236   5.062 -0.7596 -0.1106 -0.2400
  189DOPC  H16Y23375   3.063   0.071   5.018 -1.3246 -1.0777 -2.9365
  189DOPC  C31723376   3.246   0.157   4.936  0.1116 -1.0075 -0.3881
  189DOPC  H17X23377   3.248   0.073   4.863 -0.4406 -1.8095  0.5128
  189DOPC  H17Y23378   3.274   0.257   4.895 -0.3594 -0.7021  0.0172
  189DOPC  C31823379   3.331   0.121   5.054 -0.4702 -0.1892  0.3117
  189DOPC  H18X23380   3.277   0.056   5.127  1.6303  0.4126  2.5546
  189DOPC  H18Y23381   3.420   0.063   5.020 -0.9955  0.2296 -1.9544
  189DOPC  H18Z23382   3.362   0.217   5.099  1.4496 -0.6033 -0.0435
  190DOPC     N23383   3.015   0.328   2.619 -0.2676 -0.6212 -0.4521
  190DOPC   C1223384   2.911   0.261   2.710 -1.2650  0.1793  0.7038
  190DOPC  H12A23385   2.857   0.195   2.644  1.1358  0.3222 -1.5490
  190DOPC  H12B23386   2.841   0.339   2.734 -0.7326  0.9663 -0.2100
  190DOPC   C1323387   2.935   0.424   2.531  0.2174 -0.3188  0.4442
  190DOPC  H13A23388   2.853   0.366   2.491  2.3817 -2.5231 -1.1074
  190DOPC  H13B23389   2.893   0.508   2.585 -2.1403 -0.9118 -0.3529
  190DOPC  H13C23390   2.987   0.452   2.441 -1.7497 -1.9491 -1.3056
  190DOPC   C1423391   3.070   0.230   2.532  0.0461 -0.2162  0.1552
  190DOPC  H14A23392   3.145   0.172   2.584  0.9525  0.1197 -0.7547
  190DOPC  H14B23393   2.997   0.166   2.485  1.0247 -0.7934 -0.6334
  190DOPC  H14C23394   3.127   0.272   2.450 -1.8731 -0.5582 -1.4149
  190DOPC   C1523395   3.123   0.398   2.693 -0.9045  0.1076 -0.1336
  190DOPC  H15A23396   3.190   0.456   2.631 -1.4810  1.4894  0.4930
  190DOPC  H15B23397   3.174   0.330   2.759  1.1177 -1.4851 -3.0929
  190DOPC  H15C23398   3.063   0.465   2.754 -0.8158 -1.3767  1.6391
  190DOPC   C1123399   2.958   0.167   2.828 -0.3962  0.0160  0.3973
  190DOPC  H11A23400   3.018   0.223   2.904  0.5074 -0.0913 -0.2240
  190DOPC  H11B23401   2.865   0.134   2.879 -0.2719  0.7687  1.1345
  190DOPC     P23402   3.181   0.035   2.822 -0.7610 -0.0166  0.0669
  190DOPC   O1323403   3.245   0.156   2.865 -0.3791 -0.7403  0.0763
  190DOPC   O1423404   3.251  -0.034   2.712 -0.5858  0.2015 -0.2363
  190DOPC   O1223405   3.031   0.054   2.783 -0.6041 -0.2315  0.2663
  190DOPC   O1123406   3.178  -0.069   2.935 -0.1380  0.0172  0.5217
  190DOPC    C123407   3.079  -0.166   2.951 -0.5010  0.0710 -0.4435
  190DOPC    HA23408   3.128  -0.258   2.992  0.0737  0.8026  0.5467
  190DOPC    HB23409   3.015  -0.190   2.863 -0.4648 -0.1044 -0.4236
  190DOPC    C223410   2.988  -0.136   3.073  0.2987  0.4712 -0.5320
  190DOPC    HS23411   2.925  -0.048   3.050 -0.7330 -0.1299 -0.0981
  190DOPC   O2123412   3.074  -0.112   3.182 -0.2335 -0.5301 -0.3724
  190DOPC   C2123413   3.112   0.013   3.202 -0.1920 -0.3716 -1.0103
  190DOPC   O2223414   3.068   0.113   3.148 -0.3551  0.7850  0.2183
  190DOPC   C2223415   3.225   0.018   3.303  0.2477 -0.0287  0.5065
  190DOPC   H2R23416   3.318   0.045   3.247  0.4728  1.0452  1.3791
  190DOPC   H2S23417   3.252  -0.081   3.345  1.0658 -0.3303 -0.6508
  190DOPC    C323418   2.894  -0.254   3.120  0.1986 -0.2096  0.1667
  190DOPC    HX23419   2.952  -0.348   3.135  1.7655  0.6136 -0.4649
  190DOPC    HY23420   2.829  -0.259   3.030  0.6712 -1.9934 -0.1142
  190DOPC   O3123421   2.811  -0.214   3.231  0.3179 -0.0452 -0.2975
  190DOPC   C3123422   2.849  -0.266   3.347 -0.8402  0.3813  0.0423
  190DOPC   O3223423   2.948  -0.335   3.369  0.6490  0.3015  0.0082
  190DOPC   C3223424   2.742  -0.224   3.452 -0.3026  0.3070  0.3265
  190DOPC   H2X23425   2.772  -0.122   3.485 -0.3393 -0.2507  2.2008
  190DOPC   H2Y23426   2.649  -0.211   3.392  0.1843  0.7568 -0.3397
  190DOPC   C2323427   3.196   0.119   3.413  0.6158 -0.4837 -0.4207
  190DOPC   H3R23428   3.140   0.202   3.365  1.9726  0.5309 -0.3164
  190DOPC   H3S23429   3.293   0.157   3.453  0.7046 -1.2428  0.1133
  190DOPC   C2423430   3.113   0.059   3.528  0.0562 -0.1039 -0.2063
  190DOPC   H4R23431   3.004   0.051   3.508 -0.1654 -0.7318  1.1648
  190DOPC   H4S23432   3.133   0.139   3.603 -1.1644  1.3630 -1.3986
  190DOPC   C2523433   3.162  -0.075   3.581  0.3541 -0.0818 -0.3815
  190DOPC   H5R23434   3.272  -0.072   3.598  0.7137  2.2081 -2.4791
  190DOPC   H5S23435   3.134  -0.157   3.511  1.6239 -0.8847  0.0317
  190DOPC   C2623436   3.095  -0.119   3.717 -0.0761  0.2532  0.4229
  190DOPC   H6R23437   2.985  -0.109   3.709 -0.0379  0.5203  0.2197
  190DOPC   H6S23438   3.122  -0.054   3.803  0.8044  2.5847 -1.5260
  190DOPC   C2723439   3.124  -0.265   3.756  0.5815 -0.0211 -0.3925
  190DOPC   H7R23440   3.232  -0.279   3.738  0.7555  1.3459 -0.4993
  190DOPC   H7S23441   3.074  -0.336   3.686  3.0612 -1.3901 -0.8835
  190DOPC   C2823442   3.090  -0.309   3.899 -0.0660 -0.3463 -0.5523
  190DOPC   H8R23443   3.150  -0.242   3.964 -1.3277  0.3834 -0.1122
  190DOPC   H8S23444   3.133  -0.412   3.905 -0.3130 -0.3695  1.7164
  190DOPC   C2923445   2.947  -0.308   3.937 -0.0831  0.1184 -0.5393
  190DOPC   H9R23446   2.909  -0.207   3.957  2.8780  1.7286 -2.3503
  190DOPC  C21023447   2.864  -0.418   3.941  0.0840 -1.3369 -0.0047
  190DOPC  H10R23448   2.759  -0.404   3.972  0.4449 -0.8826  1.0741
  190DOPC  C21123449   2.899  -0.559   3.911 -0.7456  0.3724  1.3679
  190DOPC  H11R23450   2.849  -0.612   3.994 -1.3144 -0.5204  0.4755
  190DOPC  H11S23451   3.007  -0.568   3.934  0.1571  1.5014 -1.7937
  190DOPC  C21223452   2.859  -0.616   3.777 -0.2149  0.4013 -0.8753
  190DOPC  H12R23453   2.924  -0.696   3.735 -2.1913 -1.1909 -1.0062
  190DOPC  H12S23454   2.872  -0.539   3.698  0.8069 -0.0470 -1.1596
  190DOPC  C21323455   2.714  -0.675   3.778 -0.5772  1.0894 -0.3511
  190DOPC  H13R23456   2.648  -0.604   3.832  3.6118  3.4016  2.2227
  190DOPC  H13S23457   2.725  -0.767   3.839  0.2534  1.9919  0.9116
  190DOPC  C21423458   2.651  -0.698   3.640 -0.0178  0.2784  0.2878
  190DOPC  H14R23459   2.725  -0.766   3.591 -2.2324 -1.8985 -0.2202
  190DOPC  H14S23460   2.652  -0.606   3.578  1.6785  0.3849  0.4119
  190DOPC  C21523461   2.518  -0.766   3.630  0.5520  1.0228 -0.4650
  190DOPC  H15R23462   2.483  -0.769   3.525  0.3402  1.0783 -0.3958
  190DOPC  H15S23463   2.439  -0.715   3.689  1.3489  0.4379  1.1785
  190DOPC  C21623464   2.524  -0.911   3.683 -0.0048 -0.4589  0.4579
  190DOPC  H16R23465   2.567  -0.905   3.785  2.6147 -0.7661 -0.5444
  190DOPC  H16S23466   2.601  -0.965   3.624  0.9901  2.2563 -0.9510
  190DOPC  C21723467   2.392  -0.991   3.672 -0.7944  0.3327 -0.4262
  190DOPC  H17R23468   2.313  -0.936   3.729 -1.1671 -0.8787  0.2682
  190DOPC  H17S23469   2.403  -1.099   3.695 -2.9776  0.0717 -0.3751
  190DOPC  C21823470   2.335  -0.989   3.531 -0.1814  0.1370  0.0688
  190DOPC  H18R23471   2.294  -0.889   3.505 -0.9506 -0.7189 -2.2650
  190DOPC  H18S23472   2.247  -1.055   3.514  0.1129 -0.0616 -0.7242
  190DOPC  H18T23473   2.411  -1.034   3.464  0.2640 -0.0915  0.7160
  190DOPC   C3323474   2.726  -0.321   3.571  0.2586  0.3928  0.2401
  190DOPC   H3X23475   2.819  -0.334   3.631 -0.5256 -0.9617  1.2300
  190DOPC   H3Y23476   2.710  -0.424   3.534  0.9500  0.6930 -0.9370
  190DOPC   C3423477   2.600  -0.270   3.641  0.2750 -0.2380 -0.0135
  190DOPC   H4X23478   2.543  -0.342   3.703 -2.3552  2.2695  0.6872
  190DOPC   H4Y23479   2.536  -0.234   3.559  1.7354 -2.0702 -2.0742
  190DOPC   C3523480   2.640  -0.151   3.735 -0.4630  0.6014  0.4114
  190DOPC   H5X23481   2.726  -0.096   3.692  0.2359 -0.5006  0.3536
  190DOPC   H5Y23482   2.692  -0.202   3.818 -0.5205 -0.9297 -0.4640
  190DOPC   C3623483   2.531  -0.055   3.770  0.4224 -0.0946  0.4793
  190DOPC   H6X23484   2.570   0.010   3.852  0.7797 -0.1766  0.3777
  190DOPC   H6Y23485   2.503   0.011   3.686 -2.3860 -0.1584  1.2577
  190DOPC   C3723486   2.407  -0.122   3.834 -0.3171 -0.5541 -0.5371
  190DOPC   H7X23487   2.361  -0.182   3.752 -1.1186 -1.6169  0.6689
  190DOPC   H7Y23488   2.442  -0.191   3.913 -1.0185  0.0276  0.2928
  190DOPC   C3823489   2.305  -0.030   3.909  0.7698  1.2925 -0.3838
  190DOPC   H8X23490   2.366   0.025   3.984  2.8882 -1.8635  0.4139
  190DOPC   H8Y23491   2.235  -0.103   3.956  1.3067  1.9421  1.5335
  190DOPC   C3923492   2.236   0.063   3.814  0.2849 -0.2126 -0.3105
  190DOPC   H9X23493   2.312   0.114   3.752  0.0191 -0.0025 -0.4647
  190DOPC  C31023494   2.108   0.094   3.808 -0.1502  0.1839 -0.8492
  190DOPC  H10X23495   2.069   0.159   3.729 -2.9632  1.5382  1.4460
  190DOPC  C31123496   1.993   0.036   3.891 -0.6099  0.6573 -0.1282
  190DOPC  H11X23497   2.029  -0.010   3.986  1.4799  1.4580 -0.4793
  190DOPC  H11Y23498   1.936  -0.042   3.837  1.2758  0.6230 -2.2097
  190DOPC  C31223499   1.899   0.150   3.924 -1.0357 -0.1486 -0.3310
  190DOPC  H12X23500   1.858   0.185   3.827  1.4848 -1.8482 -2.1426
  190DOPC  H12Y23501   1.973   0.218   3.970 -1.2768 -0.4346  0.4975
  190DOPC  C31323502   1.781   0.111   4.018 -0.8553  0.0978  0.1098
  190DOPC  H13X23503   1.818   0.102   4.123 -1.0483  0.2757  0.1930
  190DOPC  H13Y23504   1.705   0.191   4.024  0.6147  1.6388 -1.0212
  190DOPC  C31423505   1.692  -0.011   3.977  0.2405 -0.0909 -0.4904
  190DOPC  H14X23506   1.745  -0.108   3.973 -3.1913 -2.1371  0.2414
  190DOPC  H14Y23507   1.612  -0.028   4.051  0.8077  2.6196  0.8587
  190DOPC  C31523508   1.611   0.025   3.852 -0.0094  0.1610 -0.4471
  190DOPC  H15X23509   1.557  -0.068   3.822 -1.6953  1.0560 -0.3258
  190DOPC  H15Y23510   1.678   0.052   3.768 -3.0924  3.5002 -2.1388
  190DOPC  C31623511   1.510   0.143   3.880  0.1264 -0.1210  0.3061
  190DOPC  H16X23512   1.469   0.137   3.983  0.6031 -2.5947  0.4053
  190DOPC  H16Y23513   1.574   0.235   3.881  0.5317 -0.3877 -0.3599
  190DOPC  C31723514   1.396   0.161   3.782  0.3577 -0.3846 -0.2610
  190DOPC  H17X23515   1.438   0.185   3.683 -0.6706 -0.8994 -0.8431
  190DOPC  H17Y23516   1.350   0.061   3.771 -1.0661  0.3811 -1.6196
  190DOPC  C31823517   1.284   0.265   3.832 -0.3160 -0.6037 -0.4463
  190DOPC  H18X23518   1.320   0.365   3.866  0.0189 -1.3196  1.4311
  190DOPC  H18Y23519   1.214   0.282   3.748 -0.7757  1.3893  0.2852
  190DOPC  H18Z23520   1.227   0.223   3.918 -1.3181  1.0654 -0.2608
  191DOPC     N23521   4.570   1.880   3.491  0.7089  0.3836 -0.0402
  191DOPC   C1223522   4.461   1.921   3.586  0.0722 -0.0536  0.0880
  191DOPC  H12A23523   4.394   1.836   3.590 -1.0920  0.6960 -1.9979
  191DOPC  H12B23524   4.408   2.005   3.543  0.4297  0.0407 -0.1706
  191DOPC   C1323525   4.486   1.870   3.364 -0.6742 -0.3779  0.3109
  191DOPC  H13A23526   4.406   1.800   3.380  1.6331 -2.8207  1.9537
  191DOPC  H13B23527   4.453   1.966   3.327 -3.2391  0.3196  3.8528
  191DOPC  H13C23528   4.552   1.829   3.289  1.6614  0.7339  1.6330
  191DOPC   C1423529   4.639   1.746   3.518  0.5064 -0.2337  0.3781
  191DOPC  H14A23530   4.708   1.728   3.437 -1.8675  2.0960 -2.3950
  191DOPC  H14B23531   4.688   1.753   3.614 -2.0639 -1.6462  1.8932
  191DOPC  H14C23532   4.566   1.669   3.500 -0.7570  1.6591 -3.8511
  191DOPC   C1523533   4.675   1.984   3.469 -0.4762 -0.3352  0.2901
  191DOPC  H15A23534   4.739   1.950   3.389 -1.4743 -0.8842 -0.2845
  191DOPC  H15B23535   4.733   2.006   3.558 -0.4399  1.7470 -0.1886
  191DOPC  H15C23536   4.628   2.078   3.444  0.4754  0.1437  0.2231
  191DOPC   C1123537   4.503   1.948   3.736  0.1260 -0.4898 -0.0254
  191DOPC  H11A23538   4.591   2.015   3.729  2.3542 -3.3236 -1.3822
  191DOPC  H11B23539   4.431   2.006   3.797  1.3862  1.9599 -0.7252
  191DOPC     P23540   4.413   1.736   3.853  0.0544  0.3154  0.1411
  191DOPC   O1323541   4.478   1.619   3.916  0.9819 -0.8394 -0.8540
  191DOPC   O1423542   4.326   1.704   3.742  0.6498  0.2205 -1.0186
  191DOPC   O1223543   4.539   1.824   3.799 -0.5864 -0.8088 -0.2665
  191DOPC   O1123544   4.346   1.825   3.960 -0.5777 -0.2297 -0.3229
  191DOPC    C123545   4.402   1.830   4.096 -0.5900 -0.2199  0.0795
  191DOPC    HA23546   4.384   1.932   4.137  2.2629  0.6264 -0.5338
  191DOPC    HB23547   4.512   1.815   4.105 -0.3982  1.9696  3.3604
  191DOPC    C223548   4.323   1.726   4.190 -0.2232  0.0292  0.4367
  191DOPC    HS23549   4.340   1.622   4.155 -1.6719  0.2606 -1.0496
  191DOPC   O2123550   4.181   1.764   4.205  0.5707 -0.1485  0.0986
  191DOPC   C2123551   4.094   1.688   4.141  0.2543  0.6200  0.7186
  191DOPC   O2223552   4.111   1.581   4.084 -0.1907  0.2774  0.4547
  191DOPC   C2223553   3.956   1.760   4.150  0.3363 -0.3441 -0.1275
  191DOPC   H2R23554   3.869   1.693   4.170  0.2450  0.2125  1.5682
  191DOPC   H2S23555   3.940   1.821   4.059 -0.2674  0.3796  0.4462
  191DOPC    C323556   4.381   1.745   4.331  0.1163 -0.0542 -0.0546
  191DOPC    HX23557   4.489   1.717   4.332 -0.0437 -0.7453  1.4770
  191DOPC    HY23558   4.346   1.663   4.398  2.5810  0.1324  1.5818
  191DOPC   O3123559   4.363   1.873   4.384 -0.1702  0.1499 -0.0263
  191DOPC   C3123560   4.256   1.884   4.467  0.0456  0.0102 -0.3414
  191DOPC   O3223561   4.182   1.793   4.498  0.1803  0.0424 -0.3827
  191DOPC   C3223562   4.215   2.026   4.509  0.5313 -0.1108  0.4358
  191DOPC   H2X23563   4.311   2.082   4.507  1.0772 -1.0322 -0.2568
  191DOPC   H2Y23564   4.150   2.069   4.430 -0.6468  0.0502  1.4696
  191DOPC   C2323565   3.949   1.847   4.275  0.8775 -0.3637  0.4109
  191DOPC   H3R23566   4.023   1.929   4.268 -1.2305  1.4975 -1.5311
  191DOPC   H3S23567   3.968   1.772   4.355  2.4768 -3.0434 -2.2591
  191DOPC   C2423568   3.811   1.911   4.289  0.0399  0.5704  0.4690
  191DOPC   H4R23569   3.731   1.837   4.267  0.9592 -0.2103 -0.3613
  191DOPC   H4S23570   3.800   2.000   4.223  1.4784  0.5947  0.2386
  191DOPC   C2523571   3.773   1.962   4.435  0.1988  0.7378  0.3513
  191DOPC   H5R23572   3.833   2.055   4.448  1.6205  0.1056 -1.2655
  191DOPC   H5S23573   3.803   1.881   4.505 -0.8747  0.4842  0.5303
  191DOPC   C2623574   3.623   1.976   4.456 -0.3563  0.2285 -0.2063
  191DOPC   H6R23575   3.576   1.875   4.454  0.4512 -0.1570 -2.4990
  191DOPC   H6S23576   3.587   2.048   4.379  0.2104  0.7500  0.0172
  191DOPC   C2723577   3.579   2.044   4.587 -0.2387 -0.5656  0.2275
  191DOPC   H7R23578   3.470   2.060   4.583  0.0158  1.2090 -0.6059
  191DOPC   H7S23579   3.620   2.148   4.588 -1.2629 -0.1156  2.5158
  191DOPC   C2823580   3.606   1.970   4.718  0.3989 -0.4594  0.1189
  191DOPC   H8R23581   3.618   1.863   4.690  1.8478 -0.3558  0.2875
  191DOPC   H8S23582   3.509   1.969   4.773 -0.2600 -0.8255 -1.0019
  191DOPC   C2923583   3.726   2.016   4.792 -0.0544 -0.1012 -0.0656
  191DOPC   H9R23584   3.818   1.998   4.734  0.7034 -0.8102  1.2875
  191DOPC  C21023585   3.733   2.066   4.918  0.1979 -0.3366 -0.2748
  191DOPC  H10R23586   3.828   2.094   4.967  0.7303 -2.5974  0.1145
  191DOPC  C21123587   3.622   2.067   5.017  0.6177 -0.1371 -0.0870
  191DOPC  H11R23588   3.612   1.961   5.049 -0.6703  0.6547  2.3569
  191DOPC  H11S23589   3.525   2.090   4.968  0.6612  2.7396  0.9696
  191DOPC  C21223590   3.619   2.142   5.147 -0.3528  0.5229 -0.3390
  191DOPC  H12R23591   3.523   2.122   5.200 -1.3107  1.0701 -1.8190
  191DOPC  H12S23592   3.623   2.250   5.125  0.0683  0.7666  0.8625
  191DOPC  C21323593   3.730   2.098   5.249  0.3460  0.4028 -0.5119
  191DOPC  H13R23594   3.825   2.156   5.245  1.2868 -1.1281 -1.7865
  191DOPC  H13S23595   3.748   1.991   5.223 -0.3121 -0.0033  0.6490
  191DOPC  C21423596   3.689   2.108   5.403 -0.6386 -0.3018  0.0367
  191DOPC  H14R23597   3.624   2.197   5.407  1.0218  1.0590 -1.4718
  191DOPC  H14S23598   3.791   2.126   5.444  0.1569 -1.0725 -1.5432
  191DOPC  C21523599   3.619   1.979   5.458  0.9320 -0.4248  0.0415
  191DOPC  H15R23600   3.698   1.902   5.450  0.7849 -0.4942 -0.8353
  191DOPC  H15S23601   3.541   1.959   5.382  0.9711  0.0788 -0.1367
  191DOPC  C21623602   3.563   1.999   5.601  0.0872  0.5912 -0.0163
  191DOPC  H16R23603   3.537   1.902   5.649  0.0533 -0.3303 -1.8080
  191DOPC  H16S23604   3.472   2.064   5.593  1.0363  1.9477 -0.1161
  191DOPC  C21723605   3.655   2.060   5.702 -0.4750  0.0692 -0.1334
  191DOPC  H17R23606   3.606   2.069   5.801  0.6048 -0.6464  0.4906
  191DOPC  H17S23607   3.677   2.165   5.673  0.1176 -0.2990 -1.0841
  191DOPC  C21823608   3.786   1.983   5.720  0.5780 -0.4269  0.5476
  191DOPC  H18R23609   3.845   1.977   5.626  0.3989 -1.1280  0.4693
  191DOPC  H18S23610   3.763   1.885   5.767 -0.3676  1.3819  4.2393
  191DOPC  H18T23611   3.846   2.024   5.804  0.1098 -0.4430  0.8943
  191DOPC   C3323612   4.143   2.042   4.647  0.3394  0.3213 -0.4702
  191DOPC   H3X23613   4.068   1.960   4.653 -2.1027  2.5419  1.4980
  191DOPC   H3Y23614   4.094   2.141   4.646 -0.0063  0.1927  1.0272
  191DOPC   C3423615   4.246   2.020   4.756  0.3725 -0.5973 -0.4272
  191DOPC   H4X23616   4.337   2.084   4.744 -0.2703  0.7959  1.6496
  191DOPC   H4Y23617   4.300   1.923   4.743  2.5078  0.7747 -2.7925
  191DOPC   C3523618   4.198   2.030   4.903  0.0036  0.1867  0.0128
  191DOPC   H5X23619   4.156   2.128   4.935 -1.5778 -0.6731  0.6423
  191DOPC   H5Y23620   4.285   1.991   4.960 -2.7385 -1.5519  3.3548
  191DOPC   C3623621   4.093   1.927   4.952  0.4665  0.1189 -0.6286
  191DOPC   H6X23622   3.993   1.964   4.920 -0.5666 -1.8434  0.2083
  191DOPC   H6Y23623   4.119   1.830   4.905  1.7853  0.1196  0.0521
  191DOPC   C3723624   4.084   1.908   5.104 -0.1062 -0.2863 -0.3609
  191DOPC   H7X23625   4.081   2.013   5.141 -1.0172  0.2691 -1.8896
  191DOPC   H7Y23626   3.984   1.868   5.133 -0.1966 -1.0072 -1.5840
  191DOPC   C3823627   4.208   1.839   5.177 -0.5110  0.4685 -0.3867
  191DOPC   H8X23628   4.263   1.925   5.218 -0.0759  1.2061 -2.3745
  191DOPC   H8Y23629   4.269   1.804   5.091 -1.1941 -1.3087 -0.1989
  191DOPC   C3923630   4.163   1.724   5.265  0.2951  0.2523 -0.5952
  191DOPC   H9X23631   4.117   1.644   5.205 -0.2168  0.0115  0.1066
  191DOPC  C31023632   4.152   1.725   5.399  0.2967  0.6751  0.3343
  191DOPC  H10X23633   4.114   1.634   5.448  0.3218 -0.4977 -1.7077
  191DOPC  C31123634   4.179   1.845   5.494 -0.5473 -0.0093 -0.3926
  191DOPC  H11X23635   4.088   1.883   5.545 -0.7135  0.1459 -0.7966
  191DOPC  H11Y23636   4.212   1.935   5.437 -2.0700  1.8821  1.5116
  191DOPC  C31223637   4.299   1.808   5.589  0.4967  0.5817 -0.3751
  191DOPC  H12X23638   4.348   1.895   5.637  0.2634  0.8258 -0.5712
  191DOPC  H12Y23639   4.384   1.754   5.543  0.7953 -0.3869  1.2219
  191DOPC  C31323640   4.254   1.722   5.709 -0.2516 -0.2599 -0.2730
  191DOPC  H13X23641   4.186   1.773   5.780 -0.1779 -1.2200  0.5018
  191DOPC  H13Y23642   4.203   1.635   5.663 -1.7197  0.6920 -0.5195
  191DOPC  C31423643   4.378   1.665   5.795 -0.3441 -0.5152  0.7517
  191DOPC  H14X23644   4.459   1.613   5.738  0.1251 -2.1266  2.7579
  191DOPC  H14Y23645   4.424   1.750   5.849 -0.7176 -1.6457  2.9433
  191DOPC  C31523646   4.338   1.557   5.890 -0.1252  0.6323 -0.0989
  191DOPC  H15X23647   4.282   1.480   5.833  0.8250 -2.7756  3.1434
  191DOPC  H15Y23648   4.257   1.599   5.952 -0.8356 -0.9169  0.0762
  191DOPC  C31623649   4.448   1.502   5.980 -0.5208 -0.4591 -0.0997
  191DOPC  H16X23650   4.510   1.589   6.009 -1.1149  0.3647 -1.2481
  191DOPC  H16Y23651   4.397   1.463   6.071 -2.0416 -0.4018 -0.8985
  191DOPC  C31723652   4.520   1.383   5.914  0.1003  0.2602  0.0601
  191DOPC  H17X23653   4.451   1.296   5.919 -0.3052  0.6257  1.0782
  191DOPC  H17Y23654   4.536   1.400   5.806  1.9167 -0.2248  0.2205
  191DOPC  C31823655   4.649   1.361   5.981 -0.1472  0.3609  0.3221
  191DOPC  H18X23656   4.647   1.348   6.091  0.9637 -0.0878  0.3038
  191DOPC  H18Y23657   4.716   1.286   5.933 -1.7048 -0.3025 -0.8868
  191DOPC  H18Z23658   4.698   1.461   5.978  0.9673 -0.1679  0.2936
  192DOPC     N23659   0.559   5.491   2.381  1.1853 -0.1569 -0.7911
  192DOPC   C1223660   0.633   5.395   2.306 -1.2990 -0.4400  0.4301
  192DOPC  H12A23661   0.734   5.387   2.344 -1.4627  1.2921  1.3439
  192DOPC  H12B23662   0.662   5.433   2.209 -0.4583 -0.1401  0.7875
  192DOPC   C1323663   0.424   5.512   2.325 -0.4941  0.7252  0.0227
  192DOPC  H13A23664   0.445   5.536   2.222 -0.2884  1.3946  0.2154
  192DOPC  H13B23665   0.360   5.425   2.327 -0.0652  0.3482 -1.4916
  192DOPC  H13C23666   0.366   5.587   2.378 -0.7409 -0.3602  1.3646
  192DOPC   C1423667   0.631   5.624   2.384 -0.0839 -0.1144 -0.7923
  192DOPC  H14A23668   0.598   5.686   2.466 -0.1963 -2.6417  1.2008
  192DOPC  H14B23669   0.733   5.609   2.417 -0.2580  1.8040  0.8739
  192DOPC  H14C23670   0.645   5.666   2.286  1.2336  1.3056 -0.0474
  192DOPC   C1523671   0.542   5.455   2.525  0.1469  0.8299  0.2422
  192DOPC  H15A23672   0.514   5.352   2.542  1.6908  0.3675  0.2028
  192DOPC  H15B23673   0.477   5.525   2.574  3.0319  3.3354  0.8077
  192DOPC  H15C23674   0.636   5.466   2.578 -0.7485  2.6489  1.5315
  192DOPC   C1123675   0.582   5.245   2.304 -0.2749 -0.1133 -0.2332
  192DOPC  H11A23676   0.475   5.239   2.277 -0.4353  2.0346 -0.2696
  192DOPC  H11B23677   0.636   5.199   2.219  1.4491  1.8010 -0.2833
  192DOPC     P23678   0.742   5.113   2.456  0.1379  0.6747 -0.0250
  192DOPC   O1323679   0.845   5.216   2.477 -0.2492 -0.3615  0.0766
  192DOPC   O1423680   0.771   5.015   2.339 -0.1295 -0.1446 -0.4107
  192DOPC   O1223681   0.607   5.183   2.431 -0.2130 -0.6038 -0.2048
  192DOPC   O1123682   0.714   5.023   2.585  0.3711 -0.1868 -0.5785
  192DOPC    C123683   0.584   4.993   2.641  0.0669  0.3223  0.5485
  192DOPC    HA23684   0.585   4.899   2.699 -1.1866  0.9746  1.6570
  192DOPC    HB23685   0.515   4.988   2.554  1.1330 -0.1000 -0.2932
  192DOPC    C223686   0.525   5.100   2.732 -0.3796  0.2048  0.4947
  192DOPC    HS23687   0.525   5.199   2.682  1.6019  0.6055  1.1948
  192DOPC   O2123688   0.592   5.102   2.858  0.3033  1.1936  0.0326
  192DOPC   C2123689   0.588   5.213   2.918  0.2673 -0.2002  0.3560
  192DOPC   O2223690   0.564   5.325   2.867 -0.1818 -0.1735 -0.1005
  192DOPC   C2223691   0.650   5.182   3.051  0.4314 -0.7698 -1.1801
  192DOPC   H2R23692   0.753   5.152   3.023  0.1734 -1.4039 -1.4606
  192DOPC   H2S23693   0.579   5.110   3.098  0.7844 -0.9368 -0.8971
  192DOPC    C323694   0.378   5.064   2.762  0.4531 -0.0981 -0.7992
  192DOPC    HX23695   0.375   4.961   2.804 -2.4386 -0.1226 -0.8919
  192DOPC    HY23696   0.322   5.055   2.667 -2.0031  0.5116  0.5221
  192DOPC   O3123697   0.304   5.150   2.857  1.0033 -0.2595 -0.5318
  192DOPC   C3123698   0.267   5.267   2.808 -0.3371  0.5002 -0.1644
  192DOPC   O3223699   0.275   5.299   2.690 -0.9548  0.1831  0.2347
  192DOPC   C3223700   0.220   5.359   2.926 -0.1138 -0.5437  0.0187
  192DOPC   H2X23701   0.303   5.366   3.000 -0.9513 -0.4417  0.9694
  192DOPC   H2Y23702   0.212   5.461   2.882 -0.4904  0.0783  1.4792
  192DOPC   C2323703   0.660   5.307   3.144 -0.3268 -1.1966 -0.1412
  192DOPC   H3R23704   0.559   5.333   3.180  0.5102  0.7019  1.0176
  192DOPC   H3S23705   0.711   5.390   3.090 -0.5620 -0.8717  0.1373
  192DOPC   C2423706   0.760   5.275   3.261  0.5369 -0.1882  0.4504
  192DOPC   H4R23707   0.862   5.261   3.220  0.5985  1.4755 -0.0260
  192DOPC   H4S23708   0.735   5.182   3.318  2.2588 -0.6056  0.5692
  192DOPC   C2523709   0.768   5.394   3.360 -0.1186  0.2672  0.2879
  192DOPC   H5R23710   0.695   5.389   3.443 -2.7295 -2.5928 -1.9572
  192DOPC   H5S23711   0.743   5.484   3.299  2.6326  0.9895  0.0946
  192DOPC   C2623712   0.917   5.431   3.408  0.1062 -0.2300  0.3641
  192DOPC   H6R23713   0.958   5.348   3.469 -0.1324  0.1335  1.0263
  192DOPC   H6S23714   0.909   5.513   3.483 -0.9414 -0.1252  0.1519
  192DOPC   C2723715   1.019   5.487   3.306  0.7319  0.8779 -0.2762
  192DOPC   H7R23716   0.954   5.549   3.241  1.0986  0.1147 -1.4148
  192DOPC   H7S23717   1.050   5.411   3.230 -2.1181 -0.2534 -0.4378
  192DOPC   C2823718   1.136   5.564   3.368  0.7447  0.2504 -0.2958
  192DOPC   H8R23719   1.097   5.653   3.422 -0.2128  0.6559 -1.6138
  192DOPC   H8S23720   1.195   5.616   3.290  2.8883  1.1348  1.8182
  192DOPC   C2923721   1.209   5.465   3.455  0.0166  0.1580 -1.0176
  192DOPC   H9R23722   1.242   5.372   3.406  1.1672 -1.6292  2.7619
  192DOPC  C21023723   1.214   5.459   3.588  0.4819 -0.2988  0.2251
  192DOPC  H10R23724   1.263   5.375   3.640  2.2885  0.6536  0.1511
  192DOPC  C21123725   1.142   5.557   3.684 -0.0662  0.4562 -0.3131
  192DOPC  H11R23726   1.036   5.526   3.676 -0.0893  0.8718 -1.9111
  192DOPC  H11S23727   1.161   5.661   3.649  1.5060  0.9571  1.8215
  192DOPC  C21223728   1.176   5.545   3.834  0.3254 -0.2608 -0.3169
  192DOPC  H12R23729   1.278   5.577   3.865 -0.0341  0.4635  0.1699
  192DOPC  H12S23730   1.155   5.440   3.860 -1.0788  0.0505 -0.1071
  192DOPC  C21323731   1.076   5.631   3.917 -0.4952 -0.1169 -0.4726
  192DOPC  H13R23732   0.978   5.622   3.865 -0.9213 -1.1235  0.4587
  192DOPC  H13S23733   1.119   5.733   3.916 -1.6150  0.3879  0.1373
  192DOPC  C21423734   1.047   5.585   4.059 -0.5909  0.1036  0.8399
  192DOPC  H14R23735   1.022   5.477   4.066 -0.3784 -0.0095 -0.0279
  192DOPC  H14S23736   0.962   5.646   4.097  0.1146  1.5135  0.2183
  192DOPC  C21523737   1.169   5.616   4.151 -0.5691 -0.1241 -0.0715
  192DOPC  H15R23738   1.195   5.723   4.164  1.8454 -0.8824  2.7689
  192DOPC  H15S23739   1.257   5.551   4.129  1.2183  1.3978  2.0823
  192DOPC  C21623740   1.132   5.589   4.299  0.5083 -0.1514  0.2264
  192DOPC  H16R23741   1.110   5.480   4.290 -0.1030 -0.0794  0.7318
  192DOPC  H16S23742   1.033   5.632   4.323 -0.2206 -0.0303 -2.6556
  192DOPC  C21723743   1.244   5.617   4.407 -0.0194  0.3309  0.3551
  192DOPC  H17R23744   1.239   5.728   4.402 -2.8438  0.2541  0.2752
  192DOPC  H17S23745   1.342   5.590   4.362 -0.0693  0.8343 -0.0690
  192DOPC  C21823746   1.209   5.573   4.550  0.3453 -0.6768  0.2535
  192DOPC  H18R23747   1.115   5.623   4.583  0.9037 -0.7903  2.0899
  192DOPC  H18S23748   1.276   5.610   4.630  1.0531  2.0949 -1.4701
  192DOPC  H18T23749   1.189   5.464   4.556 -1.5490 -0.4517 -0.8242
  192DOPC   C3323750   0.092   5.302   3.000  0.0728  0.3054  0.0222
  192DOPC   H3X23751   0.125   5.208   3.048  2.5173  1.7340  1.3499
  192DOPC   H3Y23752   0.011   5.286   2.925 -1.8151 -1.2292  2.2572
  192DOPC   C3423753   0.038   5.388   3.113  0.0662 -0.6667 -0.3206
  192DOPC   H4X23754   0.114   5.458   3.153 -1.1916  0.3126  0.4201
  192DOPC   H4Y23755   0.016   5.317   3.196 -0.0004  0.3308  0.5200
  192DOPC   C3523756  -0.080   5.475   3.075  0.8303 -0.0859  0.7131
  192DOPC   H5X23757  -0.174   5.418   3.064 -1.3138  2.9289  2.0213
  192DOPC   H5Y23758  -0.047   5.525   2.982  1.4552  0.1954  1.0814
  192DOPC   C3623759  -0.114   5.576   3.188 -0.1606  0.0200 -0.2351
  192DOPC   H6X23760  -0.026   5.633   3.224  0.5183 -1.2061  0.1212
  192DOPC   H6Y23761  -0.189   5.644   3.143 -1.7959 -1.3428  0.3152
  192DOPC   C3723762  -0.182   5.506   3.303  0.3581  0.0967  0.0120
  192DOPC   H7X23763  -0.274   5.460   3.262  0.2892 -0.3311  0.6219
  192DOPC   H7Y23764  -0.120   5.421   3.340 -1.7254 -0.4069  2.7052
  192DOPC   C3823765  -0.212   5.603   3.418 -0.3976  0.6849 -0.0163
  192DOPC   H8X23766  -0.275   5.684   3.375 -0.7420  0.4621  0.0670
  192DOPC   H8Y23767  -0.117   5.637   3.465 -0.8920 -0.2308  1.7280
  192DOPC   C3923768  -0.302   5.551   3.523  0.0101  0.0529  0.0829
  192DOPC   H9X23769  -0.374   5.472   3.495 -0.0609 -0.7184  2.2196
  192DOPC  C31023770  -0.290   5.566   3.656 -0.2112  0.2385  0.4634
  192DOPC  H10X23771  -0.367   5.521   3.720  0.8995 -0.3252  1.4386
  192DOPC  C31123772  -0.192   5.662   3.731  0.6624 -0.6513  0.2496
  192DOPC  H11X23773  -0.181   5.753   3.669  0.6480 -0.6020  0.3190
  192DOPC  H11Y23774  -0.091   5.615   3.731  0.6358 -0.7090  0.3157
  192DOPC  C31223775  -0.252   5.691   3.870  0.0943 -0.2463  0.3140
  192DOPC  H12X23776  -0.283   5.598   3.922  1.5482 -2.0081 -1.7733
  192DOPC  H12Y23777  -0.345   5.750   3.856  0.0534 -0.6099 -1.1218
  192DOPC  C31323778  -0.153   5.775   3.953 -0.2339  0.2038  0.3521
  192DOPC  H13X23779  -0.051   5.748   3.917 -0.9904  0.8460 -2.4651
  192DOPC  H13Y23780  -0.152   5.882   3.923  1.7230  0.4170  0.9770
  192DOPC  C31423781  -0.177   5.769   4.101 -0.4906  0.1892 -0.0727
  192DOPC  H14X23782  -0.272   5.816   4.137 -1.2326 -2.5312  1.8739
  192DOPC  H14Y23783  -0.176   5.661   4.126 -0.0240  0.4288  0.9797
  192DOPC  C31523784  -0.055   5.837   4.176 -0.8642  0.0626  0.4344
  192DOPC  H15X23785  -0.069   5.946   4.168 -0.4338 -0.0306 -3.6482
  192DOPC  H15Y23786   0.044   5.808   4.134 -0.9253  0.6892 -0.1598
  192DOPC  C31623787  -0.045   5.795   4.323 -0.4551 -0.0725  0.4553
  192DOPC  H16X23788  -0.136   5.837   4.370 -0.4524 -1.0516  1.3865
  192DOPC  H16Y23789  -0.042   5.685   4.339  2.1587  0.0302  1.2646
  192DOPC  C31723790   0.082   5.864   4.390 -0.4227 -0.5702 -0.3943
  192DOPC  H17X23791   0.181   5.829   4.355  1.0524 -2.0852  4.4303
  192DOPC  H17Y23792   0.078   5.973   4.370 -2.6858 -0.8408 -1.6778
  192DOPC  C31823793   0.071   5.856   4.542  0.2604 -0.1085 -0.2476
  192DOPC  H18X23794   0.158   5.905   4.591  1.2223  0.4311 -2.3782
  192DOPC  H18Y23795  -0.029   5.889   4.577 -0.7703 -1.4117 -1.8384
  192DOPC  H18Z23796   0.088   5.752   4.576 -0.6540  0.2884  1.5732
  193DOPC     N23797   0.066   0.970   3.100 -0.9978  0.3103 -0.3234
  193DOPC   C1223798   0.008   1.067   3.193  0.5491  0.1745 -0.1775
  193DOPC  H12A23799   0.036   1.054   3.296 -2.0673  1.7261  0.8248
  193DOPC  H12B23800  -0.095   1.035   3.201  0.4499  0.4198 -0.4820
  193DOPC   C1323801   0.206   1.000   3.063 -0.0054  0.1564 -0.1247
  193DOPC  H13A23802   0.244   0.944   2.979  1.0692  0.8946 -0.1459
  193DOPC  H13B23803   0.221   1.105   3.041  0.0638 -0.0369 -1.0058
  193DOPC  H13C23804   0.273   0.983   3.146 -0.5323 -0.3796  0.2017
  193DOPC   C1423805   0.002   0.971   2.966  0.5046  0.1562  0.0198
  193DOPC  H14A23806  -0.012   1.073   2.931  1.8869  0.6496  0.8224
  193DOPC  H14B23807   0.052   0.906   2.896 -1.6168 -0.4166 -1.0699
  193DOPC  H14C23808  -0.096   0.926   2.974  0.1679  1.1661  2.4786
  193DOPC   C1523809   0.064   0.831   3.157  0.0524  0.2128  0.3241
  193DOPC  H15A23810   0.110   0.826   3.255 -2.7680 -0.0274  1.7269
  193DOPC  H15B23811   0.119   0.762   3.095  2.1871  1.1740  1.0350
  193DOPC  H15C23812  -0.030   0.780   3.165 -0.0496 -0.2407 -2.7916
  193DOPC   C1123813   0.017   1.219   3.164 -0.3008 -0.5844 -0.0879
  193DOPC  H11A23814   0.008   1.235   3.054 -1.6161  0.3731  0.1386
  193DOPC  H11B23815  -0.067   1.269   3.216 -0.4290 -2.5165  1.6989
  193DOPC     P23816   0.174   1.303   3.363  0.3613  0.4216 -0.0789
  193DOPC   O1323817   0.317   1.255   3.379  0.0016 -0.2798 -0.2545
  193DOPC   O1423818   0.065   1.245   3.451  0.2703  0.7166 -0.0006
  193DOPC   O1223819   0.142   1.273   3.212 -0.2716  0.3798 -0.0307
  193DOPC   O1123820   0.157   1.467   3.365  0.5431  0.7834 -0.0479
  193DOPC    C123821   0.243   1.540   3.287  0.0754  0.1405 -0.1731
  193DOPC    HA23822   0.176   1.579   3.206  1.0116  2.2502  0.0072
  193DOPC    HB23823   0.331   1.488   3.244  0.2023 -1.1733  1.5896
  193DOPC    C223824   0.307   1.664   3.357  0.0095 -0.0608 -0.4427
  193DOPC    HS23825   0.376   1.723   3.295  1.2433  2.1237  2.7279
  193DOPC   O2123826   0.379   1.622   3.473 -0.5101 -0.0869 -0.2151
  193DOPC   C2123827   0.500   1.577   3.445  0.7239  0.0259 -0.6793
  193DOPC   O2223828   0.544   1.553   3.335  0.1152  0.1032  0.3828
  193DOPC   C2223829   0.580   1.560   3.577 -0.0601 -0.0412  0.5961
  193DOPC   H2R23830   0.686   1.554   3.544  0.3328 -2.7362  2.0947
  193DOPC   H2S23831   0.562   1.458   3.617  1.8968 -0.3061  0.9087
  193DOPC    C323832   0.203   1.763   3.395  0.5009  0.7129 -0.2450
  193DOPC    HX23833   0.124   1.721   3.461  0.9300 -0.9358 -0.7132
  193DOPC    HY23834   0.141   1.789   3.307 -1.0822  0.9101  0.8767
  193DOPC   O3123835   0.262   1.881   3.449  0.2969  0.1262  0.1970
  193DOPC   C3123836   0.275   1.893   3.575  0.2608 -0.3186 -1.3443
  193DOPC   O3223837   0.214   1.819   3.658 -0.0872 -0.8578 -0.6760
  193DOPC   C3223838   0.369   2.008   3.614 -0.0060  0.5726 -0.3012
  193DOPC   H2X23839   0.440   1.975   3.692  0.7239  1.7618 -0.4437
  193DOPC   H2Y23840   0.429   2.017   3.521  2.3846 -1.8414  0.8845
  193DOPC   C2323841   0.549   1.677   3.672  0.8960 -0.4577  0.0824
  193DOPC   H3R23842   0.441   1.683   3.697  0.6077  0.8744 -1.3058
  193DOPC   H3S23843   0.575   1.768   3.612  1.2179  0.2122  1.2111
  193DOPC   C2423844   0.642   1.685   3.800 -0.3598  0.3767  0.2032
  193DOPC   H4R23845   0.739   1.644   3.765 -0.4054 -1.2597  1.8370
  193DOPC   H4S23846   0.617   1.606   3.874  2.1621  0.5117  1.3039
  193DOPC   C2523847   0.649   1.828   3.850  0.3382 -0.2789 -0.9422
  193DOPC   H5R23848   0.547   1.873   3.850  0.5445  0.2076 -0.5296
  193DOPC   H5S23849   0.708   1.887   3.777 -0.0775  0.6603 -0.5348
  193DOPC   C2623850   0.703   1.845   3.995  0.2086  0.4718 -0.5002
  193DOPC   H6R23851   0.813   1.830   4.005 -0.0180 -1.0016  0.0470
  193DOPC   H6S23852   0.657   1.768   4.060  0.0735  0.9871  0.0213
  193DOPC   C2723853   0.677   1.984   4.055 -0.1788  1.0313 -0.1596
  193DOPC   H7R23854   0.566   1.982   4.064 -0.1320 -0.7331  0.4746
  193DOPC   H7S23855   0.711   2.063   3.985  0.7100 -0.0468 -0.9894
  193DOPC   C2823856   0.731   1.997   4.198 -0.2079  0.6623  0.0012
  193DOPC   H8R23857   0.839   1.973   4.204  0.3329  2.8996  0.1611
  193DOPC   H8S23858   0.675   1.935   4.271 -1.2436  3.1305  1.4306
  193DOPC   C2923859   0.732   2.149   4.231 -0.5698  0.1154  0.4117
  193DOPC   H9R23860   0.802   2.204   4.166  2.6287 -2.9597  0.9723
  193DOPC  C21023861   0.677   2.205   4.341  0.3290  0.7260  1.0770
  193DOPC  H10R23862   0.707   2.308   4.365  0.6552  0.0468  4.0091
  193DOPC  C21123863   0.609   2.127   4.454  0.1636 -0.1433  0.3275
  193DOPC  H11R23864   0.653   2.025   4.463  1.5156  0.2449 -1.1671
  193DOPC  H11S23865   0.499   2.119   4.448  0.2400 -0.7069 -0.6933
  193DOPC  C21223866   0.644   2.196   4.593  0.2058 -0.3201 -0.2955
  193DOPC  H12R23867   0.595   2.154   4.683 -1.5397 -0.9172 -1.4608
  193DOPC  H12S23868   0.599   2.298   4.583  1.2584  0.1196 -0.6499
  193DOPC  C21323869   0.800   2.199   4.612 -0.1791  0.2985 -0.6373
  193DOPC  H13R23870   0.822   2.282   4.682 -0.4283 -0.2295  0.0727
  193DOPC  H13S23871   0.863   2.214   4.521  1.9006  1.4564  0.9207
  193DOPC  C21423872   0.839   2.059   4.661 -0.5671 -0.2403  0.4000
  193DOPC  H14R23873   0.950   2.058   4.665 -0.4728  2.9470  0.4643
  193DOPC  H14S23874   0.805   1.991   4.580  0.2649 -1.5585  1.1166
  193DOPC  C21523875   0.793   2.015   4.797  0.0939  0.6113 -0.2114
  193DOPC  H15R23876   0.690   1.973   4.784  0.7206 -1.5708  1.1481
  193DOPC  H15S23877   0.795   2.098   4.871 -0.0660  1.1843 -0.8441
  193DOPC  C21623878   0.871   1.896   4.862 -0.4554 -0.4446  0.1997
  193DOPC  H16R23879   0.879   1.807   4.797  1.7427  1.4695 -2.3795
  193DOPC  H16S23880   0.805   1.866   4.946 -0.6580 -1.7154 -0.3912
  193DOPC  C21723881   1.011   1.941   4.915 -0.1519 -0.1276  0.0934
  193DOPC  H17R23882   1.013   2.040   4.965 -0.3009  0.4537 -1.0248
  193DOPC  H17S23883   1.087   1.952   4.834  1.3660  0.2255  1.5095
  193DOPC  C21823884   1.054   1.840   5.018 -0.0100  0.2688  0.4344
  193DOPC  H18R23885   1.155   1.855   5.062  0.7149 -1.1588 -0.6875
  193DOPC  H18S23886   1.049   1.742   4.967 -0.3733 -0.1736  1.2923
  193DOPC  H18T23887   0.980   1.832   5.100  0.3137 -0.7248  0.6355
  193DOPC   C3323888   0.284   2.139   3.638 -0.8104  0.6386 -0.1287
  193DOPC   H3X23889   0.181   2.141   3.596  0.2048  1.8288 -2.7104
  193DOPC   H3Y23890   0.325   2.225   3.583  0.8783  0.8669  1.3828
  193DOPC   C3423891   0.261   2.173   3.786 -0.7272  1.1529  0.0615
  193DOPC   H4X23892   0.232   2.280   3.781  1.2790  1.6972 -0.7098
  193DOPC   H4Y23893   0.353   2.166   3.848 -0.1436  0.1187 -0.8769
  193DOPC   C3523894   0.141   2.089   3.847 -0.3886  0.0949  0.2506
  193DOPC   H5X23895   0.166   1.981   3.847  1.1815  0.4338  1.1003
  193DOPC   H5Y23896   0.056   2.104   3.776 -0.3888 -0.0137  0.2282
  193DOPC   C3623897   0.104   2.133   3.988  0.3120  0.2226  0.6683
  193DOPC   H6X23898   0.173   2.098   4.068 -0.0152 -1.6356  0.1716
  193DOPC   H6Y23899   0.107   2.244   4.001 -0.6515  0.5245 -1.3567
  193DOPC   C3723900  -0.041   2.087   4.015 -0.2087 -0.0805  0.4214
  193DOPC   H7X23901  -0.081   2.143   4.103  1.7948  1.8525  0.1870
  193DOPC   H7Y23902  -0.111   2.095   3.929  0.0980 -2.3019 -0.0992
  193DOPC   C3823903  -0.039   1.941   4.074  0.0677 -0.1418 -0.1033
  193DOPC   H8X23904   0.037   1.954   4.154 -1.0382  1.8759  0.7071
  193DOPC   H8Y23905   0.000   1.876   3.993 -2.0233 -2.1959  0.4153
  193DOPC   C3923906  -0.172   1.892   4.133  0.0334 -0.2655  0.1411
  193DOPC   H9X23907  -0.210   1.813   4.067  0.5074 -1.7316  1.5548
  193DOPC  C31023908  -0.233   1.919   4.253  0.1728  0.0181  0.1088
  193DOPC  H10X23909  -0.334   1.878   4.268  0.4260 -2.5909 -3.8967
  193DOPC  C31123910  -0.174   2.012   4.359  0.1516  0.9485  0.5133
  193DOPC  H11X23911  -0.236   2.104   4.364  0.3030  1.1119 -0.4491
  193DOPC  H11Y23912  -0.073   2.042   4.325 -0.7069  2.5528 -0.7983
  193DOPC  C31223913  -0.171   1.936   4.491 -0.1552 -0.2775 -0.1996
  193DOPC  H12X23914  -0.113   1.841   4.489 -0.5468 -0.5083 -1.7851
  193DOPC  H12Y23915  -0.275   1.912   4.520 -0.2696  2.6301  2.3874
  193DOPC  C31323916  -0.103   2.023   4.603  0.4292 -0.5913 -0.1861
  193DOPC  H13X23917  -0.001   2.056   4.573 -0.2104  0.6963 -1.0447
  193DOPC  H13Y23918  -0.157   2.120   4.593  1.0416 -0.3841 -1.7872
  193DOPC  C31423919  -0.118   1.959   4.741 -0.1518 -0.0654  0.5132
  193DOPC  H14X23920  -0.228   1.946   4.743 -0.2375  0.2868 -0.9814
  193DOPC  H14Y23921  -0.075   1.857   4.746 -0.3551 -0.2772 -1.4782
  193DOPC  C31523922  -0.058   2.028   4.862  0.2349 -0.3708 -0.1798
  193DOPC  H15X23923   0.046   2.005   4.892 -0.2847 -1.4765  0.8602
  193DOPC  H15Y23924  -0.119   1.999   4.950 -1.1511  1.4051 -0.4896
  193DOPC  C31623925  -0.065   2.186   4.856 -0.0255 -0.3759 -0.0251
  193DOPC  H16X23926   0.036   2.225   4.833  0.8453 -1.2543  2.0491
  193DOPC  H16Y23927  -0.128   2.227   4.774  1.4315  0.0810 -0.9714
  193DOPC  C31723928  -0.100   2.246   4.995 -0.1406  0.4252  0.4010
  193DOPC  H17X23929  -0.204   2.232   5.032 -0.6209 -0.5890 -1.2407
  193DOPC  H17Y23930  -0.027   2.209   5.070  0.2419 -0.6619 -0.4705
  193DOPC  C31823931  -0.085   2.403   4.989 -0.3145 -0.5826 -0.4011
  193DOPC  H18X23932  -0.143   2.448   5.072  0.6107 -1.4357  0.7640
  193DOPC  H18Y23933   0.021   2.436   4.990  0.0581 -1.7080 -0.5404
  193DOPC  H18Z23934  -0.119   2.447   4.893 -2.4322  0.4328  0.7649
  194DOPC     N23935   1.731   0.474   3.301  0.3508 -0.1525  0.6236
  194DOPC   C1223936   1.632   0.356   3.306 -0.2327  0.0315 -0.2110
  194DOPC  H12A23937   1.610   0.325   3.205 -2.5384  0.4332  0.1152
  194DOPC  H12B23938   1.535   0.395   3.334 -0.6530  0.3271 -2.0005
  194DOPC   C1323939   1.667   0.584   3.225  0.1318 -0.3566  0.1385
  194DOPC  H13A23940   1.623   0.550   3.133 -0.1771 -2.4757  1.0212
  194DOPC  H13B23941   1.599   0.644   3.285  0.5727  0.0304  0.2552
  194DOPC  H13C23942   1.744   0.655   3.199  0.5542 -0.2851  1.4755
  194DOPC   C1423943   1.852   0.433   3.226  0.2439 -0.5916  0.4154
  194DOPC  H14A23944   1.894   0.340   3.262 -2.5974 -1.9715  0.4961
  194DOPC  H14B23945   1.817   0.411   3.126 -0.0731  1.4799  0.0208
  194DOPC  H14C23946   1.927   0.511   3.223 -0.2026 -0.0086  2.5497
  194DOPC   C1523947   1.758   0.521   3.437 -0.7971 -1.0742 -0.0070
  194DOPC  H15A23948   1.826   0.455   3.490  0.8503  1.0630  0.6789
  194DOPC  H15B23949   1.662   0.524   3.486 -1.7985 -0.3283 -1.8923
  194DOPC  H15C23950   1.795   0.622   3.435  0.0400 -1.3498  0.9402
  194DOPC   C1123951   1.662   0.233   3.388  0.1028 -0.3688 -0.4517
  194DOPC  H11A23952   1.682   0.261   3.493  0.7563  1.5742 -1.0544
  194DOPC  H11B23953   1.572   0.167   3.392 -0.7845  0.8846  1.3563
  194DOPC     P23954   1.774   0.046   3.251  0.1307  0.1418  0.1323
  194DOPC   O1323955   1.906  -0.010   3.226  0.2578 -0.0726 -0.9154
  194DOPC   O1423956   1.701   0.088   3.132  0.0704 -0.1208  0.0011
  194DOPC   O1223957   1.783   0.171   3.350 -0.0594  0.6416 -0.3731
  194DOPC   O1123958   1.697  -0.064   3.334  0.0198  0.1872 -0.2423
  194DOPC    C123959   1.732  -0.113   3.459 -0.7849  0.3313  0.3507
  194DOPC    HA23960   1.713  -0.031   3.531  1.9876  2.9586 -1.6643
  194DOPC    HB23961   1.843  -0.123   3.462 -0.8177  0.0696  1.8715
  194DOPC    C223962   1.676  -0.257   3.494 -0.0092 -0.4776 -0.2736
  194DOPC    HS23963   1.565  -0.249   3.505  0.1296 -0.4012  1.2694
  194DOPC   O2123964   1.732  -0.298   3.622 -0.4397  0.5937  0.7568
  194DOPC   C2123965   1.651  -0.350   3.706 -0.0349  0.5754 -0.5562
  194DOPC   O2223966   1.529  -0.356   3.697 -0.4384 -0.2229  0.4683
  194DOPC   C2223967   1.731  -0.403   3.826  0.3289 -0.1473  1.3852
  194DOPC   H2R23968   1.833  -0.358   3.831  0.3745 -0.0834  0.1400
  194DOPC   H2S23969   1.743  -0.511   3.803  0.2535 -0.0281  0.7826
  194DOPC    C323970   1.717  -0.356   3.377 -0.2086  0.2430  0.3726
  194DOPC    HX23971   1.783  -0.302   3.305 -1.2263  2.3515  0.9207
  194DOPC    HY23972   1.629  -0.393   3.321 -0.0285 -0.9532  0.8573
  194DOPC   O3123973   1.780  -0.473   3.432  0.8442 -0.4969  0.4174
  194DOPC   C3123974   1.764  -0.586   3.360  0.0199 -0.1576 -0.4831
  194DOPC   O3223975   1.692  -0.599   3.264  0.4592  0.1060  0.3711
  194DOPC   C3223976   1.830  -0.708   3.430 -0.7714  0.3182 -0.4916
  194DOPC   H2X23977   1.855  -0.790   3.359 -1.4060 -0.7992  0.5334
  194DOPC   H2Y23978   1.928  -0.682   3.476 -0.1371 -3.7062  0.9024
  194DOPC   C2323979   1.663  -0.399   3.970 -0.4908  0.0028 -0.3611
  194DOPC   H3R23980   1.608  -0.496   3.969 -0.2356 -0.1387 -0.9114
  194DOPC   H3S23981   1.595  -0.311   3.981 -2.0293 -0.9612 -1.7384
  194DOPC   C2423982   1.765  -0.404   4.085 -0.1809 -0.2844 -0.5058
  194DOPC   H4R23983   1.850  -0.333   4.069 -0.2105  0.2941  1.5960
  194DOPC   H4S23984   1.798  -0.508   4.102  1.6437  0.3305  0.0736
  194DOPC   C2523985   1.683  -0.371   4.221 -0.0502 -0.3357  0.2807
  194DOPC   H5R23986   1.592  -0.434   4.215  1.6490 -2.8752 -1.8561
  194DOPC   H5S23987   1.650  -0.266   4.213  0.7314 -0.1586 -1.0052
  194DOPC   C2623988   1.752  -0.414   4.352  0.4720  0.7876  0.2481
  194DOPC   H6R23989   1.847  -0.360   4.370  1.5511 -0.2760 -1.8156
  194DOPC   H6S23990   1.785  -0.519   4.331 -2.1259 -0.9989  4.0764
  194DOPC   C2723991   1.665  -0.422   4.482  0.1487 -0.3858 -0.6968
  194DOPC   H7R23992   1.711  -0.489   4.557  0.8134 -1.7254 -2.2502
  194DOPC   H7S23993   1.575  -0.482   4.458  0.0539  0.1135 -1.6393
  194DOPC   C2823994   1.622  -0.286   4.536  0.7132  0.1072 -0.8929
  194DOPC   H8R23995   1.559  -0.306   4.625  1.2239  0.0762 -0.5330
  194DOPC   H8S23996   1.561  -0.239   4.455  0.1898 -3.1291 -2.5381
  194DOPC   C2923997   1.736  -0.200   4.583 -0.6726  0.1363  0.9297
  194DOPC   H9R23998   1.810  -0.252   4.646  0.4546  0.2061 -0.3022
  194DOPC  C21023999   1.777  -0.081   4.534 -0.4861  0.0677 -0.0946
  194DOPC  H10R24000   1.861  -0.027   4.581 -0.5438  1.3900 -1.4431
  194DOPC  C21124001   1.704   0.002   4.431 -0.7249 -0.3360 -0.1485
  194DOPC  H11R24002   1.656  -0.069   4.361 -0.1682  0.4602 -1.3659
  194DOPC  H11S24003   1.773   0.074   4.382  1.3086 -1.2758  1.2018
  194DOPC  C21224004   1.590   0.082   4.503 -0.4313 -0.5210  0.1193
  194DOPC  H12R24005   1.629   0.158   4.574 -0.1197  0.9279 -1.5169
  194DOPC  H12S24006   1.522   0.011   4.555 -0.2521 -3.1799 -2.9778
  194DOPC  C21324007   1.507   0.173   4.404  0.0831 -0.1255  0.3190
  194DOPC  H13R24008   1.576   0.225   4.335 -1.5083 -1.4293 -2.3837
  194DOPC  H13S24009   1.462   0.248   4.473  1.5134  1.2309 -0.1777
  194DOPC  C21424010   1.418   0.077   4.326  0.0852 -0.1519  0.6174
  194DOPC  H14R24011   1.365   0.023   4.408  0.1040  0.8820  1.3393
  194DOPC  H14S24012   1.484   0.012   4.265  0.9294  0.6759  0.6231
  194DOPC  C21524013   1.309   0.157   4.249 -0.1586  0.1690  0.2073
  194DOPC  H15R24014   1.348   0.192   4.151  0.4495  1.5435  0.9203
  194DOPC  H15S24015   1.282   0.246   4.309 -2.5538  0.1812 -0.8039
  194DOPC  C21624016   1.186   0.063   4.220  0.1624  0.3467  0.6354
  194DOPC  H16R24017   1.211  -0.044   4.205  1.5042  0.6763  0.3519
  194DOPC  H16S24018   1.137   0.096   4.126  1.6459  0.9719  0.0415
  194DOPC  C21724019   1.082   0.064   4.336  0.5219  0.1719  0.1135
  194DOPC  H17R24020   1.055   0.170   4.357 -0.4573  0.1009 -0.7231
  194DOPC  H17S24021   1.145   0.037   4.423  1.0510  3.8014  1.0306
  194DOPC  C21824022   0.959  -0.011   4.298  0.3024  0.1720  0.0314
  194DOPC  H18R24023   0.980  -0.116   4.269  1.0929  0.2750  0.2075
  194DOPC  H18S24024   0.912   0.042   4.212  0.8983  1.2084  0.3181
  194DOPC  H18T24025   0.885  -0.016   4.381 -0.8473 -0.1657 -0.9781
  194DOPC   C3324026   1.732  -0.766   3.543 -0.0384 -0.2642 -0.2543
  194DOPC   H3X24027   1.633  -0.792   3.501  0.0177  0.8795 -1.1401
  194DOPC   H3Y24028   1.711  -0.676   3.605 -2.0566  0.8952 -2.4848
  194DOPC   C3424029   1.784  -0.892   3.615 -0.4361  0.3758  0.0166
  194DOPC   H4X24030   1.869  -0.856   3.677  0.8543 -0.6611 -1.0667
  194DOPC   H4Y24031   1.820  -0.961   3.535  0.8406  1.3570 -0.3001
  194DOPC   C3524032   1.678  -0.957   3.699 -0.1063 -0.2249  0.8480
  194DOPC   H5X24033   1.604  -0.993   3.624  1.6972  0.0332 -1.1369
  194DOPC   H5Y24034   1.630  -0.876   3.758 -1.4315  0.9477 -1.6882
  194DOPC   C3624035   1.724  -1.075   3.783  0.1660  0.0944 -0.2522
  194DOPC   H6X24036   1.795  -1.135   3.721  1.9344  1.0137  0.8104
  194DOPC   H6Y24037   1.788  -1.042   3.867 -0.3193  2.0986 -0.6272
  194DOPC   C3724038   1.616  -1.164   3.837  0.3077  0.3268  0.0056
  194DOPC   H7X24039   1.553  -1.094   3.896 -1.3446 -1.2607  0.2377
  194DOPC   H7Y24040   1.554  -1.202   3.753  1.1108 -0.1706 -0.3642
  194DOPC   C3824041   1.662  -1.285   3.920 -0.0044  0.0095  0.5083
  194DOPC   H8X24042   1.566  -1.323   3.963 -0.0715  1.1413  1.4106
  194DOPC   H8Y24043   1.722  -1.240   4.002 -0.9656 -1.6346  2.1962
  194DOPC   C3924044   1.731  -1.390   3.843  0.1106  0.1839  0.1773
  194DOPC   H9X24045   1.676  -1.420   3.753  1.7598 -1.2623 -0.4128
  194DOPC  C31024046   1.856  -1.438   3.855  0.5644  0.5008  0.4095
  194DOPC  H10X24047   1.892  -1.519   3.791  1.3240  0.9563  0.2398
  194DOPC  C31124048   1.956  -1.397   3.962  0.6922  0.3974 -0.5185
  194DOPC  H11X24049   2.022  -1.483   3.986  0.0650 -0.2038 -0.9028
  194DOPC  H11Y24050   1.911  -1.378   4.062 -0.5047 -1.4685 -0.6496
  194DOPC  C31224051   2.058  -1.281   3.920  0.2686  0.3285 -0.4713
  194DOPC  H12X24052   1.987  -1.196   3.936 -0.2275 -0.6123  3.4121
  194DOPC  H12Y24053   2.090  -1.292   3.814  1.5190  0.4526 -0.1146
  194DOPC  C31324054   2.180  -1.271   4.012 -0.7051  1.0499 -0.2091
  194DOPC  H13X24055   2.153  -1.240   4.116 -0.5752 -0.3610  0.2624
  194DOPC  H13Y24056   2.237  -1.366   4.013 -2.8562 -0.3146 -0.9659
  194DOPC  C31424057   2.278  -1.177   3.947  1.3388 -0.2559 -0.4352
  194DOPC  H14X24058   2.337  -1.214   3.860  2.2956  0.7188 -0.2250
  194DOPC  H14Y24059   2.231  -1.083   3.913 -0.3412 -0.0516  2.1609
  194DOPC  C31524060   2.387  -1.138   4.048  0.1818 -0.7058 -0.1019
  194DOPC  H15X24061   2.485  -1.125   3.997 -0.1942  2.1901 -0.2421
  194DOPC  H15Y24062   2.393  -1.218   4.125 -1.5899 -2.0046 -1.2226
  194DOPC  C31624063   2.358  -1.000   4.102 -0.0785  0.3250 -0.6916
  194DOPC  H16X24064   2.326  -0.932   4.020 -0.0402  3.7820  1.8971
  194DOPC  H16Y24065   2.286  -1.015   4.185 -0.0748  2.1151 -0.3196
  194DOPC  C31724066   2.479  -0.917   4.161  0.2442  0.1442  0.3685
  194DOPC  H17X24067   2.447  -0.850   4.244  1.1871  1.2932 -0.1556
  194DOPC  H17Y24068   2.554  -0.987   4.204  2.6358  1.5332 -1.3151
  194DOPC  C31824069   2.550  -0.838   4.047  0.6227 -0.1444 -0.7968
  194DOPC  H18X24070   2.470  -0.782   3.994  0.7564  1.8234  0.9313
  194DOPC  H18Y24071   2.610  -0.745   4.063  0.7150 -0.4023  0.4053
  194DOPC  H18Z24072   2.607  -0.916   3.993 -0.4774 -1.7111  0.2364
  195DOPC     N24073   4.570   1.163   3.844  0.6722 -0.1749 -0.1713
  195DOPC   C1224074   4.648   1.144   3.976 -0.5358  0.3801 -0.3716
  195DOPC  H12A24075   4.623   1.049   4.019  0.8179  0.2018  0.0812
  195DOPC  H12B24076   4.601   1.211   4.046 -0.5611  0.1196 -0.1386
  195DOPC   C1324077   4.425   1.168   3.861 -0.3669 -1.2039  0.1808
  195DOPC  H13A24078   4.402   1.212   3.957  0.6789 -0.7811  0.2515
  195DOPC  H13B24079   4.380   1.238   3.793  0.6620  1.6559  2.2428
  195DOPC  H13C24080   4.373   1.074   3.869 -0.6524 -1.2142 -1.3827
  195DOPC   C1424081   4.589   1.049   3.755 -0.0326  0.3742  0.0608
  195DOPC  H14A24082   4.515   0.972   3.770  0.2376  0.4465  2.0479
  195DOPC  H14B24083   4.582   1.089   3.654 -1.9179  1.8539  0.6970
  195DOPC  H14C24084   4.686   1.007   3.775 -0.8430 -2.3446 -1.2679
  195DOPC   C1524085   4.627   1.277   3.775 -0.3758 -0.2154 -0.0855
  195DOPC  H15A24086   4.735   1.271   3.775 -0.3869 -0.4027 -0.1107
  195DOPC  H15B24087   4.612   1.374   3.822  2.1364 -0.2042  0.8415
  195DOPC  H15C24088   4.606   1.273   3.669 -2.7789  0.3001  0.3169
  195DOPC   C1124089   4.799   1.176   3.976 -0.0221  0.2593 -0.5831
  195DOPC  H11A24090   4.811   1.285   3.959  2.4404  0.0958 -0.1977
  195DOPC  H11B24091   4.842   1.153   4.076  0.3656  1.6601 -0.4021
  195DOPC     P24092   5.006   1.141   3.828 -0.1418  0.9672  0.1074
  195DOPC   O1324093   5.029   1.154   3.680  0.3046  0.9437 -0.1617
  195DOPC   O1424094   5.085   1.033   3.892  0.1967 -0.5805 -0.1295
  195DOPC   O1224095   4.857   1.108   3.863 -0.0329 -0.5914  0.1686
  195DOPC   O1124096   5.037   1.280   3.892  0.8415 -0.2482 -0.3609
  195DOPC    C124097   5.128   1.299   4.001  0.0543 -0.8624  0.1551
  195DOPC    HA24098   5.223   1.304   3.944  0.4947  0.5747  0.9643
  195DOPC    HB24099   5.115   1.217   4.075  0.4076  0.1621  1.4062
  195DOPC    C224100   5.111   1.440   4.065  0.5001  0.2175 -0.6387
  195DOPC    HS24101   5.212   1.462   4.105  0.0957 -0.2380  0.6519
  195DOPC   O2124102   5.014   1.429   4.170 -0.5103  0.3518  0.1404
  195DOPC   C2124103   5.056   1.395   4.293  0.1734  0.5160  0.8509
  195DOPC   O2224104   5.164   1.354   4.322 -0.6464  0.4033 -0.0740
  195DOPC   C2224105   4.934   1.408   4.394  0.2610  0.3649 -0.1029
  195DOPC   H2R24106   4.901   1.307   4.427  1.7907  0.2492  1.1862
  195DOPC   H2S24107   4.850   1.460   4.344 -0.5539 -0.4135  0.4384
  195DOPC    C324108   5.073   1.557   3.974 -0.0287 -0.1696  0.1461
  195DOPC    HX24109   4.986   1.534   3.909  0.2494  0.7183 -0.5691
  195DOPC    HY24110   5.159   1.578   3.907  0.6551  1.4042  1.4481
  195DOPC   O3124111   5.053   1.685   4.039 -0.0695 -0.2142  0.1980
  195DOPC   C3124112   4.928   1.701   4.096  0.3160  1.2826 -0.0496
  195DOPC   O3224113   4.841   1.620   4.094  0.9916  0.4962  0.8169
  195DOPC   C3224114   4.930   1.829   4.172 -0.2151  0.6400 -0.1958
  195DOPC   H2X24115   4.827   1.864   4.193  0.0968  1.1288  0.5682
  195DOPC   H2Y24116   4.968   1.806   4.274 -2.1368  0.2269  0.4757
  195DOPC   C2324117   4.973   1.504   4.516  0.1769 -0.0461  0.5247
  195DOPC   H3R24118   4.876   1.526   4.566 -0.9621  1.1159 -1.9866
  195DOPC   H3S24119   5.015   1.598   4.475 -0.9943 -0.0206 -0.7014
  195DOPC   C2424120   5.061   1.427   4.612  0.8203  0.5948 -0.0306
  195DOPC   H4R24121   5.154   1.387   4.568  1.1083  1.5131 -0.2690
  195DOPC   H4S24122   5.009   1.332   4.639  1.8959  0.6253  2.4586
  195DOPC   C2524123   5.099   1.498   4.743  0.1073  0.8656 -0.1675
  195DOPC   H5R24124   5.119   1.604   4.718 -1.0505  0.7232 -1.8415
  195DOPC   H5S24125   5.191   1.451   4.785  0.0083  1.8824  1.2767
  195DOPC   C2624126   4.991   1.494   4.851  0.0602  0.2697 -0.2080
  195DOPC   H6R24127   4.985   1.384   4.866 -2.2017  0.3602 -0.0265
  195DOPC   H6S24128   4.895   1.539   4.819 -1.4974 -2.0790  0.8697
  195DOPC   C2724129   5.042   1.569   4.977 -0.2467  0.2270  0.0177
  195DOPC   H7R24130   5.032   1.678   4.954 -1.8464  0.4199  1.3922
  195DOPC   H7S24131   5.150   1.547   4.988 -0.1426 -0.3414 -1.8545
  195DOPC   C2824132   4.960   1.533   5.106  0.1023  0.7190  0.3222
  195DOPC   H8R24133   4.972   1.423   5.107 -1.2331  0.4956 -1.8961
  195DOPC   H8S24134   4.854   1.565   5.093 -0.4098 -0.4036  1.5267
  195DOPC   C2924135   5.026   1.600   5.221  0.2345  0.2901 -0.2220
  195DOPC   H9R24136   5.106   1.543   5.270  0.2481  0.0086 -0.5671
  195DOPC  C21024137   5.005   1.729   5.262 -1.3478  0.5167  0.0747
  195DOPC  H10R24138   5.047   1.770   5.356  2.3215 -0.6278 -0.8829
  195DOPC  C21124139   4.915   1.828   5.197  0.0970 -0.7223 -0.6523
  195DOPC  H11R24140   4.833   1.859   5.265 -0.0818 -0.3601 -1.0256
  195DOPC  H11S24141   4.868   1.804   5.099  0.2717  0.6305 -1.0924
  195DOPC  C21224142   4.999   1.954   5.164  0.6749  0.0985  0.0625
  195DOPC  H12R24143   5.085   1.926   5.098 -0.0457  2.3927 -1.9931
  195DOPC  H12S24144   5.044   1.998   5.256 -1.2587 -3.3085  2.8907
  195DOPC  C21324145   4.917   2.060   5.089  0.1160 -0.6615  0.5415
  195DOPC  H13R24146   4.849   2.111   5.160  1.3787 -0.3949  1.5954
  195DOPC  H13S24147   4.866   2.004   5.007  1.9463  0.5200 -1.5256
  195DOPC  C21424148   5.007   2.163   5.010  0.4010  0.0981  0.0895
  195DOPC  H14R24149   5.082   2.103   4.954  0.4415 -1.3028  1.5739
  195DOPC  H14S24150   5.056   2.229   5.085 -0.4137  0.7010  0.1161
  195DOPC  C21524151   4.934   2.258   4.909  0.5640 -0.1253 -0.0092
  195DOPC  H15R24152   4.834   2.293   4.942  0.0911 -3.7989  3.1021
  195DOPC  H15S24153   4.911   2.200   4.816 -1.4127 -1.7182  1.3916
  195DOPC  C21624154   5.021   2.379   4.869  0.3397 -0.3646  0.1538
  195DOPC  H16R24155   5.053   2.443   4.954  0.3919 -2.3015  1.6554
  195DOPC  H16S24156   4.954   2.435   4.801  2.8534  1.7584 -0.7469
  195DOPC  C21724157   5.144   2.333   4.779 -0.1022  0.4943  0.4985
  195DOPC  H17R24158   5.101   2.260   4.707  0.5246  0.7892 -0.1847
  195DOPC  H17S24159   5.221   2.286   4.844  1.2973  3.5560  1.2274
  195DOPC  C21824160   5.216   2.444   4.693  0.4184  0.4563  0.1734
  195DOPC  H18R24161   5.282   2.510   4.752  1.8864 -0.2723 -0.5872
  195DOPC  H18S24162   5.137   2.513   4.656 -1.3421 -0.8942  1.2266
  195DOPC  H18T24163   5.277   2.407   4.607 -0.9132  1.6790 -1.3774
  195DOPC   C3324164   5.012   1.938   4.115  0.6995 -0.6355  0.2599
  195DOPC   H3X24165   4.946   1.999   4.049 -0.5579 -2.6146 -0.4008
  195DOPC   H3Y24166   5.106   1.907   4.065  2.0306  0.8762  1.7109
  195DOPC   C3424167   5.055   2.035   4.226  0.1167 -0.0011  0.5706
  195DOPC   H4X24168   5.113   1.976   4.299  0.2906 -2.0184 -1.0945
  195DOPC   H4Y24169   4.965   2.088   4.265  0.1171  1.2893 -1.0604
  195DOPC   C3524170   5.155   2.132   4.169  0.1708 -0.0685 -0.2348
  195DOPC   H5X24171   5.101   2.200   4.100 -2.6119  0.0133  1.8327
  195DOPC   H5Y24172   5.233   2.078   4.113 -2.2901 -2.3401 -1.6680
  195DOPC   C3624173   5.213   2.227   4.273  0.2218  0.5831  0.6005
  195DOPC   H6X24174   5.120   2.267   4.319 -0.8438  0.1011 -1.0648
  195DOPC   H6Y24175   5.250   2.150   4.344 -1.7382 -0.1501  0.8872
  195DOPC   C3724176   5.312   2.336   4.226 -0.3072 -0.1136 -0.2832
  195DOPC   H7X24177   5.389   2.283   4.167 -0.1402  0.0373 -0.2017
  195DOPC   H7Y24178   5.259   2.405   4.157 -1.9391 -1.0920 -0.0741
  195DOPC   C3824179   5.373   2.412   4.341 -0.3085  0.1010 -0.1053
  195DOPC   H8X24180   5.413   2.344   4.419 -1.1365  1.1774  1.3267
  195DOPC   H8Y24181   5.290   2.468   4.391  0.0943  3.4741 -2.8146
  195DOPC   C3924182   5.455   2.519   4.286 -0.1063 -0.2097 -0.0280
  195DOPC   H9X24183   5.534   2.485   4.217 -0.4220  0.4962 -0.7455
  195DOPC  C31024184   5.468   2.647   4.323 -0.6731  0.2699 -0.0093
  195DOPC  H10X24185   5.539   2.709   4.266 -0.4318  0.4811  0.5088
  195DOPC  C31124186   5.407   2.712   4.441  0.3560  0.3013  0.9399
  195DOPC  H11X24187   5.325   2.649   4.483  1.9989 -1.2232  2.0492
  195DOPC  H11Y24188   5.374   2.808   4.397  0.9464  0.1897  0.2332
  195DOPC  C31224189   5.500   2.742   4.559  0.6472 -0.3058  0.7637
  195DOPC  H12X24190   5.594   2.773   4.508 -0.3642 -0.8186 -1.5604
  195DOPC  H12Y24191   5.528   2.642   4.599 -2.0556 -1.8088 -0.8542
  195DOPC  C31324192   5.457   2.851   4.666  0.3086  0.0902 -0.1614
  195DOPC  H13X24193   5.549   2.880   4.721  0.2815 -0.9686  0.4871
  195DOPC  H13Y24194   5.404   2.940   4.626 -0.9359 -0.7124 -0.3517
  195DOPC  C31424195   5.364   2.774   4.760  0.2700 -0.5242  0.7364
  195DOPC  H14X24196   5.292   2.743   4.681 -0.8061  1.8653  0.6898
  195DOPC  H14Y24197   5.419   2.693   4.812 -2.3272 -2.0247  1.3588
  195DOPC  C31524198   5.292   2.862   4.865  0.3472  0.5979 -0.2815
  195DOPC  H15X24199   5.291   2.967   4.829  0.5390  1.3884  1.8458
  195DOPC  H15Y24200   5.348   2.856   4.961  2.3110 -0.4443 -1.4160
  195DOPC  C31624201   5.148   2.814   4.887 -0.5607 -0.2818  0.0444
  195DOPC  H16X24202   5.106   2.830   4.785  1.3893  1.8782 -0.5173
  195DOPC  H16Y24203   5.151   2.704   4.902  0.5980 -0.2159  0.4186
  195DOPC  C31724204   5.067   2.884   4.996 -0.2971  0.0493 -0.0561
  195DOPC  H17X24205   5.024   2.983   4.971  1.2813  0.4179 -1.4959
  195DOPC  H17Y24206   4.974   2.825   5.005 -0.0485 -0.0811  2.2589
  195DOPC  C31824207   5.124   2.888   5.139  0.4325  0.1544 -0.0514
  195DOPC  H18X24208   5.195   2.973   5.144 -0.7677  1.4411 -2.7292
  195DOPC  H18Y24209   5.047   2.902   5.219  1.1095 -0.0140  0.6426
  195DOPC  H18Z24210   5.183   2.797   5.161  1.2576  0.9710  1.3083
  196DOPC     N24211   7.090   7.137   2.680 -0.4490 -0.6099 -0.7044
  196DOPC   C1224212   7.069   7.152   2.834 -0.1584  0.7081 -0.0879
  196DOPC  H12A24213   7.013   7.240   2.859 -1.4843  0.0532 -0.6152
  196DOPC  H12B24214   7.165   7.140   2.882 -0.2114 -0.4317 -0.2415
  196DOPC   C1324215   7.170   7.251   2.630  0.6748  0.2213  0.1000
  196DOPC  H13A24216   7.158   7.252   2.523 -0.7544  2.9179  0.1874
  196DOPC  H13B24217   7.125   7.343   2.666 -1.9301 -0.3324 -1.4990
  196DOPC  H13C24218   7.272   7.238   2.665  0.5422 -0.3509  0.2807
  196DOPC   C1424219   6.962   7.128   2.609  0.4552  0.0394 -0.3261
  196DOPC  H14A24220   6.905   7.220   2.617  1.6651  0.9546 -1.6871
  196DOPC  H14B24221   6.989   7.106   2.507 -0.5327  0.8494 -0.7793
  196DOPC  H14C24222   6.903   7.051   2.657  0.3820 -0.0324 -0.5317
  196DOPC   C1524223   7.170   7.014   2.660  0.6746  0.1343  0.0011
  196DOPC  H15A24224   7.125   6.939   2.722  1.6554  0.8666  1.6481
  196DOPC  H15B24225   7.265   7.015   2.711  0.4970 -1.5641  0.4160
  196DOPC  H15C24226   7.177   6.977   2.559  0.4603  1.6799 -0.6100
  196DOPC   C1124227   7.000   7.028   2.889 -0.3838 -0.1366 -0.0998
  196DOPC  H11A24228   6.942   7.050   2.981  0.0692  1.4077 -0.1561
  196DOPC  H11B24229   6.922   6.989   2.821 -1.2400 -0.1454  0.8639
  196DOPC     P24230   7.189   6.896   3.036  0.2760 -0.1047  0.4077
  196DOPC   O1324231   7.332   6.901   2.996  0.1393  0.0398 -0.0557
  196DOPC   O1424232   7.133   6.771   3.096 -0.3037 -0.0943  0.3250
  196DOPC   O1224233   7.100   6.924   2.906 -0.3838 -0.3464  0.0861
  196DOPC   O1124234   7.147   7.010   3.131  0.8339 -0.3394 -0.0222
  196DOPC    C124235   7.204   7.139   3.144 -0.9097  0.1597  0.5949
  196DOPC    HA24236   7.134   7.213   3.102 -1.3414 -0.4439  0.2338
  196DOPC    HB24237   7.289   7.151   3.074 -2.5884  2.0929 -1.2362
  196DOPC    C224238   7.251   7.175   3.286  0.1143  0.3274 -0.2474
  196DOPC    HS24239   7.271   7.284   3.279  0.8946  0.1653 -0.6846
  196DOPC   O2124240   7.353   7.078   3.325 -0.7250  0.5815 -0.3465
  196DOPC   C2124241   7.451   7.116   3.410  0.0807  0.2220 -0.2115
  196DOPC   O2224242   7.474   7.229   3.445 -0.0925  0.8577  0.0999
  196DOPC   C2224243   7.509   6.997   3.487 -0.5345  0.2962 -0.7162
  196DOPC   H2R24244   7.615   7.019   3.515 -0.4553  0.1648 -0.9095
  196DOPC   H2S24245   7.507   6.911   3.417 -0.4569  1.4151 -2.1589
  196DOPC    C324246   7.136   7.156   3.384 -0.3505 -1.2645 -0.1053
  196DOPC    HX24247   7.122   7.046   3.387 -1.9462 -1.0783  0.3916
  196DOPC    HY24248   7.046   7.209   3.346 -1.3361 -0.9601  2.4885
  196DOPC   O3124249   7.164   7.202   3.524  1.1187 -0.0450 -0.2376
  196DOPC   C3124250   7.164   7.337   3.536 -0.0189  0.0274  0.0797
  196DOPC   O3224251   7.148   7.425   3.451 -0.2762  0.3895 -0.1631
  196DOPC   C3224252   7.221   7.363   3.672 -0.1269  0.6764  0.8700
  196DOPC   H2X24253   7.181   7.284   3.738  0.0596 -1.1801 -1.1100
  196DOPC   H2Y24254   7.330   7.347   3.658 -0.4611  0.1889 -1.7984
  196DOPC   C2324255   7.425   6.965   3.613  0.5378  0.1225  0.7039
  196DOPC   H3R24256   7.316   6.964   3.593  0.0681 -1.1707  2.9037
  196DOPC   H3S24257   7.451   7.047   3.683  0.8736 -0.1283  0.8791
  196DOPC   C2424258   7.469   6.838   3.691 -0.1483  0.0558  0.4686
  196DOPC   H4R24259   7.575   6.858   3.719  0.5476  0.6459 -2.2540
  196DOPC   H4S24260   7.465   6.751   3.622 -0.4142  0.7119 -0.3741
  196DOPC   C2524261   7.386   6.816   3.813  0.2661 -0.4994 -0.3619
  196DOPC   H5R24262   7.280   6.808   3.782 -0.2467  0.8607  0.9012
  196DOPC   H5S24263   7.392   6.906   3.878  0.5102 -1.0950  0.4717
  196DOPC   C2624264   7.424   6.700   3.906  0.0127  0.1051  0.8139
  196DOPC   H6R24265   7.361   6.706   3.997 -0.3643  0.3791  0.5364
  196DOPC   H6S24266   7.532   6.714   3.930  0.7501 -1.1594 -1.4687
  196DOPC   C2724267   7.413   6.558   3.851  0.1155  0.4248 -1.2254
  196DOPC   H7R24268   7.476   6.549   3.760  2.4368  0.4835  0.2943
  196DOPC   H7S24269   7.307   6.553   3.820  0.0546  0.0543 -0.9659
  196DOPC   C2824270   7.443   6.454   3.965 -0.4708 -0.2389 -1.0341
  196DOPC   H8R24271   7.359   6.474   4.036 -1.5446 -1.6439 -1.8456
  196DOPC   H8S24272   7.543   6.474   4.008 -1.7454  0.7104  1.7303
  196DOPC   C2924273   7.434   6.313   3.908 -0.1972 -0.1560  0.0677
  196DOPC   H9R24274   7.350   6.308   3.838  0.6652  1.6309 -1.1830
  196DOPC  C21024275   7.527   6.220   3.927 -1.0741 -0.3293  0.7424
  196DOPC  H10R24276   7.507   6.121   3.884 -3.1342  0.4671 -0.2824
  196DOPC  C21124277   7.660   6.224   4.001 -0.4836 -0.7106  0.2272
  196DOPC  H11R24278   7.647   6.162   4.093 -1.5056  0.4390  0.9050
  196DOPC  H11S24279   7.677   6.329   4.035 -1.7071 -0.6569  0.7314
  196DOPC  C21224280   7.775   6.170   3.912  0.2319 -0.3733 -0.2064
  196DOPC  H12R24281   7.799   6.244   3.833 -0.9507  0.3783  0.0986
  196DOPC  H12S24282   7.759   6.072   3.863  1.1249 -0.2262 -0.8184
  196DOPC  C21324283   7.914   6.163   3.989  0.6602 -0.2927 -0.5531
  196DOPC  H13R24284   7.930   6.260   4.040  0.4772 -0.6906  0.2885
  196DOPC  H13S24285   7.999   6.148   3.919  1.8039  1.4897  0.3939
  196DOPC  C21424286   7.910   6.061   4.105  0.0913  0.5191  0.3082
  196DOPC  H14R24287   7.863   5.966   4.071  1.8596  0.0349 -0.8976
  196DOPC  H14S24288   7.854   6.104   4.191  1.5615  1.5917  0.7739
  196DOPC  C21524289   8.054   6.028   4.165  0.0552  0.1718 -0.2043
  196DOPC  H15R24290   8.130   6.026   4.084  0.8242 -0.7003  0.5217
  196DOPC  H15S24291   8.046   5.923   4.200  1.8973  0.2637  0.6489
  196DOPC  C21624292   8.085   6.121   4.282  0.1192  1.0267 -0.5429
  196DOPC  H16R24293   8.028   6.096   4.374  0.9745 -0.6165 -0.4256
  196DOPC  H16S24294   8.059   6.223   4.245  2.0927  1.6620 -0.3055
  196DOPC  C21724295   8.233   6.124   4.319  0.6085  0.4345  0.3331
  196DOPC  H17R24296   8.286   6.127   4.221 -0.5133 -1.0778 -0.3557
  196DOPC  H17S24297   8.267   6.034   4.373  0.4569 -0.9090 -1.7076
  196DOPC  C21824298   8.275   6.239   4.412 -0.3459 -0.4342 -0.0733
  196DOPC  H18R24299   8.221   6.326   4.368 -3.5450 -2.1677  0.1286
  196DOPC  H18S24300   8.385   6.252   4.417 -0.3938 -0.4369  1.5809
  196DOPC  H18T24301   8.233   6.224   4.514 -0.5168  1.3917  0.1690
  196DOPC   C3324302   7.199   7.501   3.711 -0.6011 -0.4266 -0.3821
  196DOPC   H3X24303   7.092   7.529   3.714 -0.9407 -1.6145 -0.8327
  196DOPC   H3Y24304   7.249   7.577   3.647 -1.7779 -0.1806 -1.0513
  196DOPC   C3424305   7.241   7.519   3.857 -0.5210 -0.8400 -0.0122
  196DOPC   H4X24306   7.233   7.625   3.890  1.6628  0.0229 -1.9830
  196DOPC   H4Y24307   7.346   7.487   3.876 -0.4243 -0.0694  0.8342
  196DOPC   C3524308   7.158   7.440   3.963  0.3127 -0.7542 -0.7381
  196DOPC   H5X24309   7.187   7.333   3.954  1.1188 -0.5923 -0.2292
  196DOPC   H5Y24310   7.050   7.457   3.947  0.1340  0.0084  1.0739
  196DOPC   C3624311   7.202   7.477   4.106 -0.0987 -0.3352 -0.2756
  196DOPC   H6X24312   7.312   7.463   4.115  0.0485  0.9047  0.0151
  196DOPC   H6Y24313   7.199   7.588   4.113 -3.2426 -0.2291 -1.4982
  196DOPC   C3724314   7.135   7.419   4.223  0.6765  0.8028  0.7310
  196DOPC   H7X24315   7.026   7.438   4.213  0.6480  0.1440 -0.3912
  196DOPC   H7Y24316   7.155   7.311   4.209  0.4072  1.1131 -2.7712
  196DOPC   C3824317   7.191   7.464   4.357 -0.0301 -0.5526  0.0075
  196DOPC   H8X24318   7.173   7.573   4.360  0.7613 -0.4110 -0.1115
  196DOPC   H8Y24319   7.301   7.448   4.353 -0.1379 -1.0622 -2.3967
  196DOPC   C3924320   7.132   7.399   4.483 -0.1304  0.0070  0.3778
  196DOPC   H9X24321   7.023   7.399   4.499 -0.0706 -0.0174  0.8060
  196DOPC  C31024322   7.205   7.363   4.591  0.1983 -0.0473  0.4160
  196DOPC  H10X24323   7.145   7.333   4.678 -1.4282  0.5981 -0.4504
  196DOPC  C31124324   7.355   7.362   4.616  0.3840 -0.6791 -0.4653
  196DOPC  H11X24325   7.403   7.447   4.564 -0.4035  0.2590  0.3040
  196DOPC  H11Y24326   7.395   7.263   4.584 -1.4457 -1.7598  0.3867
  196DOPC  C31224327   7.377   7.384   4.766  0.3886  0.8483 -0.3345
  196DOPC  H12X24328   7.323   7.480   4.785 -1.0547  0.0418 -0.2536
  196DOPC  H12Y24329   7.482   7.417   4.780  0.2974  0.3820  1.7461
  196DOPC  C31324330   7.347   7.263   4.858 -0.4466  0.0772 -0.7193
  196DOPC  H13X24331   7.247   7.217   4.845  0.7353 -3.2079  0.8172
  196DOPC  H13Y24332   7.419   7.181   4.838  0.1040  0.7046 -1.3768
  196DOPC  C31424333   7.372   7.304   5.008 -0.2834  0.5013  0.2510
  196DOPC  H14X24334   7.328   7.226   5.074 -1.8566  1.2755  0.1715
  196DOPC  H14Y24335   7.481   7.317   5.026 -0.5037  1.0724  1.2503
  196DOPC  C31524336   7.315   7.441   5.049 -0.4995  0.1002  0.6185
  196DOPC  H15X24337   7.207   7.437   5.024 -0.3693  0.3205  0.0012
  196DOPC  H15Y24338   7.354   7.522   4.984 -0.1083 -0.1988  0.4739
  196DOPC  C31624339   7.348   7.484   5.192  0.1685  0.0515 -0.0404
  196DOPC  H16X24340   7.459   7.493   5.200  0.1361  2.1483 -1.1197
  196DOPC  H16Y24341   7.317   7.590   5.197  0.7040  0.3647 -2.3527
  196DOPC  C31724342   7.296   7.393   5.303  0.1322 -0.3134 -0.6150
  196DOPC  H17X24343   7.185   7.393   5.298  0.1163  0.8164 -0.3987
  196DOPC  H17Y24344   7.337   7.291   5.287  3.2065  1.1928 -3.5145
  196DOPC  C31824345   7.352   7.442   5.439  0.1391 -0.4974  0.4132
  196DOPC  H18X24346   7.333   7.548   5.465  0.2452 -0.7383  1.5046
  196DOPC  H18Y24347   7.304   7.389   5.524 -0.4902  0.3878  0.6233
  196DOPC  H18Z24348   7.462   7.427   5.440  0.0243 -1.4289  2.2131
  197DOPC     N24349   3.455   6.733   2.908 -0.5046  0.0637  0.7361
  197DOPC   C1224350   3.521   6.872   2.904  0.0627  0.0235  0.2543
  197DOPC  H12A24351   3.533   6.897   2.800  0.7496 -0.7936  0.1286
  197DOPC  H12B24352   3.626   6.864   2.926  0.6738 -1.8112 -2.8396
  197DOPC   C1324353   3.454   6.664   3.043 -0.4737 -0.2615  0.2875
  197DOPC  H13A24354   3.558   6.638   3.057 -0.1586  0.4347 -0.7002
  197DOPC  H13B24355   3.423   6.728   3.125 -5.2836 -0.8704 -0.7533
  197DOPC  H13C24356   3.390   6.577   3.048  1.1838 -1.5134  0.3640
  197DOPC   C1424357   3.503   6.629   2.809  0.2248 -0.0041 -0.6296
  197DOPC  H14A24358   3.441   6.542   2.828 -0.3555  0.5791  0.2579
  197DOPC  H14B24359   3.495   6.661   2.706  1.3281 -1.0141 -1.0388
  197DOPC  H14C24360   3.604   6.597   2.828  1.1224  2.0175 -1.6408
  197DOPC   C1524361   3.309   6.742   2.881 -0.5780  0.0999 -0.2767
  197DOPC  H15A24362   3.264   6.817   2.945  1.5655 -0.6655  2.3099
  197DOPC  H15B24363   3.265   6.646   2.903  0.3200  0.0246  1.2982
  197DOPC  H15C24364   3.285   6.754   2.776 -1.7596 -1.0494 -0.1718
  197DOPC   C1124365   3.460   6.978   3.004  0.2761 -0.7809 -0.9133
  197DOPC  H11A24366   3.461   6.935   3.106 -1.5999 -0.9786 -0.9319
  197DOPC  H11B24367   3.535   7.059   3.015 -1.2052  0.6461 -0.9824
  197DOPC     P24368   3.278   7.164   2.981  0.2592 -0.4090  0.1415
  197DOPC   O1324369   3.135   7.161   3.000  0.4146 -0.7612 -0.1978
  197DOPC   O1424370   3.330   7.251   2.875  0.2378 -0.4139 -0.3966
  197DOPC   O1224371   3.329   7.017   2.954 -0.3741 -0.0244  0.1136
  197DOPC   O1124372   3.338   7.217   3.114 -0.3789  1.0185 -0.1706
  197DOPC    C124373   3.258   7.273   3.223  0.0281  0.2112  0.7730
  197DOPC    HA24374   3.161   7.221   3.238  0.1321  0.7575  4.1240
  197DOPC    HB24375   3.238   7.379   3.199 -1.4613 -0.7856 -3.1853
  197DOPC    C224376   3.329   7.257   3.367  0.6685 -0.6055  0.4618
  197DOPC    HS24377   3.258   7.296   3.442  2.0083  1.8085  0.5657
  197DOPC   O2124378   3.442   7.348   3.364 -0.0860 -0.6481 -0.2757
  197DOPC   C2124379   3.487   7.377   3.491 -0.0738 -0.8231 -0.0301
  197DOPC   O2224380   3.430   7.344   3.590  0.1398  0.3386 -0.0543
  197DOPC   C2224381   3.601   7.474   3.485 -0.6438  0.8466  0.2968
  197DOPC   H2R24382   3.580   7.545   3.402 -1.4016  0.1146 -0.1485
  197DOPC   H2S24383   3.699   7.425   3.466 -1.3772 -1.6762  2.4927
  197DOPC    C324384   3.365   7.105   3.380  0.0775  0.5233 -0.1548
  197DOPC    HX24385   3.457   7.088   3.320 -0.4296 -0.9214 -0.5782
  197DOPC    HY24386   3.286   7.033   3.349 -2.1585  1.6793  2.4399
  197DOPC   O3124387   3.402   7.083   3.514  0.7042 -0.1871 -0.0469
  197DOPC   C3124388   3.304   7.059   3.593 -0.5735  0.1699 -0.5360
  197DOPC   O3224389   3.183   7.065   3.565 -0.2921  0.0598  0.0654
  197DOPC   C3224390   3.355   7.041   3.740 -0.3075 -0.6939  0.2348
  197DOPC   H2X24391   3.446   6.978   3.731 -1.0972 -1.7299 -0.7974
  197DOPC   H2Y24392   3.381   7.143   3.776 -0.1894 -0.8576  0.6174
  197DOPC   C2324393   3.623   7.544   3.623  0.2249 -0.1390  0.5469
  197DOPC   H3R24394   3.667   7.470   3.692  2.2810 -0.2989 -0.8614
  197DOPC   H3S24395   3.526   7.578   3.665 -0.0078 -0.3479  0.1839
  197DOPC   C2424396   3.713   7.669   3.611 -0.1745 -0.2593 -0.2799
  197DOPC   H4R24397   3.658   7.752   3.561 -0.3786  0.1344  0.5883
  197DOPC   H4S24398   3.796   7.641   3.542  0.3037 -0.5182  0.3876
  197DOPC   C2524399   3.779   7.714   3.741 -0.1136 -0.1957  0.1501
  197DOPC   H5R24400   3.705   7.748   3.816  0.8894  1.3501  0.4828
  197DOPC   H5S24401   3.849   7.796   3.715 -0.9640  0.0088 -1.6495
  197DOPC   C2624402   3.865   7.601   3.800  0.0037 -0.2888 -0.4304
  197DOPC   H6R24403   3.934   7.558   3.724  1.7238 -0.3576  1.1155
  197DOPC   H6S24404   3.810   7.518   3.850 -1.8246  0.6416 -0.8080
  197DOPC   C2724405   3.950   7.654   3.920  0.0614  0.1908  0.5867
  197DOPC   H7R24406   4.009   7.742   3.886 -1.1674  0.0683 -2.0923
  197DOPC   H7S24407   4.016   7.569   3.946  0.5533 -0.0886 -1.4499
  197DOPC   C2824408   3.869   7.696   4.041  1.2020 -0.1989  0.5976
  197DOPC   H8R24409   3.801   7.610   4.056  0.1689  0.7137  1.2421
  197DOPC   H8S24410   3.814   7.788   4.012 -0.6791 -1.4690 -0.0538
  197DOPC   C2924411   3.946   7.735   4.163 -0.0393 -0.3608  0.4013
  197DOPC   H9R24412   3.999   7.831   4.150  0.2086 -0.6805 -1.1967
  197DOPC  C21024413   3.964   7.671   4.279  0.4496  1.3698  0.5405
  197DOPC  H10R24414   4.011   7.729   4.359 -1.2258 -1.6171  3.9979
  197DOPC  C21124415   3.917   7.523   4.312 -0.9353 -0.2805  0.5848
  197DOPC  H11R24416   3.983   7.484   4.392  1.6678  1.8399 -0.4148
  197DOPC  H11S24417   3.922   7.457   4.222 -0.0135  1.1507 -0.4446
  197DOPC  C21224418   3.769   7.534   4.368 -0.4328  0.2137  0.4397
  197DOPC  H12R24419   3.734   7.429   4.359  0.7935 -0.0275 -2.0468
  197DOPC  H12S24420   3.704   7.605   4.313  0.5986  1.3334  0.6170
  197DOPC  C21324421   3.773   7.578   4.519  0.4204  0.1115  0.1046
  197DOPC  H13R24422   3.804   7.684   4.530 -0.7638  0.3869  0.9790
  197DOPC  H13S24423   3.837   7.504   4.573 -0.2142 -1.0287 -0.6531
  197DOPC  C21424424   3.637   7.567   4.583  0.1185 -0.5411  0.4702
  197DOPC  H14R24425   3.639   7.621   4.680 -0.5090 -1.1637  0.8395
  197DOPC  H14S24426   3.614   7.459   4.597  2.8005 -1.3920 -1.0275
  197DOPC  C21524427   3.514   7.633   4.515  0.8050 -0.6625 -0.1308
  197DOPC  H15R24428   3.423   7.620   4.577  2.0266  0.9741  2.1339
  197DOPC  H15S24429   3.502   7.589   4.414  0.7967 -0.4221 -0.2354
  197DOPC  C21624430   3.534   7.791   4.502 -0.5165 -0.7057 -0.4893
  197DOPC  H16R24431   3.609   7.814   4.423 -0.2241 -1.3443 -0.4061
  197DOPC  H16S24432   3.587   7.809   4.597  0.4005  1.2046 -1.3051
  197DOPC  C21724433   3.399   7.863   4.482  0.0497  0.8336 -0.4497
  197DOPC  H17R24434   3.347   7.813   4.397 -0.2490 -2.3779  1.4672
  197DOPC  H17S24435   3.420   7.969   4.458  3.0966  0.2831 -0.6384
  197DOPC  C21824436   3.308   7.876   4.607  0.4767  0.1481  0.4033
  197DOPC  H18R24437   3.210   7.926   4.596 -0.4906 -1.3278  1.7285
  197DOPC  H18S24438   3.346   7.936   4.692 -0.3744 -1.6243  2.1119
  197DOPC  H18T24439   3.284   7.771   4.634  0.5453 -0.3877 -1.5000
  197DOPC   C3324440   3.263   6.962   3.831 -0.0459 -0.2364 -0.1899
  197DOPC   H3X24441   3.227   6.863   3.795 -1.0217  0.4244 -1.0812
  197DOPC   H3Y24442   3.166   7.013   3.847  0.6907  1.7001 -1.5521
  197DOPC   C3424443   3.319   6.932   3.975  0.6347 -0.5484  0.0045
  197DOPC   H4X24444   3.241   6.934   4.054 -1.4256 -0.5409 -1.9258
  197DOPC   H4Y24445   3.404   7.001   3.993 -0.1288  0.8109 -1.3621
  197DOPC   C3524446   3.386   6.793   3.976 -0.2057 -0.0173  0.0607
  197DOPC   H5X24447   3.452   6.791   3.886 -0.3608 -0.1342 -0.0502
  197DOPC   H5Y24448   3.308   6.718   3.954  1.0820 -0.8008 -2.2267
  197DOPC   C3624449   3.457   6.762   4.111  0.2964 -0.0820 -0.2651
  197DOPC   H6X24450   3.486   6.655   4.109  0.8501  0.0310 -2.9116
  197DOPC   H6Y24451   3.540   6.832   4.133 -1.8911  2.9677 -1.0330
  197DOPC   C3724452   3.361   6.774   4.228  0.1383 -0.1963  0.0211
  197DOPC   H7X24453   3.311   6.872   4.240  0.7493  0.2307 -0.8395
  197DOPC   H7Y24454   3.267   6.720   4.202 -0.9587  1.3426  0.6144
  197DOPC   C3824455   3.421   6.712   4.361 -0.5833  0.5472  0.1127
  197DOPC   H8X24456   3.465   6.611   4.341 -0.1074  0.7588  0.0853
  197DOPC   H8Y24457   3.339   6.690   4.433 -2.6221 -0.0735 -2.2598
  197DOPC   C3924458   3.535   6.806   4.406 -0.2724 -0.2186 -0.1823
  197DOPC   H9X24459   3.629   6.809   4.347 -0.6345  2.8668 -0.7297
  197DOPC  C31024460   3.535   6.893   4.512 -0.4395  0.1571  0.3235
  197DOPC  H10X24461   3.632   6.943   4.529 -1.3283  1.6311  1.2363
  197DOPC  C31124462   3.421   6.919   4.609  0.1690  0.7895 -0.9383
  197DOPC  H11X24463   3.431   6.854   4.699  1.4798  2.1627 -0.0524
  197DOPC  H11Y24464   3.322   6.894   4.564 -0.0214 -0.1697 -0.0243
  197DOPC  C31224465   3.415   7.066   4.659  0.0633 -0.5814 -0.9488
  197DOPC  H12X24466   3.356   7.113   4.577 -0.4164 -1.1632 -0.9472
  197DOPC  H12Y24467   3.515   7.115   4.658 -0.3287  0.2467 -1.3650
  197DOPC  C31324468   3.352   7.083   4.798 -0.0370 -0.0696 -0.3588
  197DOPC  H13X24469   3.250   7.040   4.800  0.3347 -1.0141 -0.5208
  197DOPC  H13Y24470   3.408   7.027   4.876  0.6826  0.0412 -0.7863
  197DOPC  C31424471   3.339   7.224   4.838 -0.3039  0.4404 -0.0744
  197DOPC  H14X24472   3.280   7.237   4.931 -0.8382 -1.1670 -0.1448
  197DOPC  H14Y24473   3.443   7.256   4.858  0.2511 -1.3059  0.0166
  197DOPC  C31524474   3.266   7.299   4.731  0.0848  1.1718  0.2756
  197DOPC  H15X24475   3.191   7.225   4.696 -1.4701  1.0878  3.4531
  197DOPC  H15Y24476   3.335   7.326   4.648  0.8314 -0.6953  0.2524
  197DOPC  C31624477   3.209   7.429   4.780  0.6541 -0.4799 -0.3677
  197DOPC  H16X24478   3.156   7.423   4.878 -1.1948  0.2814 -1.2777
  197DOPC  H16Y24479   3.299   7.492   4.799  0.3965 -0.5574  1.2336
  197DOPC  C31724480   3.115   7.498   4.679 -0.3488 -0.2654  0.0550
  197DOPC  H17X24481   3.090   7.599   4.717 -2.1576 -0.5821 -0.1597
  197DOPC  H17Y24482   3.158   7.509   4.578 -1.0914  0.1360 -0.2228
  197DOPC  C31824483   2.984   7.421   4.689  0.4834 -0.1069  0.0929
  197DOPC  H18X24484   3.011   7.331   4.630  3.8671  0.9043 -0.1188
  197DOPC  H18Y24485   2.967   7.384   4.792  3.0190 -1.3311  0.1387
  197DOPC  H18Z24486   2.900   7.469   4.633  0.6528  3.1380  2.3338
  198DOPC     N24487   6.049   7.538   3.600 -0.1355 -0.0060 -0.5394
  198DOPC   C1224488   5.991   7.611   3.719  0.6748 -0.4893 -0.3927
  198DOPC  H12A24489   6.034   7.564   3.806  2.1666  1.5878  0.0636
  198DOPC  H12B24490   5.885   7.591   3.725  0.7965 -1.4019 -0.9809
  198DOPC   C1324491   6.197   7.565   3.591  0.0814 -0.2127 -0.0905
  198DOPC  H13A24492   6.240   7.516   3.505  0.0989  1.4430 -1.0851
  198DOPC  H13B24493   6.219   7.671   3.592 -2.2968  0.3738 -1.8358
  198DOPC  H13C24494   6.245   7.523   3.678 -1.8493  0.3551  1.3179
  198DOPC   C1424495   5.989   7.589   3.475  0.5372  0.6856 -0.2702
  198DOPC  H14A24496   6.024   7.524   3.396  0.2641 -0.1356  0.2691
  198DOPC  H14B24497   5.882   7.578   3.475  0.6522 -0.6178 -0.4346
  198DOPC  H14C24498   6.021   7.690   3.454 -0.3696  1.1275  0.4254
  198DOPC   C1524499   6.022   7.389   3.604  0.4868  0.5605  0.1726
  198DOPC  H15A24500   5.918   7.382   3.630  0.2657 -0.6329 -0.9652
  198DOPC  H15B24501   6.075   7.337   3.683  0.4751 -3.4967 -2.2441
  198DOPC  H15C24502   6.049   7.341   3.511 -0.4814  0.9511 -0.3288
  198DOPC   C1124503   6.014   7.769   3.740  0.1766 -0.2629  0.1352
  198DOPC  H11A24504   5.974   7.812   3.835  0.6201 -2.2108  1.2501
  198DOPC  H11B24505   6.120   7.799   3.749  0.0500  0.0502  0.6120
  198DOPC     P24506   5.798   7.858   3.633 -0.6731 -0.0627  0.5426
  198DOPC   O1324507   5.738   7.729   3.667  0.3329  0.1225  0.0972
  198DOPC   O1424508   5.751   7.921   3.504 -0.0641 -0.8740  0.0961
  198DOPC   O1224509   5.955   7.847   3.634 -0.1197 -0.1541 -0.6504
  198DOPC   O1124510   5.760   7.945   3.754  0.9029 -0.2446 -0.0636
  198DOPC    C124511   5.804   8.085   3.752  0.2248  0.1046 -0.6666
  198DOPC    HA24512   5.723   8.152   3.718  1.0889  0.5367 -1.9517
  198DOPC    HB24513   5.900   8.102   3.698  1.1624  0.5283  1.0348
  198DOPC    C224514   5.830   8.141   3.896  0.1688  0.1837 -0.1788
  198DOPC    HS24515   5.861   8.247   3.890 -0.0757  0.1925 -1.7557
  198DOPC   O2124516   5.917   8.053   3.974 -0.0781  0.4614 -0.5139
  198DOPC   C2124517   6.046   8.086   3.943  0.2993  0.2927  0.0230
  198DOPC   O2224518   6.078   8.169   3.858  0.4074 -0.0141  0.2582
  198DOPC   C2224519   6.141   7.994   4.006  0.0388  0.7859  0.0558
  198DOPC   H2R24520   6.228   7.977   3.940  1.0258  1.4754  1.1217
  198DOPC   H2S24521   6.093   7.895   4.022 -1.3623  1.6103  1.2637
  198DOPC    C324522   5.691   8.152   3.966  0.1766  0.6415  0.6088
  198DOPC    HX24523   5.646   8.051   3.968 -0.1220  0.7783  0.8958
  198DOPC    HY24524   5.636   8.218   3.895 -0.3947 -0.9432 -0.4719
  198DOPC   O3124525   5.709   8.212   4.099  0.3602  0.1094  0.4809
  198DOPC   C3124526   5.623   8.306   4.137  0.4859  0.6208 -0.0873
  198DOPC   O3224527   5.518   8.327   4.082  0.3457  0.6083  0.4997
  198DOPC   C3224528   5.684   8.396   4.239  0.3666  0.3502  0.1430
  198DOPC   H2X24529   5.764   8.350   4.300  1.0857  0.6134 -0.5691
  198DOPC   H2Y24530   5.727   8.484   4.187 -4.4883  1.8514 -1.9583
  198DOPC   C2324531   6.194   8.058   4.140  0.3894 -0.4306 -0.0504
  198DOPC   H3R24532   6.258   8.149   4.129  0.2648 -0.3091  0.2132
  198DOPC   H3S24533   6.259   7.981   4.188  0.7133  0.6525  1.3029
  198DOPC   C2424534   6.085   8.080   4.248  0.4814 -0.2934 -0.2180
  198DOPC   H4R24535   6.024   7.988   4.261  1.1845 -0.4903  2.0051
  198DOPC   H4S24536   6.014   8.157   4.212 -1.2639 -1.4675  0.5794
  198DOPC   C2524537   6.143   8.114   4.391 -0.3130 -0.8797  0.4960
  198DOPC   H5R24538   6.192   8.212   4.374  0.0175 -0.9588  1.0002
  198DOPC   H5S24539   6.219   8.043   4.429  0.3752 -0.8406 -0.7412
  198DOPC   C2624540   6.021   8.118   4.486  0.1569 -0.0679 -0.4087
  198DOPC   H6R24541   5.957   8.027   4.483  2.2192 -1.6208  0.4691
  198DOPC   H6S24542   5.955   8.205   4.462  0.1828  0.1261  0.2035
  198DOPC   C2724543   6.067   8.127   4.632  0.1950 -0.1977 -0.2792
  198DOPC   H7R24544   6.136   8.212   4.649 -0.4652  0.3725 -0.4159
  198DOPC   H7S24545   6.129   8.044   4.672  1.6241  0.7750 -0.4182
  198DOPC   C2824546   5.948   8.144   4.731  0.2500 -0.4389  0.0794
  198DOPC   H8R24547   5.883   8.062   4.695  0.8825  0.0138 -2.2791
  198DOPC   H8S24548   5.888   8.231   4.697 -0.9517 -1.0465  0.5733
  198DOPC   C2924549   5.969   8.135   4.887 -0.4118  0.1373  0.2434
  198DOPC   H9R24550   5.999   8.033   4.917  1.4847 -0.3369 -2.7981
  198DOPC  C21024551   5.948   8.227   4.978 -0.2465  0.4387  0.0784
  198DOPC  H10R24552   5.977   8.204   5.082  0.1469  2.2553  0.4016
  198DOPC  C21124553   5.901   8.362   4.948  0.1695 -0.2196 -0.3320
  198DOPC  H11R24554   5.790   8.366   4.935  0.1862  0.7516 -0.2385
  198DOPC  H11S24555   5.930   8.402   4.848  1.2939 -1.2766 -0.4572
  198DOPC  C21224556   5.945   8.473   5.048 -0.6933  0.2220 -0.1371
  198DOPC  H12R24557   5.921   8.447   5.154 -1.2071 -2.8641 -0.9323
  198DOPC  H12S24558   5.875   8.553   5.015 -2.4807 -0.9005  0.7806
  198DOPC  C21324559   6.097   8.515   5.046  0.5911  0.3716 -0.0080
  198DOPC  H13R24560   6.132   8.535   4.943  1.6404 -0.6100  0.1342
  198DOPC  H13S24561   6.169   8.442   5.088  0.0754 -0.3521 -0.3623
  198DOPC  C21424562   6.114   8.643   5.131  0.1885 -0.6509 -0.8528
  198DOPC  H14R24563   6.110   8.621   5.240  2.0679  2.6705  0.0409
  198DOPC  H14S24564   6.031   8.712   5.105  0.8056  1.1784  1.6658
  198DOPC  C21524565   6.251   8.706   5.099 -0.5199  0.6111 -0.5612
  198DOPC  H15R24566   6.244   8.815   5.117 -0.2548  0.2112  2.5363
  198DOPC  H15S24567   6.266   8.679   4.992  0.5518 -1.0043 -0.0510
  198DOPC  C21624568   6.360   8.659   5.197 -0.3121 -0.0266 -0.2844
  198DOPC  H16R24569   6.465   8.682   5.172  0.1556  0.3560  1.8123
  198DOPC  H16S24570   6.353   8.548   5.201  1.1364 -0.1286  0.1289
  198DOPC  C21724571   6.350   8.708   5.345  0.0541 -0.0359  0.6696
  198DOPC  H17R24572   6.264   8.658   5.393  0.0699 -0.7446 -0.0179
  198DOPC  H17S24573   6.333   8.817   5.341 -1.7777 -0.3278 -0.3955
  198DOPC  C21824574   6.473   8.678   5.432  0.1680 -0.4330  0.0094
  198DOPC  H18R24575   6.568   8.709   5.382 -0.2444  1.3075  0.2343
  198DOPC  H18S24576   6.463   8.568   5.444 -1.9515 -0.0713  2.3918
  198DOPC  H18T24577   6.459   8.722   5.533 -1.0314 -0.3677 -0.1770
  198DOPC   C3324578   5.588   8.466   4.339  0.1780 -0.2136 -0.0910
  198DOPC   H3X24579   5.533   8.390   4.399 -1.1049  1.7889  1.3675
  198DOPC   H3Y24580   5.514   8.532   4.290 -2.0758 -0.2087  3.0196
  198DOPC   C3424581   5.661   8.564   4.422  0.2780 -0.2600 -0.4727
  198DOPC   H4X24582   5.727   8.629   4.360  2.5645  0.3581  2.3525
  198DOPC   H4Y24583   5.734   8.515   4.490 -1.2863 -1.1644  0.6084
  198DOPC   C3524584   5.568   8.653   4.508  0.5158 -0.1332 -0.2953
  198DOPC   H5X24585   5.491   8.586   4.553 -0.7842 -0.9122 -3.4501
  198DOPC   H5Y24586   5.515   8.726   4.444  1.4275  0.9407  0.1484
  198DOPC   C3624587   5.651   8.721   4.626  0.5114 -0.2370  0.4657
  198DOPC   H6X24588   5.581   8.758   4.704  0.3620  0.3661  0.0489
  198DOPC   H6Y24589   5.721   8.649   4.675  0.9439  1.2627  2.1616
  198DOPC   C3724590   5.739   8.825   4.567  0.0496  0.0532  0.7752
  198DOPC   H7X24591   5.818   8.795   4.496  1.0306  0.3017  1.7404
  198DOPC   H7Y24592   5.671   8.887   4.504 -1.6995 -1.2109  1.3187
  198DOPC   C3824593   5.808   8.909   4.675 -0.1253 -0.2254  0.4452
  198DOPC   H8X24594   5.883   8.844   4.725  0.6176 -1.2347 -1.8588
  198DOPC   H8Y24595   5.739   8.952   4.751  1.1100 -0.2157  1.5840
  198DOPC   C3924596   5.882   9.029   4.612  0.0602 -0.2784  0.1975
  198DOPC   H9X24597   5.821   9.094   4.548 -1.8853 -0.8978  1.3422
  198DOPC  C31024598   6.015   9.056   4.619 -0.5094 -0.6900 -0.1557
  198DOPC  H10X24599   6.053   9.132   4.549  0.1972 -1.2375 -0.3709
  198DOPC  C31124600   6.113   8.988   4.705  0.4110  0.2032  0.8858
  198DOPC  H11X24601   6.203   8.962   4.646 -0.4694 -2.2627  0.5117
  198DOPC  H11Y24602   6.075   8.892   4.745 -0.3420 -0.7373 -1.8589
  198DOPC  C31224603   6.170   9.079   4.808  1.2928  0.1269  0.0379
  198DOPC  H12X24604   6.085   9.091   4.878  1.6954 -2.1205  0.9943
  198DOPC  H12Y24605   6.190   9.185   4.782 -3.0134  1.1331  0.1106
  198DOPC  C31324606   6.273   9.001   4.893 -0.2454  0.1834  0.7289
  198DOPC  H13X24607   6.219   8.909   4.921 -0.7315  0.1113 -0.3773
  198DOPC  H13Y24608   6.364   8.977   4.833 -0.6304  0.5617 -0.0232
  198DOPC  C31424609   6.334   9.078   5.012  0.5422 -0.2334  0.2123
  198DOPC  H14X24610   6.397   9.001   5.062 -0.3080 -1.0059  0.1297
  198DOPC  H14Y24611   6.401   9.161   4.982 -0.1697 -0.2266 -1.4353
  198DOPC  C31524612   6.235   9.128   5.116 -0.5022 -0.3447  0.1896
  198DOPC  H15X24613   6.173   9.036   5.129  0.5213 -1.1269 -0.3213
  198DOPC  H15Y24614   6.167   9.211   5.088 -1.1646 -0.7674  0.5160
  198DOPC  C31624615   6.296   9.155   5.253  0.3588  0.3367 -0.2375
  198DOPC  H16X24616   6.220   9.122   5.328  0.2724 -0.7349 -0.7755
  198DOPC  H16Y24617   6.384   9.093   5.282  0.3800  0.3730 -0.2247
  198DOPC  C31724618   6.327   9.301   5.291 -0.3997  0.0750  0.9559
  198DOPC  H17X24619   6.405   9.347   5.228 -2.3457  0.3567 -1.4006
  198DOPC  H17Y24620   6.243   9.370   5.273 -0.2331 -0.1353 -0.7706
  198DOPC  C31824621   6.379   9.322   5.433 -0.4844 -0.2514 -0.0465
  198DOPC  H18X24622   6.326   9.244   5.492  0.9162 -2.6473 -1.7250
  198DOPC  H18Y24623   6.489   9.302   5.429 -0.7583 -2.9616  2.2752
  198DOPC  H18Z24624   6.351   9.424   5.466  1.6982  0.5051 -0.3585
  199DOPC     N24625   5.994   1.513   3.511  0.0035  0.8266 -0.1252
  199DOPC   C1224626   5.965   1.646   3.443  0.2612 -0.6480  0.5594
  199DOPC  H12A24627   5.900   1.630   3.359 -0.1358  3.7124 -0.2065
  199DOPC  H12B24628   6.057   1.695   3.414 -0.2457  0.5139  0.8403
  199DOPC   C1324629   5.881   1.418   3.534  0.3670  0.6361  0.1314
  199DOPC  H13A24630   5.823   1.415   3.443 -0.3405  3.1633  0.4114
  199DOPC  H13B24631   5.912   1.317   3.555  0.0497  0.3940 -0.5628
  199DOPC  H13C24632   5.810   1.453   3.608  0.6470  0.5421  0.4492
  199DOPC   C1424633   6.060   1.537   3.645  0.2628  0.6713 -0.3140
  199DOPC  H14A24634   6.164   1.562   3.641  0.5302 -0.3760 -0.2816
  199DOPC  H14B24635   6.007   1.615   3.698  1.6921  0.5701  1.3462
  199DOPC  H14C24636   6.051   1.447   3.704 -0.8709  2.1229  1.8567
  199DOPC   C1524637   6.095   1.442   3.418 -0.3749 -0.5550 -0.1521
  199DOPC  H15A24638   6.145   1.352   3.450  0.6131 -0.1904 -0.5936
  199DOPC  H15B24639   6.177   1.503   3.382 -0.7364 -0.9652 -1.7410
  199DOPC  H15C24640   6.050   1.416   3.323  0.2673  4.1350 -2.0529
  199DOPC   C1124641   5.890   1.748   3.530  0.7395  0.0144 -0.3409
  199DOPC  H11A24642   5.958   1.770   3.616  0.0793 -1.1297  0.5081
  199DOPC  H11B24643   5.871   1.841   3.472  0.0233  0.0412 -0.0742
  199DOPC     P24644   5.636   1.693   3.509  0.3592  0.1947 -0.1260
  199DOPC   O1324645   5.561   1.571   3.541 -0.2513  0.5640 -0.2898
  199DOPC   O1424646   5.671   1.707   3.366  0.2397  0.0565 -0.1095
  199DOPC   O1224647   5.770   1.697   3.585 -0.4039  0.4929  0.0531
  199DOPC   O1124648   5.555   1.822   3.546 -0.6125  0.4207 -0.2737
  199DOPC    C124649   5.614   1.938   3.600  0.3318  0.6997 -0.4867
  199DOPC    HA24650   5.545   2.020   3.572 -1.5467 -1.2847 -1.9353
  199DOPC    HB24651   5.717   1.963   3.565  0.5858  1.1576  0.5594
  199DOPC    C224652   5.617   1.943   3.759  0.3764  0.7659  0.6648
  199DOPC    HS24653   5.704   1.877   3.781  0.5365  0.8249  0.2332
  199DOPC   O2124654   5.499   1.886   3.812 -0.1979 -0.0291 -0.2899
  199DOPC   C2124655   5.509   1.788   3.901 -0.2483  0.1098 -0.0499
  199DOPC   O2224656   5.609   1.726   3.928 -0.1369  0.4441 -0.3836
  199DOPC   C2224657   5.378   1.780   3.975 -0.1429  0.5812  0.0427
  199DOPC   H2R24658   5.351   1.672   3.969  2.1349  0.0044 -0.7451
  199DOPC   H2S24659   5.305   1.843   3.921  0.2700  0.2401 -0.9359
  199DOPC    C324660   5.642   2.085   3.825 -0.1474  0.0955 -0.1221
  199DOPC    HX24661   5.560   2.153   3.793 -0.8388 -0.2645  0.8464
  199DOPC    HY24662   5.737   2.129   3.789 -0.0672 -0.2878 -0.3843
  199DOPC   O3124663   5.636   2.075   3.969 -0.2774 -0.4395  0.6293
  199DOPC   C3124664   5.749   2.052   4.035  0.0715  0.2969  0.0099
  199DOPC   O3224665   5.858   2.039   3.987  0.8202 -0.1285 -0.4113
  199DOPC   C3224666   5.712   2.033   4.182  0.2018  0.0073  0.0359
  199DOPC   H2X24667   5.619   1.974   4.197  1.4417 -1.8909  0.6343
  199DOPC   H2Y24668   5.789   1.960   4.216 -1.1361 -0.5417  2.0753
  199DOPC   C2324669   5.393   1.826   4.125  0.5367 -0.3450 -0.5025
  199DOPC   H3R24670   5.293   1.838   4.171  1.6591  2.8101  1.4135
  199DOPC   H3S24671   5.432   1.930   4.120 -0.0976  0.0813  2.0558
  199DOPC   C2424672   5.474   1.737   4.217  0.1871  0.5952  0.2550
  199DOPC   H4R24673   5.581   1.727   4.187 -0.0021  0.8067 -0.5242
  199DOPC   H4S24674   5.441   1.631   4.211 -0.1806  0.7827 -1.4420
  199DOPC   C2524675   5.459   1.793   4.362  0.2818  0.4429  0.2320
  199DOPC   H5R24676   5.358   1.767   4.399  0.7038 -0.0396  1.0672
  199DOPC   H5S24677   5.462   1.903   4.347  0.3676  0.1872 -2.0863
  199DOPC   C2624678   5.566   1.745   4.459 -0.2434  0.3352 -1.0083
  199DOPC   H6R24679   5.559   1.801   4.554 -3.0113 -0.4861 -0.6512
  199DOPC   H6S24680   5.664   1.779   4.420  0.2087  0.8614  0.5105
  199DOPC   C2724681   5.560   1.595   4.496  0.3234 -0.1698 -0.2321
  199DOPC   H7R24682   5.655   1.567   4.546 -1.6339 -2.1266  2.6515
  199DOPC   H7S24683   5.541   1.537   4.402 -3.4384 -2.4812  1.6897
  199DOPC   C2824684   5.449   1.554   4.585 -0.2763 -1.4620 -1.0256
  199DOPC   H8R24685   5.354   1.554   4.527 -0.5546 -1.8420 -0.5871
  199DOPC   H8S24686   5.436   1.638   4.657 -1.4357 -0.4299 -2.3810
  199DOPC   C2924687   5.466   1.421   4.657  0.1414 -0.8333 -0.5647
  199DOPC   H9R24688   5.475   1.334   4.590 -0.8278 -0.6293 -0.9874
  199DOPC  C21024689   5.463   1.398   4.793 -0.1130  1.1255 -0.2717
  199DOPC  H10R24690   5.454   1.294   4.827 -0.9860  1.3257  0.1542
  199DOPC  C21124691   5.445   1.505   4.902  0.3677 -0.1501  0.3675
  199DOPC  H11R24692   5.365   1.474   4.973  1.5185  1.2255  2.3692
  199DOPC  H11S24693   5.399   1.597   4.858  0.4108 -0.4237 -0.2528
  199DOPC  C21224694   5.579   1.542   4.970 -0.5037  0.3541 -0.4192
  199DOPC  H12R24695   5.657   1.550   4.890 -0.2980 -1.4189 -0.4244
  199DOPC  H12S24696   5.607   1.454   5.032 -1.1010 -0.0114 -0.6639
  199DOPC  C21324697   5.569   1.681   5.050  0.8984  0.0882  0.5609
  199DOPC  H13R24698   5.562   1.767   4.980  1.9729 -1.4004 -1.4832
  199DOPC  H13S24699   5.664   1.694   5.107  2.2393 -0.4583 -1.4638
  199DOPC  C21424700   5.449   1.687   5.149 -0.2592 -0.6833  0.4963
  199DOPC  H14R24701   5.351   1.645   5.119 -0.4227 -1.3599  1.8734
  199DOPC  H14S24702   5.433   1.794   5.175 -1.4124 -0.9292  0.8830
  199DOPC  C21524703   5.493   1.618   5.280 -0.2651  0.1588 -0.8644
  199DOPC  H15R24704   5.578   1.678   5.318 -0.9547  1.6640 -1.6218
  199DOPC  H15S24705   5.533   1.516   5.261 -2.0057 -0.6854 -0.2289
  199DOPC  C21624706   5.371   1.619   5.381 -0.2255  0.1785  0.3568
  199DOPC  H16R24707   5.288   1.561   5.337  1.2244 -1.5344 -0.2556
  199DOPC  H16S24708   5.334   1.724   5.382  0.0765  0.3278 -1.0313
  199DOPC  C21724709   5.411   1.566   5.513 -0.5267 -0.3687  0.5182
  199DOPC  H17R24710   5.485   1.628   5.568 -1.3986  0.4903  0.7662
  199DOPC  H17S24711   5.460   1.468   5.501 -0.8399 -0.6953  1.7282
  199DOPC  C21824712   5.302   1.551   5.613 -0.0807 -0.2871 -0.2086
  199DOPC  H18R24713   5.218   1.491   5.571 -0.2002 -1.1771  1.2556
  199DOPC  H18S24714   5.261   1.647   5.649  1.1407  0.3664 -0.5103
  199DOPC  H18T24715   5.339   1.498   5.704 -0.8688  2.2248  1.6716
  199DOPC   C3324716   5.704   2.161   4.269  0.0645  0.4005  0.2338
  199DOPC   H3X24717   5.606   2.208   4.245 -0.0974  0.3946  0.8406
  199DOPC   H3Y24718   5.787   2.230   4.245  0.1556  0.1778 -0.0916
  199DOPC   C3424719   5.721   2.139   4.422 -0.2507 -0.0056  0.4304
  199DOPC   H4X24720   5.824   2.102   4.442  0.4571  1.2598 -0.7171
  199DOPC   H4Y24721   5.651   2.062   4.463  0.2963 -1.2312 -0.8664
  199DOPC   C3524722   5.718   2.263   4.512  0.3193  0.5910  0.6021
  199DOPC   H5X24723   5.613   2.297   4.517  0.8452  2.1993  1.2044
  199DOPC   H5Y24724   5.786   2.340   4.471 -0.6415 -0.9385 -4.4955
  199DOPC   C3624725   5.761   2.234   4.661 -0.2614 -0.1235 -0.5178
  199DOPC   H6X24726   5.853   2.172   4.665  0.9391  1.6517  0.9096
  199DOPC   H6Y24727   5.774   2.328   4.717 -0.1299 -0.1316 -0.5363
  199DOPC   C3724728   5.656   2.149   4.741 -0.2944  0.3979 -0.2102
  199DOPC   H7X24729   5.629   2.057   4.685 -0.0491 -0.3077  0.8140
  199DOPC   H7Y24730   5.703   2.127   4.839  0.3565  0.7312 -0.4400
  199DOPC   C3824731   5.531   2.226   4.785  0.0080  0.0589 -0.2263
  199DOPC   H8X24732   5.473   2.245   4.691  1.8614 -0.0847 -1.4542
  199DOPC   H8Y24733   5.562   2.325   4.824  0.1476  0.0852 -0.4023
  199DOPC   C3924734   5.457   2.137   4.883 -0.2254  0.2582 -0.3477
  199DOPC   H9X24735   5.459   2.161   4.990  0.5081  0.4537 -0.3958
  199DOPC  C31024736   5.369   2.043   4.848 -0.5673 -0.0778 -0.0701
  199DOPC  H10X24737   5.305   1.997   4.925 -0.4095 -0.5575 -0.2221
  199DOPC  C31124738   5.332   2.005   4.705 -0.8757  0.1624 -0.0846
  199DOPC  H11X24739   5.407   1.933   4.667 -1.4033 -0.3621 -0.1334
  199DOPC  H11Y24740   5.337   2.083   4.627 -1.3811 -0.3161 -0.5948
  199DOPC  C31224741   5.197   1.930   4.709 -0.9501 -1.0492  0.0611
  199DOPC  H12X24742   5.118   1.993   4.756 -1.4252 -1.1771 -0.5540
  199DOPC  H12Y24743   5.209   1.842   4.775  0.5904  1.0485  2.8448
  199DOPC  C31324744   5.143   1.885   4.572  0.1527  0.0599 -0.5355
  199DOPC  H13X24745   5.133   1.971   4.501 -0.6457  1.1609  0.8631
  199DOPC  H13Y24746   5.198   1.794   4.539  2.3237  0.7385  1.0233
  199DOPC  C31424747   4.998   1.834   4.586  0.3462  0.3918 -0.7253
  199DOPC  H14X24748   4.966   1.783   4.492  1.3474  0.9949 -1.4033
  199DOPC  H14Y24749   5.005   1.754   4.664  1.7247  0.4142 -0.8098
  199DOPC  C31524750   4.890   1.937   4.623  0.4573 -0.3187 -0.2107
  199DOPC  H15X24751   4.917   2.022   4.557  0.1528 -0.9028 -1.1271
  199DOPC  H15Y24752   4.906   1.973   4.726  1.3558  1.1445 -0.8236
  199DOPC  C31624753   4.744   1.897   4.582 -0.1848  0.5918 -0.2753
  199DOPC  H16X24754   4.754   1.854   4.480 -1.8281 -0.1646 -0.1581
  199DOPC  H16Y24755   4.703   1.824   4.655  0.3544 -0.4525 -0.9801
  199DOPC  C31724756   4.641   2.013   4.561 -0.0584 -0.5147  0.3968
  199DOPC  H17X24757   4.674   2.058   4.464  1.3697 -1.5644  0.3562
  199DOPC  H17Y24758   4.540   1.969   4.550  0.2149 -1.1627  0.4222
  199DOPC  C31824759   4.638   2.114   4.677 -0.6317  0.4145  0.0290
  199DOPC  H18X24760   4.738   2.157   4.697 -0.8057  0.7189  0.2489
  199DOPC  H18Y24761   4.575   2.200   4.646 -1.0854  0.2434  0.4571
  199DOPC  H18Z24762   4.599   2.070   4.771 -1.5028 -1.9372 -1.3392
  200DOPC     N24763   1.193   7.456   2.729  0.3511  0.1203 -0.1534
  200DOPC   C1224764   1.120   7.409   2.848  0.0544 -0.4513 -0.1953
  200DOPC  H12A24765   1.042   7.340   2.819 -1.1117  0.2802  1.0664
  200DOPC  H12B24766   1.068   7.496   2.884 -0.4454 -1.0658  0.6226
  200DOPC   C1324767   1.105   7.558   2.661 -0.1270  0.0368 -0.1302
  200DOPC  H13A24768   1.008   7.519   2.635 -0.0750 -0.6297  0.6286
  200DOPC  H13B24769   1.090   7.642   2.727 -1.4668 -1.1526  1.1538
  200DOPC  H13C24770   1.145   7.594   2.568  0.4156  1.6694  0.7020
  200DOPC   C1424771   1.215   7.349   2.628  0.3108 -0.2129 -0.3531
  200DOPC  H14A24772   1.265   7.267   2.677 -2.7608 -1.9395  0.2020
  200DOPC  H14B24773   1.116   7.314   2.600  0.7242 -0.2786 -1.8299
  200DOPC  H14C24774   1.276   7.382   2.545 -0.5057  4.5894  0.6637
  200DOPC   C1524775   1.319   7.518   2.771  0.2711  0.0839  0.1470
  200DOPC  H15A24776   1.378   7.549   2.686  0.9864 -1.3167  0.1069
  200DOPC  H15B24777   1.390   7.450   2.815  0.5817 -0.0363 -0.5209
  200DOPC  H15C24778   1.307   7.592   2.849 -1.2444 -1.1389  1.1303
  200DOPC   C1124779   1.203   7.344   2.963  0.1354  0.2044 -0.6936
  200DOPC  H11A24780   1.290   7.409   2.985 -1.8784  2.5231  1.0677
  200DOPC  H11B24781   1.148   7.353   3.059 -2.9594  1.4006 -2.4358
  200DOPC     P24782   1.153   7.083   2.962 -0.2548 -0.1846  0.0783
  200DOPC   O1324783   1.211   6.969   2.892 -0.3485  0.5839 -0.0506
  200DOPC   O1424784   1.013   7.117   2.923  0.1769 -0.7755  0.0093
  200DOPC   O1224785   1.242   7.212   2.931  0.3487 -0.1021  0.0153
  200DOPC   O1124786   1.173   7.062   3.115  0.2658  0.1164 -0.4736
  200DOPC    C124787   1.299   7.029   3.182 -0.1190 -0.4716  0.5380
  200DOPC    HA24788   1.384   7.050   3.114  1.9641 -3.5620  1.9168
  200DOPC    HB24789   1.306   6.919   3.199  0.4955 -0.4620  0.3856
  200DOPC    C224790   1.315   7.099   3.320 -0.2446  0.1290 -0.2928
  200DOPC    HS24791   1.420   7.103   3.358 -0.6584  0.8484  0.8107
  200DOPC   O2124792   1.223   7.044   3.412  0.5803 -0.4253 -0.0697
  200DOPC   C2124793   1.276   6.973   3.509 -0.0114  0.2851 -0.3021
  200DOPC   O2224794   1.387   6.923   3.499 -1.1431  0.1969 -0.0534
  200DOPC   C2224795   1.194   6.995   3.634  0.4553  0.0479  0.1327
  200DOPC   H2R24796   1.094   6.947   3.623  0.6644 -0.3119 -0.2632
  200DOPC   H2S24797   1.172   7.103   3.646  0.2845 -0.0962  1.2437
  200DOPC    C324798   1.282   7.246   3.294  0.0588  0.1836  0.5511
  200DOPC    HX24799   1.182   7.252   3.245  0.1070 -1.6946  0.1336
  200DOPC    HY24800   1.348   7.280   3.212 -3.1924  1.7352 -1.6030
  200DOPC   O3124801   1.299   7.320   3.415 -0.0043  0.0922 -0.0822
  200DOPC   C3124802   1.212   7.405   3.453 -0.0212 -0.2058 -0.3689
  200DOPC   O3224803   1.117   7.450   3.390 -0.3598  0.8721 -0.5342
  200DOPC   C3224804   1.234   7.456   3.599  0.0433  0.3800  0.2599
  200DOPC   H2X24805   1.309   7.386   3.641  0.7303 -0.1759 -1.7923
  200DOPC   H2Y24806   1.281   7.557   3.594  1.2530 -0.1046  1.2269
  200DOPC   C2324807   1.264   6.939   3.764  0.5922 -0.7393  0.4380
  200DOPC   H3R24808   1.263   6.829   3.749 -1.4205 -0.6311 -0.4275
  200DOPC   H3S24809   1.202   6.955   3.854 -0.3928  1.1575 -0.5244
  200DOPC   C2424810   1.399   7.009   3.794  0.2934  0.0676  0.4640
  200DOPC   H4R24811   1.381   7.118   3.811  0.1185  0.0490  0.4024
  200DOPC   H4S24812   1.472   6.985   3.714 -0.4524  0.1244 -0.2424
  200DOPC   C2524813   1.460   6.950   3.921 -0.3721  0.3295  0.2800
  200DOPC   H5R24814   1.568   6.973   3.930  0.6955 -3.8426  0.1713
  200DOPC   H5S24815   1.452   6.840   3.915  0.6828  0.0170  3.1891
  200DOPC   C2624816   1.394   6.996   4.047  0.2272 -0.1405 -0.0546
  200DOPC   H6R24817   1.302   6.936   4.065  1.6838 -3.0997 -1.6457
  200DOPC   H6S24818   1.380   7.105   4.038 -0.7032 -0.2939 -0.6102
  200DOPC   C2724819   1.475   6.967   4.181 -0.2862  0.9493  0.3344
  200DOPC   H7R24820   1.554   7.045   4.188  0.2638  0.2568  2.9954
  200DOPC   H7S24821   1.520   6.866   4.170  0.8197  1.6116 -1.9147
  200DOPC   C2824822   1.387   6.959   4.305 -0.3006  0.6037  0.4912
  200DOPC   H8R24823   1.312   7.041   4.300 -2.5470 -1.4050 -0.2844
  200DOPC   H8S24824   1.453   6.967   4.394 -0.0388 -2.1112  0.5968
  200DOPC   C2924825   1.312   6.830   4.320 -0.1493 -0.4944 -0.0467
  200DOPC   H9R24826   1.252   6.811   4.229 -1.1382  1.6957  0.0972
  200DOPC  C21024827   1.315   6.738   4.424 -0.2402 -0.3753  0.4498
  200DOPC  H10R24828   1.270   6.639   4.406  3.9251 -2.3473 -0.0944
  200DOPC  C21124829   1.373   6.757   4.568 -0.2465  0.0185 -1.3042
  200DOPC  H11R24830   1.431   6.851   4.573  0.2949 -0.3912  2.0189
  200DOPC  H11S24831   1.441   6.670   4.586 -0.5151 -0.3336 -1.9393
  200DOPC  C21224832   1.267   6.752   4.676 -0.0226 -1.0745 -0.6843
  200DOPC  H12R24833   1.321   6.726   4.769  2.1515  2.0659 -0.8735
  200DOPC  H12S24834   1.194   6.670   4.662 -0.3008 -0.9126 -0.1966
  200DOPC  C21324835   1.195   6.886   4.707 -0.7276 -0.0686 -0.1854
  200DOPC  H13R24836   1.104   6.859   4.764 -1.5124 -1.1609 -1.8906
  200DOPC  H13S24837   1.163   6.926   4.609 -0.5400 -0.4753 -0.4167
  200DOPC  C21424838   1.272   6.998   4.786  0.4451 -0.0511 -0.8636
  200DOPC  H14R24839   1.377   7.002   4.750  0.5666  2.3419 -0.3976
  200DOPC  H14S24840   1.274   6.959   4.891 -0.9422 -2.1783 -1.5409
  200DOPC  C21524841   1.226   7.147   4.772 -0.4563 -0.1479 -0.1017
  200DOPC  H15R24842   1.294   7.206   4.836  0.1753 -1.0004  0.0352
  200DOPC  H15S24843   1.116   7.155   4.784 -0.4616  0.6587 -0.5949
  200DOPC  C21624844   1.234   7.203   4.626  0.2523 -0.1592 -0.0133
  200DOPC  H16R24845   1.161   7.158   4.555  2.4666  0.5051 -2.9217
  200DOPC  H16S24846   1.329   7.163   4.585  0.5071 -0.1039  0.5217
  200DOPC  C21724847   1.233   7.357   4.607  0.4159  0.2528 -0.4778
  200DOPC  H17R24848   1.316   7.409   4.660 -0.3629  1.7864 -0.7125
  200DOPC  H17S24849   1.137   7.394   4.650 -0.1646 -1.0556 -0.6192
  200DOPC  C21824850   1.240   7.401   4.455  0.6400  0.1364 -0.7736
  200DOPC  H18R24851   1.149   7.354   4.411  0.6572 -0.9794  0.3475
  200DOPC  H18S24852   1.325   7.360   4.397  0.5574 -1.5969  0.2638
  200DOPC  H18T24853   1.235   7.511   4.443  1.1115  0.3136  0.5214
  200DOPC   C3324854   1.103   7.465   3.683  0.0105  0.3997  0.1170
  200DOPC   H3X24855   1.062   7.364   3.705  0.9232 -0.0929 -0.3762
  200DOPC   H3Y24856   1.027   7.520   3.624  0.0704  0.4422  0.0792
  200DOPC   C3424857   1.118   7.544   3.822 -0.1880 -0.2042 -0.4589
  200DOPC   H4X24858   1.019   7.544   3.872 -1.9186 -2.5650 -3.4795
  200DOPC   H4Y24859   1.140   7.650   3.800  0.5590 -0.5157 -1.3009
  200DOPC   C3524860   1.229   7.482   3.919  0.1532 -0.4784  0.1795
  200DOPC   H5X24861   1.273   7.569   3.971  1.9427 -0.9836 -0.4038
  200DOPC   H5Y24862   1.309   7.430   3.861 -1.8177 -0.6548 -2.5869
  200DOPC   C3624863   1.184   7.382   4.027 -0.2968 -1.0649 -0.1243
  200DOPC   H6X24864   1.272   7.337   4.079 -1.1243  0.1069  2.4926
  200DOPC   H6Y24865   1.136   7.444   4.106  0.5241 -0.4450 -0.0988
  200DOPC   C3724866   1.072   7.284   3.984 -0.1429 -0.6639 -0.6145
  200DOPC   H7X24867   0.993   7.337   3.927  0.0623  1.9075  1.2991
  200DOPC   H7Y24868   1.120   7.200   3.929  0.2540 -0.1993 -0.9792
  200DOPC   C3824869   1.008   7.219   4.111 -0.3575  0.2155  0.5241
  200DOPC   H8X24870   1.086   7.177   4.177 -1.2341 -2.3495  0.0118
  200DOPC   H8Y24871   0.940   7.139   4.076  0.3821  0.3520 -1.3571
  200DOPC   C3924872   0.907   7.310   4.175  0.6078 -0.2697 -0.0890
  200DOPC   H9X24873   0.861   7.394   4.119 -0.5349 -0.0732  1.1035
  200DOPC  C31024874   0.863   7.299   4.301 -0.2692  0.2008  0.9389
  200DOPC  H10X24875   0.787   7.371   4.335 -0.7596  1.0427 -1.7055
  200DOPC  C31124876   0.906   7.187   4.398 -0.3234  0.4157 -0.7194
  200DOPC  H11X24877   1.013   7.207   4.421 -0.4006  0.3115 -0.2629
  200DOPC  H11Y24878   0.909   7.085   4.353  0.9836  0.6190 -1.1611
  200DOPC  C31224879   0.811   7.173   4.522 -0.1118  0.1726 -0.4878
  200DOPC  H12X24880   0.844   7.077   4.568 -0.3760 -0.9050 -2.4484
  200DOPC  H12Y24881   0.708   7.156   4.485 -0.3298  0.7427 -0.1639
  200DOPC  C31324882   0.827   7.285   4.631  0.4552 -0.1257  0.1442
  200DOPC  H13X24883   0.918   7.256   4.689  0.1444 -1.3849  0.0306
  200DOPC  H13Y24884   0.848   7.384   4.584 -2.2849 -0.3021 -1.6326
  200DOPC  C31424885   0.709   7.298   4.728  0.1473 -0.0287  0.8185
  200DOPC  H14X24886   0.610   7.305   4.678  0.7060  1.4705 -0.1657
  200DOPC  H14Y24887   0.711   7.215   4.801  1.9597  1.3649  2.4537
  200DOPC  C31524888   0.706   7.434   4.799 -0.5477 -0.3367 -0.0897
  200DOPC  H15X24889   0.703   7.509   4.717  0.6583  0.2437  0.3816
  200DOPC  H15Y24890   0.801   7.438   4.855 -0.9924  0.8111  0.6131
  200DOPC  C31624891   0.594   7.455   4.906 -0.5216  0.3869  0.2825
  200DOPC  H16X24892   0.492   7.454   4.861 -0.2810  1.2722 -0.3149
  200DOPC  H16Y24893   0.602   7.364   4.970 -1.6080 -0.4785 -0.7604
  200DOPC  C31724894   0.597   7.579   4.992  0.3098 -0.3989  0.2475
  200DOPC  H17X24895   0.623   7.655   4.914  1.3422  0.8625  1.7559
  200DOPC  H17Y24896   0.499   7.607   5.035  1.1851  0.4340  1.7776
  200DOPC  C31824897   0.704   7.589   5.099  0.4486 -0.6325  0.9085
  200DOPC  H18X24898   0.686   7.672   5.171 -1.9773  0.9392 -1.3321
  200DOPC  H18Y24899   0.697   7.495   5.157 -2.7832 -0.2378  1.3396
  200DOPC  H18Z24900   0.806   7.586   5.054 -0.5419 -1.1554 -1.4688
  201SOD    SOD24901   4.887   6.865   7.854 -0.2542 -0.5453 -0.0035
  202SOD    SOD24902   5.080   6.404   2.219  0.7298 -0.1886 -0.4068
  203SOD    SOD24903   6.442   1.365   7.918 -0.3466 -0.3598 -0.1569
  204SOD    SOD24904   0.299   0.708   2.759 -0.4436  0.1435  0.1284
  205SOD    SOD24905   5.813   5.745   7.249 -0.0958 -0.2921 -0.2630
  206SOD    SOD24906   0.333   7.093   1.033  0.2560 -0.7947 -0.1046
  207SOD    SOD24907   4.122   2.877   1.487 -0.2819  0.1266  0.6845
  208SOD    SOD24908   0.431   3.132   8.947 -0.0973  0.2194  0.1019
  209SOD    SOD24909   5.474   1.981   2.801  0.7063 -0.0361 -0.1223
  210SOD    SOD24910   0.950   1.299   7.020 -0.3099 -0.2062  0.2906
  211SOD    SOD24911   3.154   7.353   8.279 -0.0130  0.3717  0.0572
  212SOD    SOD24912   1.033   2.346   8.479 -0.4950  0.3714 -0.4078
  213SOD    SOD24913   6.911   0.782   3.085 -0.1313 -0.2128 -0.2030
  214SOD    SOD24914   3.377   3.723   8.563  0.2312 -0.2433  0.1852
  215SOD    SOD24915   4.902   4.864   7.370  0.1226  0.5119  0.1732
  216SOD    SOD24916   4.037   2.794   7.149  0.2918 -0.0989 -0.0744
  217SOD    SOD24917   3.326   2.868   1.805  0.3422 -0.0080  0.1768
  218SOD    SOD24918   5.454   4.401   8.844 -0.0693  0.4886 -0.1072
  219SOD    SOD24919   1.946   4.298   8.783  0.1683  0.1969  0.3126
  220SOD    SOD24920   5.070   6.983   1.442  0.1760 -0.1134  0.0751
  221SOD    SOD24921   6.297   4.292   1.069 -0.0336 -0.2265  0.0164
  222SOD    SOD24922   3.886   6.559   7.547 -0.1938 -0.3431 -0.2386
  223SOD    SOD24923   5.260   5.520   2.923 -0.1435 -0.3553 -0.2028
  224SOD    SOD24924   3.383   1.834   2.375 -0.3589 -0.6170 -0.3343
  225SOD    SOD24925   7.008   4.588   2.454 -0.2821 -0.4246 -0.1526
  226SOD    SOD24926   6.865   7.625   7.230  0.4805 -0.2033  0.4061
  227CLA    CLA24927   1.751   5.189   1.855 -0.2485  0.2069 -0.5161
  228CLA    CLA24928   5.360   1.855   1.123  0.0874  0.3646 -0.1388
  229CLA    CLA24929   5.550   3.970   1.522 -0.1648 -0.0703 -0.1448
  230CLA    CLA24930   4.489   6.621   7.948 -0.0581 -0.3345  0.0519
  231CLA    CLA24931   3.877   3.771   7.585 -0.0177  0.3894  0.2217
  232CLA    CLA24932   1.478   2.584   8.268 -0.1207 -0.3559  0.1555
  233CLA    CLA24933   1.421   1.871   8.616  0.0384  0.2417  0.1523
  234CLA    CLA24934   0.723   6.419   8.280 -0.0818 -0.5101 -0.1684
  235CLA    CLA24935   5.471   2.411   2.436  0.5630 -0.2791  0.6550
  236CLA    CLA24936   7.500   1.687   8.904 -0.0116  0.0244 -0.3752
  237CLA    CLA24937   1.062   4.260   8.896  0.5093 -0.0498 -0.1844
  238CLA    CLA24938   6.729   1.587   2.007  0.2325 -0.0837  0.1185
  239CLA    CLA24939   0.269   6.685   1.456 -0.4077 -0.1761  0.0371
  240CLA    CLA24940   2.878   6.747   8.218  0.6812  0.0608  0.2446
  241CLA    CLA24941   6.424   3.798   1.098 -0.1090 -0.4338 -0.2883
  242CLA    CLA24942   1.724   4.994   8.547 -0.1967  0.3944 -0.0088
  243CLA    CLA24943   2.478   0.322   2.068  0.4158 -0.1247  0.0094
  244CLA    CLA24944   1.592   2.506   2.587 -0.2596  0.2015 -0.1323
  245CLA    CLA24945   5.968   6.064   2.229 -0.3122 -0.3226 -0.0275
  246CLA    CLA24946   5.432   1.187   9.161 -0.0963  0.1085  0.1679
  247CLA    CLA24947   6.056   2.352   2.264  0.1396  0.3812  0.2737
  248CLA    CLA24948   2.858   2.149   2.481  0.3169  0.0309  0.3241
  249CLA    CLA24949   5.744   6.460   1.723  0.0353  0.3507  0.1081
  250CLA    CLA24950   5.469   4.654   7.498  0.4282 -0.0090 -0.5143
  251CLA    CLA24951   3.246   4.179   8.243 -0.4353 -0.1239  0.0659
  252CLA    CLA24952   6.795   0.530   2.154  0.0124 -0.3337 -0.0751
  253TIP3   OH224953   3.524   5.198   7.231 -0.1887 -0.0314  0.2903
  253TIP3    H124954   3.467   5.157   7.296 -0.4264  0.2088  0.2375
  253TIP3    H224955   3.510   5.146   7.152  0.2402 -0.4363  0.4785
  254TIP3   OH224956   0.007   4.792   9.303  0.1476  1.0174  0.3962
  254TIP3    H124957  -0.060   4.838   9.253  1.3873  1.9394 -0.4831
  254TIP3    H224958   0.050   4.860   9.355  0.6078  0.4978  0.7145
  255TIP3   OH224959   2.988   0.433   8.438 -0.1752  0.4146  0.2185
  255TIP3    H124960   3.036   0.453   8.518 -1.5586  1.2491  0.8785
  255TIP3    H224961   2.905   0.397   8.468 -0.1381 -0.6459 -0.8889
  256TIP3   OH224962   1.887   4.958   7.292 -0.2948 -0.2472 -0.0222
  256TIP3    H124963   1.920   4.955   7.203  1.2203  0.2480  0.4845
  256TIP3    H224964   1.964   4.976   7.346 -0.9383 -1.8192  1.5249
  257TIP3   OH224965   4.003   3.878   9.107  1.0066 -0.1476 -0.2776
  257TIP3    H124966   4.005   3.788   9.139 -0.7596 -0.3847 -0.7172
  257TIP3    H224967   4.063   3.879   9.033 -0.0346 -1.3738 -1.1849
  258TIP3   OH224968   3.874   5.562   8.065  0.8418 -0.0711  0.0806
  258TIP3    H124969   3.834   5.639   8.023  3.0579  1.7273  1.0266
  258TIP3    H224970   3.849   5.570   8.157  2.0044  0.2033  0.3895
  259TIP3   OH224971   3.991   3.511   7.007 -0.6001 -0.1436  0.2333
  259TIP3    H124972   3.962   3.462   6.930 -0.7547 -1.8402  1.3158
  259TIP3    H224973   4.086   3.506   7.004 -0.6063 -0.1975  0.1297
  260TIP3   OH224974   4.259   1.532   7.471  0.3612 -0.4589  0.0305
  260TIP3    H124975   4.168   1.505   7.481  0.5599 -0.5147  2.1106
  260TIP3    H224976   4.305   1.451   7.448  0.1746 -0.8364  0.9639
  261TIP3   OH224977   1.825   6.707   8.610  0.1191 -0.7436 -0.2583
  261TIP3    H124978   1.814   6.727   8.517 -1.1127 -0.2368 -0.0224
  261TIP3    H224979   1.871   6.623   8.612  0.4558 -0.5950 -1.3177
  262TIP3   OH224980   0.050   0.364   7.411  0.1574  0.2904  0.1717
  262TIP3    H124981  -0.043   0.379   7.394  0.1464 -0.3051 -0.3049
  262TIP3    H224982   0.085   0.451   7.427 -0.3214  0.6134 -0.4707
  263TIP3   OH224983   5.177   3.520   9.288  0.3569 -0.1446  0.5380
  263TIP3    H124984   5.260   3.542   9.245  1.2649 -0.9356  1.8405
  263TIP3    H224985   5.113   3.523   9.217  1.9466 -2.4267 -1.1457
  264TIP3   OH224986   6.407   4.034   8.169 -0.1342  0.1971 -0.4334
  264TIP3    H124987   6.476   3.970   8.149 -0.0566  0.3922 -0.7955
  264TIP3    H224988   6.454   4.116   8.182 -0.2395  0.1929 -0.0211
  265TIP3   OH224989   3.022   3.100   7.999 -0.5644 -0.1828  0.0769
  265TIP3    H124990   3.052   3.042   7.928  0.0119 -2.4410  2.0302
  265TIP3    H224991   3.093   3.163   8.009 -0.5988  0.1030 -1.2587
  266TIP3   OH224992   6.624   0.452   8.690  0.0983 -0.1187 -0.4813
  266TIP3    H124993   6.532   0.434   8.707  0.2810 -0.6152  0.0276
  266TIP3    H224994   6.664   0.456   8.777  0.2897  1.6128 -0.6196
  267TIP3   OH224995   3.866   3.355   9.162  0.2825 -0.9000 -0.1695
  267TIP3    H124996   3.952   3.322   9.135 -0.2519 -1.3028 -1.4540
  267TIP3    H224997   3.804   3.292   9.127 -0.8159  1.5934 -3.1744
  268TIP3   OH224998   0.711   0.888   8.804 -0.1255 -0.6097 -0.2221
  268TIP3    H124999   0.787   0.900   8.860  0.7958 -1.4004 -1.2561
  268TIP3    H225000   0.639   0.929   8.852  0.5565 -1.4623  1.6250
  269TIP3   OH225001   0.452   6.203   7.747  0.0337  0.1697 -0.5076
  269TIP3    H125002   0.499   6.251   7.679  1.5862  0.8941  1.0110
  269TIP3    H225003   0.520   6.152   7.791 -1.2231 -1.6386 -0.5797
  270TIP3   OH225004   3.389   6.867   8.438 -0.3069  0.7436 -0.4109
  270TIP3    H125005   3.297   6.851   8.459 -0.0696  1.5460  1.4201
  270TIP3    H225006   3.437   6.800   8.487  0.0864 -0.4296 -2.2773
  271TIP3   OH225007   2.288   2.275   7.515 -0.1815 -0.3265 -0.3356
  271TIP3    H125008   2.349   2.204   7.493  1.0599  0.2620  0.9958
  271TIP3    H225009   2.330   2.321   7.588 -2.0833  0.3220  0.4274
  272TIP3   OH225010   0.820   5.698   7.779 -0.2178  0.5070 -0.1951
  272TIP3    H125011   0.854   5.614   7.809  1.0601  1.2270  0.4371
  272TIP3    H225012   0.840   5.759   7.850 -1.8595  1.2045 -0.2880
  273TIP3   OH225013   3.834   3.720   8.270 -0.2235  0.1702 -0.0968
  273TIP3    H125014   3.751   3.759   8.242 -0.5937  0.4095  1.2683
  273TIP3    H225015   3.875   3.690   8.189 -0.5467  2.1760 -1.0630
  274TIP3   OH225016   1.807   1.168   9.204  0.0236 -0.1729  0.3342
  274TIP3    H125017   1.745   1.159   9.132  1.0948  1.2185 -0.8361
  274TIP3    H225018   1.812   1.263   9.219  1.3465 -0.2959  0.8251
  275TIP3   OH225019   0.468   4.323   9.020 -1.1695 -0.2293  0.5388
  275TIP3    H125020   0.491   4.401   9.070 -1.3848  0.0548  0.2014
  275TIP3    H225021   0.544   4.307   8.964 -1.3261  0.0327  0.2493
  276TIP3   OH225022   7.224   1.572   8.744 -0.3249  0.2649  0.0795
  276TIP3    H125023   7.152   1.570   8.807 -0.8977  0.2791 -0.5557
  276TIP3    H225024   7.298   1.607   8.793 -1.2516  2.0862  0.2654
  277TIP3   OH225025   3.034   4.350   7.465 -0.4476  0.2153 -0.3670
  277TIP3    H125026   2.966   4.418   7.476 -0.1195  0.6256 -0.8399
  277TIP3    H225027   3.053   4.321   7.555 -1.9478 -0.6086 -0.2868
  278TIP3   OH225028   4.662   7.401   6.913  0.0560 -0.2160 -0.2357
  278TIP3    H125029   4.625   7.324   6.870 -0.2271  1.0504 -2.3708
  278TIP3    H225030   4.750   7.409   6.876  0.2530  0.2377  0.3221
  279TIP3   OH225031   5.785   1.092   8.212 -0.4006 -0.4551  0.3677
  279TIP3    H125032   5.827   1.020   8.164  0.8490 -0.2678  1.1675
  279TIP3    H225033   5.794   1.068   8.304 -1.3298  0.0073  0.5954
  280TIP3   OH225034   4.375   1.697   8.172 -0.1588 -0.2758 -0.6037
  280TIP3    H125035   4.381   1.793   8.175 -2.3474 -0.0976  1.9870
  280TIP3    H225036   4.431   1.668   8.244 -1.8840 -0.6911  0.6270
  281TIP3   OH225037   6.973   5.169   8.525 -0.0766 -0.2137  1.1358
  281TIP3    H125038   6.964   5.074   8.533  1.3228 -0.2599  2.5945
  281TIP3    H225039   7.067   5.184   8.514 -0.4580  0.9108 -1.2206
  282TIP3   OH225040   6.555   5.312   7.406 -0.4795 -0.3274 -0.6891
  282TIP3    H125041   6.609   5.374   7.358 -0.8037  0.4563 -0.0674
  282TIP3    H225042   6.570   5.228   7.363  0.2755  0.1079 -1.2897
  283TIP3   OH225043   4.727   6.277   6.535 -0.4071 -0.2092  0.3920
  283TIP3    H125044   4.678   6.306   6.612 -0.0846  0.5974  0.2946
  283TIP3    H225045   4.660   6.261   6.469 -0.6246 -0.1639  0.6014
  284TIP3   OH225046   2.107   3.576   0.624  0.0490 -0.2724 -0.5629
  284TIP3    H125047   2.031   3.547   0.673 -0.8405 -0.4514 -2.0099
  284TIP3    H225048   2.143   3.496   0.585 -1.6319  0.2622 -3.4640
  285TIP3   OH225049   5.413   0.956   1.139  0.2612 -0.4363  0.0301
  285TIP3    H125050   5.495   0.916   1.108  0.3249  0.1836 -0.6313
  285TIP3    H225051   5.415   0.944   1.234  1.0902 -0.4984  0.0135
  286TIP3   OH225052   4.354   5.831   1.503  0.3594 -0.1882  0.2466
  286TIP3    H125053   4.279   5.771   1.509 -0.3794  0.5986 -0.7312
  286TIP3    H225054   4.402   5.802   1.426  1.7955 -1.4499  1.5514
  287TIP3   OH225055   4.679   0.736   1.085  0.4206  0.7472  0.2661
  287TIP3    H125056   4.749   0.741   1.150  1.1408  1.6180 -0.5440
  287TIP3    H225057   4.722   0.753   1.002 -0.9323  2.6049 -0.1295
  288TIP3   OH225058   0.962   6.420   1.148  0.6910 -0.2754 -1.0333
  288TIP3    H125059   0.948   6.511   1.175  1.0429 -0.1694 -1.1952
  288TIP3    H225060   0.922   6.368   1.217  0.3862  0.0058 -0.9960
  289TIP3   OH225061   0.626   5.682   1.460 -0.3436 -0.1510 -0.2796
  289TIP3    H125062   0.604   5.689   1.366  0.7183  1.4596 -0.4363
  289TIP3    H225063   0.721   5.688   1.463 -0.4485  1.2254  1.0066
  290TIP3   OH225064   4.893   0.174   2.632  0.4972  0.5648  0.0748
  290TIP3    H125065   4.819   0.202   2.579 -0.5168 -1.4287  0.3314
  290TIP3    H225066   4.925   0.254   2.674 -0.2970  1.7580 -1.4898
  291TIP3   OH225067   1.341   0.872   0.884  0.3556 -0.5609  0.4647
  291TIP3    H125068   1.321   0.965   0.878 -1.1286 -0.8136  0.9383
  291TIP3    H225069   1.436   0.866   0.875  0.5363  1.0509  1.1154
  292TIP3   OH225070   0.266   0.703   1.734  0.5297 -0.1411  0.0807
  292TIP3    H125071   0.239   0.626   1.683  1.5131 -0.8814  0.6398
  292TIP3    H225072   0.261   0.776   1.672 -2.5944 -0.2121  0.1143
  293TIP3   OH225073   4.684   4.548   2.296  0.0774  0.1225  0.1359
  293TIP3    H125074   4.641   4.633   2.302 -0.4808 -0.0418 -1.2611
  293TIP3    H225075   4.621   4.492   2.250  1.3522 -0.4135 -1.0180
  294TIP3   OH225076   7.562   3.480   1.060  0.1278 -0.5417 -0.4792
  294TIP3    H125077   7.625   3.447   1.123 -0.5000  1.8840  1.5519
  294TIP3    H225078   7.477   3.471   1.104 -0.2202  2.1816 -0.4056
  295TIP3   OH225079   1.688   0.667   2.189 -0.6234 -0.1257 -0.0578
  295TIP3    H125080   1.629   0.723   2.240 -1.3076 -1.2814  0.4636
  295TIP3    H225081   1.663   0.683   2.098  0.4146  1.7460 -0.0543
  296TIP3   OH225082   5.495   2.603   1.329  0.4257  0.5870 -0.1963
  296TIP3    H125083   5.418   2.602   1.272  1.1166  0.7999 -1.1390
  296TIP3    H225084   5.568   2.584   1.272  0.8912 -1.7213  1.0184
  297TIP3   OH225085   4.023   1.719   2.569 -1.0785  0.1743 -0.0343
  297TIP3    H125086   4.105   1.697   2.614 -1.1138 -0.9548 -0.5044
  297TIP3    H225087   4.049   1.736   2.479 -1.4882 -1.2703 -0.4434
  298TIP3   OH225088   3.863   4.379   0.781  0.3142 -0.0826  0.0410
  298TIP3    H125089   3.875   4.427   0.864 -1.1168 -0.7070  0.6390
  298TIP3    H225090   3.916   4.300   0.792  1.4813  0.6198 -0.3447
  299TIP3   OH225091   0.310   7.067   2.314  0.3159 -0.1706  0.3877
  299TIP3    H125092   0.392   7.113   2.301  0.8031 -1.2199 -0.4606
  299TIP3    H225093   0.278   7.049   2.225 -0.0178 -1.1507  0.6874
  300TIP3   OH225094   6.762   6.159   2.132 -0.3053  0.1859  0.1426
  300TIP3    H125095   6.797   6.086   2.183 -0.6913 -0.0690  0.0451
  300TIP3    H225096   6.667   6.154   2.145 -0.4108  0.1191 -0.5995
  301TIP3   OH225097   3.971   7.370   2.785  0.4197 -0.4487  0.2284
  301TIP3    H125098   4.012   7.410   2.862  0.1437  1.4717 -0.5472
  301TIP3    H225099   3.898   7.319   2.820  1.2923 -0.9533  1.3484
  302TIP3   OH225100   5.764   4.940   2.285  0.1775 -0.5019  0.0072
  302TIP3    H125101   5.821   4.996   2.232 -1.0903 -1.1611 -2.1625
  302TIP3    H225102   5.824   4.885   2.334  1.4182  0.0384 -0.8467
  303TIP3   OH225103   5.870   3.977   1.484 -0.2149  0.2782 -0.2832
  303TIP3    H125104   5.799   3.984   1.421 -0.1835 -1.3746 -0.5430
  303TIP3    H225105   5.847   4.038   1.554 -0.2563  2.1419 -1.8489
  304TIP3   OH225106   4.859   6.113   2.026  0.5019 -0.2925 -0.1936
  304TIP3    H125107   4.923   6.142   1.961  1.2248 -1.9271 -0.2612
  304TIP3    H225108   4.774   6.118   1.981  0.4785  2.1570 -0.0138
  305TIP3   OH225109   4.981   7.158   1.607  0.3187  0.0737 -0.3561
  305TIP3    H125110   5.016   7.234   1.560  0.4300  1.7003  2.1455
  305TIP3    H225111   4.886   7.167   1.600  0.2387  1.8536  1.7924
  306TIP3   OH225112   5.883   2.859   2.066 -0.7737 -0.0751  0.2591
  306TIP3    H125113   5.822   2.810   2.011 -1.9604  1.0468  0.5106
  306TIP3    H225114   5.936   2.909   2.005  1.2427 -2.4092 -0.0806
  307TIP3   OH225115   5.200   7.372   3.166 -0.0401 -0.5158  0.0292
  307TIP3    H125116   5.172   7.425   3.241 -0.8587 -2.1879  0.9705
  307TIP3    H225117   5.193   7.282   3.197  2.5375 -1.1810 -1.0721
  308TIP3   OH225118   3.040   1.161   0.566  0.1970  0.3247 -1.0459
  308TIP3    H125119   2.961   1.216   0.568  1.3993  2.1439 -1.2342
  308TIP3    H225120   3.020   1.092   0.503 -1.2962  0.6491 -0.9621
  309TIP3   OH225121   2.381   1.844   2.657 -0.0495  0.1010  0.4179
  309TIP3    H125122   2.352   1.900   2.729 -0.6913  0.3569 -0.0308
  309TIP3    H225123   2.317   1.860   2.587  1.3125  0.8781 -0.6995
  310TIP3   OH225124   3.560   1.287   1.442 -0.2058  0.0324 -0.9380
  310TIP3    H125125   3.502   1.363   1.445 -0.6962 -0.2913 -1.9279
  310TIP3    H225126   3.502   1.213   1.427  0.2473 -0.5784  0.1867
  311TIP3   OH225127   7.408   2.250   2.820  0.3688 -0.6593 -0.3445
  311TIP3    H125128   7.314   2.269   2.824  0.2770 -0.9512 -0.9988
  311TIP3    H225129   7.450   2.336   2.823  0.1536 -0.5753  1.3752
  312TIP3   OH225130   1.807   4.827   2.216  0.4148  0.0053 -0.9156
  312TIP3    H125131   1.900   4.842   2.231  0.3227  1.6542 -1.7117
  312TIP3    H225132   1.772   4.802   2.301  1.1810  1.7348 -0.0328
  313TIP3   OH225133   5.989   7.408   0.703  0.3012  0.5402  0.0931
  313TIP3    H125134   6.005   7.467   0.777  2.4565  0.7126 -0.4377
  313TIP3    H225135   6.001   7.320   0.740  0.6847  0.5960  0.1032
  314TIP3   OH225136   3.665   2.901   2.623  0.5834  0.2765  0.1238
  314TIP3    H125137   3.615   2.849   2.686  1.0224 -0.9635 -0.5112
  314TIP3    H225138   3.735   2.842   2.594  1.7074  1.5824  0.1197
  315TIP3   OH225139   2.164   0.322   3.145  0.1009  0.2788 -0.0415
  315TIP3    H125140   2.231   0.262   3.176  0.0310  0.1944 -0.0534
  315TIP3    H225141   2.103   0.267   3.096 -0.1080  0.3143  0.1757
  316TIP3   OH225142   2.704   5.268   2.238  0.1553 -0.4922  0.2994
  316TIP3    H125143   2.639   5.335   2.217 -0.2790 -0.3789  1.8588
  316TIP3    H225144   2.785   5.317   2.252  0.2343 -0.4771 -0.1937
  317TIP3   OH225145   4.339   1.765   1.260 -0.1372  0.0197 -0.0063
  317TIP3    H125146   4.267   1.769   1.197 -0.5415 -0.7736  0.3978
  317TIP3    H225147   4.391   1.689   1.233  0.3923  0.4095 -0.1154
  318TIP3   OH225148   4.715   0.518   3.371  0.2919 -0.4287  0.0542
  318TIP3    H125149   4.662   0.470   3.435 -0.0840  0.4549  0.4309
  318TIP3    H225150   4.804   0.511   3.405  0.3892 -1.6857 -0.4316
  319TIP3   OH225151   4.076   1.480   3.231 -0.4070  0.4687  0.4006
  319TIP3    H125152   3.984   1.499   3.213 -0.9598 -0.8290  1.6220
  319TIP3    H225153   4.081   1.477   3.327  1.1248  1.4351  0.3798
  320TIP3   OH225154   6.308   1.367   3.786 -0.1305 -0.2700  0.6101
  320TIP3    H125155   6.362   1.441   3.758  1.1139 -1.0162  0.9241
  320TIP3    H225156   6.247   1.404   3.849  1.0606  0.3538  1.4443
  321TIP3   OH225157   2.956   1.334   2.802  0.3181  0.3359 -0.1928
  321TIP3    H125158   2.965   1.244   2.833  0.3261  0.1202 -0.7954
  321TIP3    H225159   3.017   1.385   2.856 -0.9458  0.2913  1.3329
  322TIP3   OH225160   2.278   7.578   2.755  0.9143 -0.3908  0.1123
  322TIP3    H125161   2.273   7.666   2.790  1.1035 -0.6036  0.6833
  322TIP3    H225162   2.372   7.558   2.753  0.8815 -0.5199 -0.1605
  323TIP3   OH225163   3.609   7.348   8.373 -0.1822 -0.6540 -0.3893
  323TIP3    H125164   3.522   7.388   8.372 -1.2211 -2.7579  0.2736
  323TIP3    H225165   3.594   7.260   8.406  2.5082 -0.4492  1.6944
  324TIP3   OH225166   1.829   6.817   6.480 -0.1677  0.0620 -0.6495
  324TIP3    H125167   1.918   6.846   6.501 -0.2480  0.7243 -1.1939
  324TIP3    H225168   1.839   6.727   6.450  0.0413 -0.6701  1.4749
  325TIP3   OH225169   6.324   0.874   8.339 -0.2988 -0.1754  0.1449
  325TIP3    H125170   6.385   0.847   8.270  0.8676  0.5006  0.8731
  325TIP3    H225171   6.251   0.913   8.291 -0.3658 -1.3483 -0.7700
  326TIP3   OH225172   2.212   5.524   8.049 -0.6493  0.0737 -0.0252
  326TIP3    H125173   2.225   5.595   7.986 -1.9254 -0.4978 -0.9778
  326TIP3    H225174   2.163   5.458   8.000  0.5022 -1.4729  0.8396
  327TIP3   OH225175   2.021   5.291   7.309  0.3533 -0.5177  0.5395
  327TIP3    H125176   2.038   5.382   7.336  1.0732 -0.6094  0.4313
  327TIP3    H225177   1.999   5.297   7.216 -1.3770 -0.2802  0.9354
  328TIP3   OH225178   0.245   6.482   6.966  0.3736 -0.2172  0.0748
  328TIP3    H125179   0.308   6.554   6.968 -1.0726  1.0889  1.6168
  328TIP3    H225180   0.196   6.497   6.885  0.0771  0.5725  0.3850
  329TIP3   OH225181   4.226   0.714   7.846 -0.3028  0.3368  0.7490
  329TIP3    H125182   4.195   0.658   7.917  0.4147  0.0672  0.8565
  329TIP3    H225183   4.150   0.767   7.823 -0.2631  1.2510  2.4950
  330TIP3   OH225184   3.996   4.465   7.837 -0.0370  0.2902 -0.5030
  330TIP3    H125185   3.940   4.389   7.851  1.3630 -0.9731 -1.3785
  330TIP3    H225186   4.015   4.499   7.925 -3.5418  1.9102 -0.2139
  331TIP3   OH225187   5.454   5.642   7.484 -0.2884 -0.0056  0.4354
  331TIP3    H125188   5.474   5.557   7.525 -0.8556 -0.0313  0.6763
  331TIP3    H225189   5.477   5.630   7.392  1.0910  0.0804  0.7605
  332TIP3   OH225190   3.299   5.592   8.550  0.3715 -0.2982  0.3992
  332TIP3    H125191   3.357   5.666   8.564 -1.2237  0.8834  0.9722
  332TIP3    H225192   3.261   5.607   8.463  1.2999 -1.3566 -0.2142
  333TIP3   OH225193   1.173   3.962   9.201 -0.1113 -0.2855 -0.0146
  333TIP3    H125194   1.185   3.899   9.273  1.4182  1.5274  1.4116
  333TIP3    H225195   1.084   3.994   9.212  0.3287  0.4904  1.5690
  334TIP3   OH225196   4.979   1.145   8.437 -0.3382  0.1593 -0.2916
  334TIP3    H125197   5.030   1.064   8.433  0.3169  0.5531 -0.0430
  334TIP3    H225198   4.935   1.142   8.523  0.6913  0.6528  0.2692
  335TIP3   OH225199   3.675   2.743   7.145 -0.0911  0.2781  0.5590
  335TIP3    H125200   3.763   2.712   7.168 -0.6489 -1.1571  0.8611
  335TIP3    H225201   3.623   2.663   7.136 -0.7119  0.9083 -2.4499
  336TIP3   OH225202   2.136   3.560   7.891 -0.0253 -0.0021  0.1520
  336TIP3    H125203   2.164   3.471   7.869 -1.6156 -0.8091  1.1441
  336TIP3    H225204   2.153   3.568   7.985  0.9322  1.0975 -0.0947
  337TIP3   OH225205   2.718   5.339   7.524 -0.3772 -0.5341  0.0903
  337TIP3    H125206   2.648   5.389   7.481 -0.1219 -0.5041 -0.2924
  337TIP3    H225207   2.782   5.405   7.550  0.6557 -0.7508 -1.6865
  338TIP3   OH225208   2.277   7.494   7.665 -0.6247  0.0821  0.3498
  338TIP3    H125209   2.277   7.460   7.576  1.3786 -1.5780  0.8984
  338TIP3    H225210   2.215   7.439   7.712  1.5965 -2.1257  0.9160
  339TIP3   OH225211   1.719   5.507   7.079 -0.2054  0.7951 -0.2298
  339TIP3    H125212   1.659   5.454   7.026 -0.9809 -0.1841  1.5332
  339TIP3    H225213   1.805   5.467   7.065 -0.9008 -1.7373  1.8186
  340TIP3   OH225214   0.329   0.728   6.919 -0.5212 -0.4012 -0.4447
  340TIP3    H125215   0.328   0.815   6.878  1.0843  0.1289  0.5196
  340TIP3    H225216   0.417   0.695   6.904  0.2043 -0.1388  2.5285
  341TIP3   OH225217   2.981   6.497   8.076  0.6139 -0.0802  0.0835
  341TIP3    H125218   2.929   6.572   8.105 -0.3631 -0.7957  0.2609
  341TIP3    H225219   3.064   6.534   8.047 -0.5101  1.2990 -1.5800
  342TIP3   OH225220   7.580   7.680   9.058  0.6537 -0.7049 -0.2209
  342TIP3    H125221   7.651   7.737   9.087  1.5424 -0.1353 -3.1415
  342TIP3    H225222   7.502   7.734   9.065  1.1002 -0.0049 -0.5209
  343TIP3   OH225223   0.910   0.929   8.499  0.2296 -0.1182  0.7525
  343TIP3    H125224   0.947   1.012   8.530 -1.2965  1.4725 -1.3343
  343TIP3    H225225   0.935   0.924   8.407 -2.5604 -0.1406 -0.1139
  344TIP3   OH225226   5.387   3.185   8.740  0.0403  0.0710  0.4454
  344TIP3    H125227   5.348   3.244   8.676  0.8975  0.4965  0.3087
  344TIP3    H225228   5.330   3.108   8.739 -1.0449  0.8466  0.5733
  345TIP3   OH225229   4.356   7.219   7.767  0.6423  0.4830  0.0393
  345TIP3    H125230   4.330   7.161   7.695  1.1012  0.5369 -0.1710
  345TIP3    H225231   4.307   7.186   7.842 -0.4613  0.9181 -0.4638
  346TIP3   OH225232   6.595   6.355   8.760  0.3326 -0.4722 -0.1597
  346TIP3    H125233   6.504   6.346   8.787 -0.5210  1.1884 -2.1860
  346TIP3    H225234   6.606   6.289   8.692  0.9419 -1.2838  0.7122
  347TIP3   OH225235   1.579   6.760   8.384 -0.2519 -0.1002  0.3069
  347TIP3    H125236   1.580   6.831   8.447 -3.2538  0.6936 -0.3940
  347TIP3    H225237   1.628   6.795   8.309 -1.7711  1.3406 -0.0741
  348TIP3   OH225238   1.181   1.725   8.763 -0.4066  0.1221 -0.4730
  348TIP3    H125239   1.250   1.783   8.732 -0.6038 -0.1079 -1.3854
  348TIP3    H225240   1.203   1.708   8.855  0.8392 -0.0714 -0.7869
  349TIP3   OH225241   4.469   5.185   8.341 -0.0592 -0.7670  0.1215
  349TIP3    H125242   4.410   5.217   8.273 -0.3999 -0.6498  0.4640
  349TIP3    H225243   4.553   5.227   8.322 -0.4122  0.0779  0.3669
  350TIP3   OH225244   7.645   4.844   8.512  0.0815  0.0996 -0.3408
  350TIP3    H125245   7.569   4.811   8.464  0.7222  0.0066 -1.3147
  350TIP3    H225246   7.691   4.765   8.540  0.8095  0.1283 -1.3803
  351TIP3   OH225247   2.785   4.061   9.286  0.1657  0.4492 -1.0538
  351TIP3    H125248   2.740   4.120   9.346  2.3408  0.8094  0.3594
  351TIP3    H225249   2.755   3.973   9.310  0.7476  0.6132  0.4020
  352TIP3   OH225250   7.087   5.287   7.714 -0.3743 -0.0505 -0.0793
  352TIP3    H125251   7.139   5.210   7.689  0.2358  0.1646  0.5243
  352TIP3    H225252   7.076   5.335   7.632 -1.2827 -1.0753 -0.5941
  353TIP3   OH225253   1.678   3.258   8.478  0.4946  0.1087  0.3265
  353TIP3    H125254   1.709   3.303   8.557 -0.6313  0.4531  0.5776
  353TIP3    H225255   1.658   3.328   8.416  0.7515 -0.1373 -0.0426
  354TIP3   OH225256   1.824   7.116   7.002 -0.8363  0.2376  0.1138
  354TIP3    H125257   1.809   7.204   7.038  0.0407  0.2276  0.5354
  354TIP3    H225258   1.901   7.125   6.946 -0.9841 -0.1794 -0.1609
  355TIP3   OH225259   0.382   0.988   6.830  0.0991 -0.1257  0.3512
  355TIP3    H125260   0.442   1.044   6.878 -1.3716  0.6605  1.3483
  355TIP3    H225261   0.306   1.044   6.811  0.2428 -0.6750 -2.1268
  356TIP3   OH225262   1.501   2.050   8.862 -0.1294  0.5358 -0.3656
  356TIP3    H125263   1.483   2.011   8.776  1.4359  0.9959 -0.9314
  356TIP3    H225264   1.502   2.144   8.846  1.2575  0.5924 -0.1071
  357TIP3   OH225265   0.596   4.539   9.139 -0.2369 -0.2367 -0.4848
  357TIP3    H125266   0.663   4.504   9.198 -0.3239 -0.6683 -0.6385
  357TIP3    H225267   0.619   4.632   9.129  0.0693 -0.2776 -0.1738
  358TIP3   OH225268   5.967   1.743   8.906 -0.4898  0.6582 -0.2859
  358TIP3    H125269   5.983   1.655   8.940 -0.0786  0.6848 -0.4020
  358TIP3    H225270   5.945   1.795   8.983 -1.8079  0.2198 -0.3432
  359TIP3   OH225271   1.007   3.834   8.740 -0.1313  0.5797 -0.1068
  359TIP3    H125272   0.960   3.909   8.703 -0.6750  0.5029  0.4013
  359TIP3    H225273   0.937   3.773   8.764 -0.0465  1.6949  3.4739
  360TIP3   OH225274   3.273   0.851   6.748  0.1954 -0.0568  0.4330
  360TIP3    H125275   3.188   0.881   6.714  0.4516 -0.2752 -0.4380
  360TIP3    H225276   3.285   0.765   6.708  1.5384  0.6329 -0.7303
  361TIP3   OH225277   3.610   3.059   8.650 -0.0214 -0.3597 -0.0008
  361TIP3    H125278   3.657   3.004   8.588  0.8946 -1.7858  1.8337
  361TIP3    H225279   3.557   3.117   8.596  0.1652 -1.9937 -2.0630
  362TIP3   OH225280   5.584   4.792   7.782  0.0993 -0.5417 -0.4244
  362TIP3    H125281   5.587   4.732   7.707 -1.6728 -0.4214 -0.6506
  362TIP3    H225282   5.495   4.782   7.817 -0.1219  1.6174 -0.2182
  363TIP3   OH225283   4.487   6.784   6.625 -0.2567  0.3831 -0.1317
  363TIP3    H125284   4.424   6.777   6.553 -1.6927  1.6714  0.9309
  363TIP3    H225285   4.495   6.878   6.641  2.2200  0.2821 -0.4235
  364TIP3   OH225286   4.570   6.859   8.932 -0.2043 -0.1990 -0.5071
  364TIP3    H125287   4.604   6.790   8.875  0.2680 -0.4205  0.0204
  364TIP3    H225288   4.603   6.940   8.894 -1.4664 -0.1712 -1.6186
  365TIP3   OH225289   3.303   5.314   7.628  0.0853 -0.6753 -0.6896
  365TIP3    H125290   3.318   5.243   7.690 -1.1936 -1.5878 -1.3727
  365TIP3    H225291   3.333   5.393   7.674 -0.3481 -1.3932  0.8882
  366TIP3   OH225292   6.797   7.455   7.395 -0.8709 -0.2415  0.0179
  366TIP3    H125293   6.781   7.508   7.474 -2.6806 -0.8096  0.0872
  366TIP3    H225294   6.825   7.370   7.428 -1.5317 -0.4478  0.0721
  367TIP3   OH225295   0.273   3.016   8.267  0.6241 -0.1086 -0.5730
  367TIP3    H125296   0.352   3.018   8.212 -0.3712  1.9947 -2.0772
  367TIP3    H225297   0.238   3.104   8.260 -1.7694 -0.9390  0.2037
  368TIP3   OH225298   5.281   0.422   8.702  0.2685 -0.1639 -0.0314
  368TIP3    H125299   5.233   0.359   8.756  0.0266 -0.2788 -0.3721
  368TIP3    H225300   5.224   0.499   8.699 -0.5147 -0.7430 -1.4590
  369TIP3   OH225301   0.040   6.254   9.046  0.1036 -0.6553  0.3561
  369TIP3    H125302   0.112   6.293   9.097 -1.6343  0.4382  2.0985
  369TIP3    H225303   0.074   6.169   9.019  2.5985  0.4060 -0.2005
  370TIP3   OH225304   5.319   1.677   8.295 -0.1673  0.2923  0.1949
  370TIP3    H125305   5.405   1.717   8.288 -0.5228  0.9384 -0.5940
  370TIP3    H225306   5.337   1.584   8.307  0.6484  0.2799 -0.9324
  371TIP3   OH225307   1.520   1.141   9.372  0.1485 -0.0029  0.0427
  371TIP3    H125308   1.488   1.231   9.365 -1.7404 -0.6118  0.3548
  371TIP3    H225309   1.544   1.117   9.283 -3.0084 -0.4236 -0.7900
  372TIP3   OH225310   6.034   1.501   8.276  0.1571 -0.4036  0.2477
  372TIP3    H125311   6.029   1.456   8.192 -0.3336 -1.3208  0.7449
  372TIP3    H225312   6.076   1.438   8.335  0.2332  0.1090  0.7541
  373TIP3   OH225313   1.483   6.993   6.731  0.3094  0.3817  0.1309
  373TIP3    H125314   1.526   7.000   6.645 -0.4299  1.6087 -0.1765
  373TIP3    H225315   1.392   7.016   6.714 -0.0883 -0.4150  1.0798
  374TIP3   OH225316   7.216   2.333   9.469  0.1806 -0.4907  0.1432
  374TIP3    H125317   7.141   2.273   9.479  0.7651 -1.1731  0.5145
  374TIP3    H225318   7.292   2.280   9.494  0.5464  0.9165  2.2446
  375TIP3   OH225319   2.756   5.078   8.956  0.1014 -0.7064 -0.2555
  375TIP3    H125320   2.776   5.170   8.973  0.1425 -0.6896 -0.3922
  375TIP3    H225321   2.665   5.079   8.925 -0.3473 -0.8518  0.9961
  376TIP3   OH225322   1.192   0.407   9.561  0.5955 -0.2699 -0.3854
  376TIP3    H125323   1.284   0.431   9.545  0.0192  3.4037  0.7928
  376TIP3    H225324   1.189   0.389   9.655  0.0473 -0.1332 -0.3784
  377TIP3   OH225325   5.772   4.606   7.506  0.2059  0.2143 -0.1655
  377TIP3    H125326   5.788   4.589   7.599 -0.0573 -0.5898 -0.2619
  377TIP3    H225327   5.678   4.589   7.494  0.0076  1.3790 -0.3567
  378TIP3   OH225328   4.311   2.329   7.744  0.3348 -0.0370  0.3054
  378TIP3    H125329   4.243   2.374   7.693 -0.0090 -0.8015  0.0679
  378TIP3    H225330   4.330   2.389   7.816 -0.9310  0.0010  0.6398
  379TIP3   OH225331   6.370   0.077   8.391 -0.2772  0.2161 -0.4015
  379TIP3    H125332   6.451   0.031   8.369 -1.0188 -1.0509 -0.6195
  379TIP3    H225333   6.361   0.144   8.323  1.4235  1.5055  0.5838
  380TIP3   OH225334   5.914   3.019   7.237  0.3046 -0.3287  0.4441
  380TIP3    H125335   5.848   3.066   7.187 -0.0249 -1.3445 -0.1080
  380TIP3    H225336   5.869   2.994   7.318  0.3286 -0.1385  0.5172
  381TIP3   OH225337   1.793   6.241   9.030  0.2356 -0.4285  0.3018
  381TIP3    H125338   1.720   6.301   9.046  0.2731 -0.7249  1.7097
  381TIP3    H225339   1.753   6.155   9.021  0.3549 -0.5074  0.5045
  382TIP3   OH225340   4.047   1.871   8.414  0.1216  0.2714  0.0728
  382TIP3    H125341   4.071   1.792   8.366  0.1709 -0.1317  0.7433
  382TIP3    H225342   4.112   1.936   8.388  0.2733 -0.0042 -0.2387
  383TIP3   OH225343   2.223   3.154   8.902 -0.1189  0.0575  0.0627
  383TIP3    H125344   2.142   3.196   8.871  0.1951  0.2000 -0.5739
  383TIP3    H225345   2.285   3.226   8.912 -0.3020  0.0609  1.3588
  384TIP3   OH225346   0.993   7.484   7.701 -0.4828  0.0322 -0.0488
  384TIP3    H125347   1.039   7.451   7.778  0.8011  2.0626  0.1068
  384TIP3    H225348   0.999   7.412   7.638 -0.0783 -1.0183  1.1290
  385TIP3   OH225349   7.401   2.604   9.277  0.2091  0.3852  0.2380
  385TIP3    H125350   7.413   2.516   9.314  0.8434  0.8660  1.2149
  385TIP3    H225351   7.308   2.623   9.291 -0.2347 -0.6011 -1.1031
  386TIP3   OH225352   0.359   6.769   7.049 -0.0807  0.1606  0.1334
  386TIP3    H125353   0.337   6.850   7.002  1.0569  0.4992  0.1563
  386TIP3    H225354   0.348   6.792   7.142 -1.3879 -0.2247  0.0961
  387TIP3   OH225355   2.875   0.210   8.748 -0.5608 -0.3940  0.2538
  387TIP3    H125356   2.899   0.294   8.786  0.7344 -1.1288  1.1629
  387TIP3    H225357   2.780   0.215   8.737 -0.3423  1.7530 -1.2269
  388TIP3   OH225358   0.828   6.777   7.519 -0.4413 -0.5117  0.1636
  388TIP3    H125359   0.844   6.692   7.561  0.0487  0.0224  1.0798
  388TIP3    H225360   0.735   6.775   7.495 -0.3923 -1.3662  0.0225
  389TIP3   OH225361   1.231   3.033   9.006  0.0171 -0.6398 -0.2527
  389TIP3    H125362   1.177   2.979   9.063  1.4586 -0.2252  1.6226
  389TIP3    H225363   1.187   3.118   9.004 -0.8078 -1.0707 -0.9766
  390TIP3   OH225364   1.731   2.367   7.781  0.2317 -0.3345  0.5465
  390TIP3    H125365   1.757   2.458   7.797 -1.1762  0.1609  0.1829
  390TIP3    H225366   1.793   2.315   7.832  0.5873  0.8673  1.3869
  391TIP3   OH225367   3.466   1.980   8.295 -0.3333  0.5986  0.6025
  391TIP3    H125368   3.387   2.003   8.345 -1.1031  0.5803 -0.5593
  391TIP3    H225369   3.537   2.021   8.342 -1.1262  1.2036  1.3051
  392TIP3   OH225370   6.383   2.257   8.350 -0.4340  0.1604 -0.4335
  392TIP3    H125371   6.421   2.173   8.324 -0.3559  0.2329 -0.5554
  392TIP3    H225372   6.329   2.283   8.276 -0.9239 -0.0614 -0.1629
  393TIP3   OH225373   4.623   6.685   8.750  0.5408  0.2018  0.2263
  393TIP3    H125374   4.588   6.694   8.661  1.2166 -1.2582 -0.2255
  393TIP3    H225375   4.680   6.608   8.746  2.8377  1.7253  1.2354
  394TIP3   OH225376   4.822   2.416   8.249  0.1569 -0.7942 -0.1040
  394TIP3    H125377   4.797   2.339   8.197  0.3774 -0.2205 -1.0775
  394TIP3    H225378   4.912   2.435   8.221 -0.2418  0.4155 -0.6209
  395TIP3   OH225379   7.514   6.293   8.480  0.7772 -0.5297 -0.4333
  395TIP3    H125380   7.574   6.355   8.521  0.4897 -1.3418  1.3326
  395TIP3    H225381   7.569   6.218   8.455  0.8354 -0.3474 -0.8593
  396TIP3   OH225382   1.166   3.759   8.983  0.0888  0.2450 -0.3430
  396TIP3    H125383   1.124   3.802   8.909 -0.0732 -1.0297 -1.0200
  396TIP3    H225384   1.177   3.829   9.048 -1.6514  0.9631 -0.7452
  397TIP3   OH225385   4.092   1.328   7.341  0.1992 -0.4937  0.4795
  397TIP3    H125386   4.160   1.305   7.278  0.2752  0.1318  0.3240
  397TIP3    H225387   4.043   1.247   7.354  0.6995 -0.8377  0.2555
  398TIP3   OH225388   5.431   5.608   8.003  0.4162  0.8122  0.2953
  398TIP3    H125389   5.519   5.586   8.034  0.1617 -0.7449 -0.0078
  398TIP3    H225390   5.375   5.541   8.042 -0.6550  1.7807  0.4787
  399TIP3   OH225391   4.969   0.446   7.700  1.3272 -0.1672  0.6230
  399TIP3    H125392   4.938   0.536   7.698  1.5798 -0.0995 -0.4142
  399TIP3    H225393   4.927   0.408   7.778 -1.3213 -0.0720 -0.6632
  400TIP3   OH225394   5.342   2.180   9.303 -0.1918  0.8653 -0.3906
  400TIP3    H125395   5.320   2.255   9.357 -0.6625  1.1756 -1.0114
  400TIP3    H225396   5.379   2.217   9.223  0.6830  0.4034 -0.2201
  401TIP3   OH225397   3.860   2.741   8.871  0.0434  0.0479 -0.1866
  401TIP3    H125398   3.950   2.710   8.883  0.4173  0.0341 -2.6191
  401TIP3    H225399   3.807   2.661   8.866 -0.1455  0.0561  1.2444
  402TIP3   OH225400   2.894   3.461   6.937 -0.0069 -0.1235 -0.1069
  402TIP3    H125401   2.801   3.475   6.919  0.1635 -0.0279 -0.9716
  402TIP3    H225402   2.911   3.371   6.912  0.3861  0.2152 -1.1042
  403TIP3   OH225403   2.486   4.737   7.448 -0.0799 -0.2569 -0.0157
  403TIP3    H125404   2.540   4.781   7.382  0.2651 -1.7267 -0.7446
  403TIP3    H225405   2.516   4.773   7.531  1.7748 -0.7375 -0.4231
  404TIP3   OH225406   4.666   6.935   6.835  0.2753 -0.2479  0.0291
  404TIP3    H125407   4.598   6.894   6.889  0.9130 -2.1546 -0.5679
  404TIP3    H225408   4.748   6.903   6.870  0.7457 -0.6143 -1.3469
  405TIP3   OH225409   2.586   5.547   9.326 -0.5269  0.1794 -0.2579
  405TIP3    H125410   2.524   5.619   9.313 -2.4474 -1.4420 -0.6053
  405TIP3    H225411   2.596   5.509   9.239 -2.0380 -1.8325  0.3547
  406TIP3   OH225412   1.678   2.617   8.534 -0.9180  0.4287 -0.2761
  406TIP3    H125413   1.616   2.621   8.461 -1.7898 -2.0521  0.2010
  406TIP3    H225414   1.646   2.681   8.597 -2.7247 -0.4125 -0.2838
  407TIP3   OH225415   2.390   4.121   8.568  0.1737 -0.5265  0.0675
  407TIP3    H125416   2.326   4.068   8.521  0.4540  0.3853 -1.4173
  407TIP3    H225417   2.354   4.131   8.656 -1.7423 -0.0280 -0.7340
  408TIP3   OH225418   0.548   6.930   8.187  0.1335  0.2987 -0.4851
  408TIP3    H125419   0.591   6.871   8.249  2.1745  1.4169 -0.7285
  408TIP3    H225420   0.524   7.006   8.239  1.0191  0.8531 -0.8657
  409TIP3   OH225421   2.289   2.256   8.553 -0.3006 -0.5034  0.0252
  409TIP3    H125422   2.208   2.272   8.602 -0.5972 -1.1115 -0.2505
  409TIP3    H225423   2.358   2.257   8.619 -0.6216 -0.7045  0.3675
  410TIP3   OH225424   2.047   4.726   8.699 -0.6944 -0.7110 -0.0932
  410TIP3    H125425   1.964   4.730   8.745 -1.9678  2.4430 -2.2795
  410TIP3    H225426   2.098   4.799   8.735  0.6267 -1.8024  0.3122
  411TIP3   OH225427   4.075   4.580   8.074  1.0732  0.2699 -0.1375
  411TIP3    H125428   4.068   4.495   8.117 -1.5247 -0.5661 -1.9274
  411TIP3    H225429   4.008   4.634   8.116  2.0896  1.1610  0.3740
  412TIP3   OH225430   0.478   2.896   8.061 -0.4848 -0.3576  0.0797
  412TIP3    H125431   0.554   2.934   8.018 -0.5691 -1.2550 -0.9084
  412TIP3    H225432   0.513   2.821   8.109 -0.1813  1.3345  2.7026
  413TIP3   OH225433   2.818   6.794   7.417 -0.4195  0.1756  0.2082
  413TIP3    H125434   2.862   6.865   7.465  1.0545 -1.0326  0.7214
  413TIP3    H225435   2.869   6.716   7.438 -0.5801 -0.6561 -2.1901
  414TIP3   OH225436   4.813   3.441   9.023  0.8780  0.4806  0.0226
  414TIP3    H125437   4.883   3.426   8.959  1.9577  1.1195  1.0169
  414TIP3    H225438   4.772   3.523   8.996  0.2102 -0.0964 -0.7954
  415TIP3   OH225439   1.537   5.847   9.462 -0.6471  0.1993 -0.2374
  415TIP3    H125440   1.462   5.822   9.515  1.0816  0.3783  2.4985
  415TIP3    H225441   1.553   5.939   9.483  0.9392 -0.1088  0.0816
  416TIP3   OH225442   4.145   7.145   7.569  0.6694  0.3965  0.2049
  416TIP3    H125443   4.188   7.161   7.485 -0.7284  0.4730 -0.5344
  416TIP3    H225444   4.087   7.221   7.581  0.0095 -0.1649  0.6702
  417TIP3   OH225445   1.727   7.197   8.962  0.2021 -0.1975 -0.1802
  417TIP3    H125446   1.748   7.239   8.879  0.2350  0.2984  0.0728
  417TIP3    H225447   1.636   7.170   8.953 -0.2732  1.1975  0.1575
  418TIP3   OH225448   1.904   1.044   9.456 -0.4369 -0.2149  0.0851
  418TIP3    H125449   1.902   1.138   9.470 -3.6993 -0.4107  1.9604
  418TIP3    H225450   1.871   1.031   9.367  0.1775  0.3834 -0.2368
  419TIP3   OH225451   0.154   6.835   7.842  0.0725 -0.2222 -0.1196
  419TIP3    H125452   0.105   6.866   7.918 -0.6403 -0.6962 -0.3757
  419TIP3    H225453   0.183   6.747   7.867  2.9824  0.9260  1.0183
  420TIP3   OH225454   0.807   3.546   7.489  0.3418 -0.2668  0.5464
  420TIP3    H125455   0.862   3.573   7.562  0.7701  0.8790 -0.1848
  420TIP3    H225456   0.778   3.628   7.448  0.0018 -0.8848 -0.4958
  421TIP3   OH225457   5.087   5.774   9.055 -0.3659  0.0486 -0.7796
  421TIP3    H125458   5.001   5.782   9.095 -0.0376 -0.5079  0.0549
  421TIP3    H225459   5.118   5.864   9.047 -1.0670  0.2595 -1.1959
  422TIP3   OH225460   7.019   4.963   8.866  0.5548 -0.4016  0.0034
  422TIP3    H125461   7.064   5.027   8.922  2.3378 -1.7160  0.1755
  422TIP3    H225462   7.087   4.934   8.805 -0.5561 -1.2099 -0.8701
  423TIP3   OH225463   2.435   1.806   8.607  0.4580  0.0883  0.1203
  423TIP3    H125464   2.366   1.862   8.642  0.8176 -0.2089  1.3351
  423TIP3    H225465   2.401   1.776   8.523 -1.3924 -0.9714  1.1973
  424TIP3   OH225466   1.190   3.631   8.655  0.3827 -0.6626  0.0651
  424TIP3    H125467   1.112   3.576   8.652 -0.3652  0.2027  1.8445
  424TIP3    H225468   1.156   3.719   8.672  1.7799 -0.4878  2.2860
  425TIP3   OH225469   1.562   5.250   8.823 -0.0985  0.8560 -0.2283
  425TIP3    H125470   1.563   5.312   8.896 -0.8708  0.7683 -0.1315
  425TIP3    H225471   1.616   5.291   8.756 -0.5852  1.6270 -0.1607
  426TIP3   OH225472   2.898   5.668   6.810  0.4370 -0.2123  0.3887
  426TIP3    H125473   2.895   5.722   6.889  0.9776  0.2676  0.0845
  426TIP3    H225474   2.878   5.579   6.841  1.9543 -0.2697  1.2771
  427TIP3   OH225475   6.268   0.611   8.920  0.5959  0.3970  0.0929
  427TIP3    H125476   6.218   0.612   9.001  0.6306 -1.0611  0.1521
  427TIP3    H225477   6.334   0.680   8.931 -1.1048  2.0712  0.1737
  428TIP3   OH225478   4.255   3.769   8.011  0.0946 -0.2392 -0.6014
  428TIP3    H125479   4.345   3.774   8.044  0.3278 -1.5660 -0.9835
  428TIP3    H225480   4.244   3.677   7.986 -1.0298  0.1269 -1.5140
  429TIP3   OH225481   7.397   6.039   7.360 -0.3331 -0.0680 -0.0892
  429TIP3    H125482   7.322   6.082   7.318 -0.2073  1.7133  1.3935
  429TIP3    H225483   7.358   5.967   7.410 -0.9011  0.0357 -0.3706
  430TIP3   OH225484   7.475   7.256   6.413 -0.1384  0.1081 -0.7711
  430TIP3    H125485   7.555   7.211   6.387  1.1988  1.2004  1.2130
  430TIP3    H225486   7.417   7.187   6.444  0.8105 -0.5148 -0.3510
  431TIP3   OH225487   6.857   5.966   8.868  0.0729  0.1105  0.4671
  431TIP3    H125488   6.876   5.888   8.815  0.2137  0.2575  0.3040
  431TIP3    H225489   6.905   6.037   8.826 -0.5633  0.4169  0.2417
  432TIP3   OH225490   5.362   6.895   7.830  0.0873 -0.3169 -0.0250
  432TIP3    H125491   5.444   6.862   7.794  0.7045  0.5492  0.5508
  432TIP3    H225492   5.361   6.861   7.920  0.6057  0.9631  0.4902
  433TIP3   OH225493   5.467   5.973   8.991 -0.1084 -0.1759 -0.6186
  433TIP3    H125494   5.503   5.992   8.904  1.1243  0.1856 -0.0568
  433TIP3    H225495   5.376   6.000   8.986  0.6679  2.7189 -0.9162
  434TIP3   OH225496   4.847   0.313   7.962  0.8312  0.1709 -0.5486
  434TIP3    H125497   4.927   0.274   7.997  1.8149  1.7180 -0.9931
  434TIP3    H225498   4.846   0.402   7.997 -0.1644  0.5064 -1.3791
  435TIP3   OH225499   6.961   5.641   6.619  0.9597  0.0836 -0.3803
  435TIP3    H125500   6.871   5.610   6.606  0.7169  0.9548 -0.8371
  435TIP3    H225501   6.962   5.729   6.582  2.0635  0.0019 -0.5835
  436TIP3   OH225502   2.851   7.067   7.043  0.1570 -0.7477  0.0250
  436TIP3    H125503   2.878   7.141   6.988 -0.8687  0.4159  1.0229
  436TIP3    H225504   2.920   7.059   7.109 -0.0869 -0.1827  0.3573
  437TIP3   OH225505   5.511   7.212   8.906  0.1168 -0.0884  0.1923
  437TIP3    H125506   5.583   7.217   8.844  1.3975 -0.7762  1.5636
  437TIP3    H225507   5.539   7.147   8.970 -1.3725  0.2204  1.2054
  438TIP3   OH225508   0.291   4.974   7.509 -0.1997  0.4256 -0.1061
  438TIP3    H125509   0.300   5.053   7.456  0.8992  0.0590 -0.4949
  438TIP3    H225510   0.359   4.915   7.476 -0.8976 -0.6303  0.2768
  439TIP3   OH225511   3.321   5.206   8.615 -0.8615  0.0629 -0.1697
  439TIP3    H125512   3.306   5.237   8.705 -0.4488 -0.2694  0.0189
  439TIP3    H225513   3.384   5.268   8.579 -0.6248 -0.1092 -0.0526
  440TIP3   OH225514   1.832   2.068   7.572 -0.6757  0.0289  0.2318
  440TIP3    H125515   1.740   2.083   7.597 -0.1366 -1.8960  4.1704
  440TIP3    H225516   1.831   1.983   7.529 -0.8371  0.5525 -0.8293
  441TIP3   OH225517   6.610   5.347   7.666 -0.1819 -0.5854  0.0517
  441TIP3    H125518   6.525   5.326   7.705 -0.5626 -0.2723 -0.5854
  441TIP3    H225519   6.597   5.333   7.572  0.3768 -0.2355 -0.0825
  442TIP3   OH225520   1.078   5.415   8.882  0.1011  0.0518  0.1008
  442TIP3    H125521   1.029   5.356   8.825 -0.8653  1.0597 -0.1333
  442TIP3    H225522   1.154   5.442   8.830 -0.4886  0.5415 -0.5118
  443TIP3   OH225523   1.624   2.268   8.376  0.3103 -0.4454  0.2234
  443TIP3    H125524   1.563   2.325   8.423 -0.6683 -1.4764  0.2303
  443TIP3    H225525   1.625   2.303   8.287  3.1682  2.3430  1.1294
  444TIP3   OH225526   4.806   6.434   8.823 -0.4905 -0.3581  0.2152
  444TIP3    H125527   4.714   6.405   8.826 -0.6048 -0.3255 -1.5406
  444TIP3    H225528   4.852   6.361   8.781  0.2701 -0.3145  0.9690
  445TIP3   OH225529   3.384   0.251   8.084 -0.4676  0.2726  0.0174
  445TIP3    H125530   3.345   0.196   8.152  0.5287 -0.4939 -0.0076
  445TIP3    H225531   3.402   0.191   8.012  0.3909  0.6842 -0.1211
  446TIP3   OH225532   1.035   4.302   8.111 -0.2521 -0.2165 -0.1947
  446TIP3    H125533   1.050   4.319   8.018  1.1986  1.0362  0.2269
  446TIP3    H225534   1.123   4.298   8.149 -0.8263 -0.2518  1.1911
  447TIP3   OH225535   5.273   1.634   8.670 -0.3735  0.0926  0.0559
  447TIP3    H125536   5.354   1.628   8.720  0.6771 -0.9901 -1.6494
  447TIP3    H225537   5.210   1.579   8.717  0.0371  0.4912  1.0854
  448TIP3   OH225538   7.249   6.492   8.972  0.5209  0.0270 -0.2330
  448TIP3    H125539   7.211   6.573   8.938  0.3903  0.1327  0.1577
  448TIP3    H225540   7.189   6.464   9.040  0.5183 -0.4518 -0.4263
  449TIP3   OH225541   7.531   5.633   8.220 -0.1120  0.0258  0.5181
  449TIP3    H125542   7.564   5.722   8.232  1.6326 -0.2464 -1.4779
  449TIP3    H225543   7.544   5.616   8.126  0.5152 -2.6406  1.0039
  450TIP3   OH225544   7.659   6.909   7.647  0.2282  0.3769  0.0101
  450TIP3    H125545   7.610   6.965   7.708 -1.3155 -2.6037  1.7397
  450TIP3    H225546   7.730   6.872   7.700  0.3114 -0.4151 -0.6408
  451TIP3   OH225547   1.260   1.356   8.097 -0.4749  0.1778  0.4379
  451TIP3    H125548   1.319   1.299   8.047 -0.8024  1.1101 -1.0810
  451TIP3    H225549   1.317   1.423   8.135 -0.3492  0.0550  0.4671
  452TIP3   OH225550   4.790   6.735   8.012  0.7871  0.6579 -0.9277
  452TIP3    H125551   4.709   6.693   7.981  0.4806  1.2029 -0.8781
  452TIP3    H225552   4.836   6.665   8.059 -0.4330  0.7299  0.4788
  453TIP3   OH225553   1.110   5.981   7.139  0.0865 -0.5304 -0.4928
  453TIP3    H125554   1.204   5.989   7.122  0.1906  2.1151  0.8388
  453TIP3    H225555   1.104   5.922   7.214  0.7854  0.1811  0.1360
  454TIP3   OH225556   3.513   0.805   9.202  0.3623  0.8615  0.2428
  454TIP3    H125557   3.589   0.747   9.203  1.3520  1.9556 -2.3652
  454TIP3    H225558   3.528   0.864   9.276  1.5126  0.4088  0.4000
  455TIP3   OH225559   3.702   3.547   7.706  0.3136 -0.0666 -0.1529
  455TIP3    H125560   3.659   3.567   7.789 -0.6265  1.1586 -0.8871
  455TIP3    H225561   3.763   3.620   7.693  1.5858 -1.0400  0.1708
  456TIP3   OH225562   3.426   1.519   9.153 -0.1017  0.0702 -0.0870
  456TIP3    H125563   3.376   1.502   9.233 -1.2029 -1.7551 -1.0956
  456TIP3    H225564   3.498   1.457   9.156  1.0393  1.3776  0.4193
  457TIP3   OH225565   3.824   7.337   9.438 -0.2279 -0.4815 -0.1464
  457TIP3    H125566   3.829   7.432   9.429 -0.0984 -0.3128  1.3325
  457TIP3    H225567   3.731   7.317   9.434 -0.2000 -0.4357 -1.4742
  458TIP3   OH225568   5.142   1.052   8.820  0.3935 -0.0266 -0.3698
  458TIP3    H125569   5.194   1.132   8.812  0.9081 -0.4622 -1.8662
  458TIP3    H225570   5.184   0.990   8.760 -0.5026 -1.1447  0.1080
  459TIP3   OH225571   0.359   2.361   9.842  0.5816 -0.1563  0.1390
  459TIP3    H125572   0.343   2.289   9.781 -0.0244  0.8531 -0.9312
  459TIP3    H225573   0.383   2.318   9.924 -3.4045 -1.7351  0.6981
  460TIP3   OH225574   1.666   3.036   8.286 -0.6428 -0.2350 -0.1068
  460TIP3    H125575   1.679   3.095   8.361 -1.3499 -0.1206 -0.0698
  460TIP3    H225576   1.582   2.995   8.302 -1.0478  0.1758 -1.0933
  461TIP3   OH225577   7.163   3.972   7.924  0.1490  0.4144 -0.2116
  461TIP3    H125578   7.243   3.929   7.954  0.6367  1.4148 -0.0186
  461TIP3    H225579   7.097   3.949   7.989  0.6374  0.7296  0.3971
  462TIP3   OH225580   7.267   0.621   7.869  0.3785  0.0004  0.3718
  462TIP3    H125581   7.248   0.531   7.896 -1.4700  0.0067 -0.7522
  462TIP3    H225582   7.344   0.645   7.920  2.1441 -2.8760 -0.7147
  463TIP3   OH225583   5.350   5.337   9.083 -0.7747 -0.5139 -0.3421
  463TIP3    H125584   5.260   5.315   9.106 -1.2503  1.2528 -0.3566
  463TIP3    H225585   5.383   5.386   9.158 -0.1815 -0.2312 -0.7799
  464TIP3   OH225586   7.603   3.488   8.332 -0.9731  0.3347 -0.3272
  464TIP3    H125587   7.541   3.434   8.283 -0.3612 -0.8847  0.1895
  464TIP3    H225588   7.568   3.491   8.421  0.1542 -1.1953  0.2176
  465TIP3   OH225589   2.594   5.744   6.976 -0.1324 -0.0530  0.9658
  465TIP3    H125590   2.688   5.734   6.991  0.1075  0.1101 -0.3043
  465TIP3    H225591   2.573   5.832   7.007  0.3014  0.2086  0.5279
  466TIP3   OH225592   7.123   6.701   8.003  0.2617  0.1055 -0.1837
  466TIP3    H125593   7.105   6.610   8.028  0.2969 -0.8655 -3.2564
  466TIP3    H225594   7.201   6.695   7.947 -2.0618  1.3085 -3.9074
  467TIP3   OH225595   6.862   0.560   8.036 -0.1441  0.5232  0.1437
  467TIP3    H125596   6.924   0.501   7.994 -0.9459  1.2653 -2.2021
  467TIP3    H225597   6.853   0.526   8.125 -0.4267 -2.7829 -1.0293
  468TIP3   OH225598   4.815   4.755   7.751 -0.1474  0.4910 -0.2696
  468TIP3    H125599   4.781   4.822   7.810  1.7811 -0.5136  2.1578
  468TIP3    H225600   4.882   4.801   7.700  0.7662  0.5861  0.9765
  469TIP3   OH225601   4.122   0.788   8.229  0.2422  0.6604 -0.0669
  469TIP3    H125602   4.136   0.836   8.311  0.0738 -0.4158  0.6079
  469TIP3    H225603   4.053   0.725   8.250  1.3665 -0.7643 -0.5638
  470TIP3   OH225604   0.483   5.628   9.133  0.2577  0.0577  0.6846
  470TIP3    H125605   0.578   5.620   9.133  0.2469 -0.1560 -0.0512
  470TIP3    H225606   0.455   5.579   9.056 -0.4356  0.2956  0.7783
  471TIP3   OH225607   0.913   1.653   8.553  0.2246  0.0667  0.2225
  471TIP3    H125608   0.956   1.569   8.571 -1.1234 -0.8246 -0.5762
  471TIP3    H225609   0.900   1.653   8.458 -2.8999 -0.4294  0.5404
  472TIP3   OH225610   0.041   0.477   9.335 -0.0781  0.0522  0.1790
  472TIP3    H125611   0.006   0.461   9.423 -2.3466  0.7724 -0.5270
  472TIP3    H225612  -0.031   0.519   9.288  1.0053 -0.4986 -2.1024
  473TIP3   OH225613   3.757   1.406   7.401  0.2544  0.3251 -0.5338
  473TIP3    H125614   3.791   1.463   7.331  0.8962  1.5598  0.7301
  473TIP3    H225615   3.808   1.430   7.478 -0.7977 -0.6347  0.4992
  474TIP3   OH225616   5.167   2.910   8.186 -0.6488 -0.5815  0.1087
  474TIP3    H125617   5.178   2.940   8.277  0.1602  0.0946 -0.1882
  474TIP3    H225618   5.254   2.878   8.162 -1.1794 -1.9817 -0.0215
  475TIP3   OH225619   7.619   2.469   9.059 -0.0897  0.3491  0.2317
  475TIP3    H125620   7.695   2.497   9.008  0.2139 -0.4810  0.2198
  475TIP3    H225621   7.637   2.498   9.148 -0.3567  1.2924 -0.0080
  476TIP3   OH225622   7.474   6.329   8.168  0.5772  0.3736  0.0477
  476TIP3    H125623   7.440   6.309   8.255  1.5595 -1.4265  0.0645
  476TIP3    H225624   7.400   6.316   8.109  0.5025 -0.7766  0.3754
  477TIP3   OH225625   6.348   5.219   7.737  0.1663 -0.0956  0.0849
  477TIP3    H125626   6.394   5.143   7.774  1.1168  0.5141  0.2001
  477TIP3    H225627   6.272   5.182   7.692  1.6264 -1.3164 -1.5212
  478TIP3   OH225628   0.051   0.999   8.113 -0.2495 -0.0974  0.1992
  478TIP3    H125629   0.009   0.955   8.187  0.5496 -1.0917  0.0847
  478TIP3    H225630   0.042   1.092   8.132  0.2107 -0.3397  1.7084
  479TIP3   OH225631   5.548   6.772   9.332 -0.3850  0.5210 -0.3892
  479TIP3    H125632   5.601   6.782   9.253  1.3811 -1.5246  0.4183
  479TIP3    H225633   5.505   6.687   9.321 -0.1838  0.2553  0.7875
  480TIP3   OH225634   0.540   0.640   8.954 -0.5809  0.2145  0.1261
  480TIP3    H125635   0.458   0.688   8.955 -0.7155 -0.0236  0.4067
  480TIP3    H225636   0.589   0.673   9.029 -0.6946 -0.1246  0.3497
  481TIP3   OH225637   3.496   0.627   8.457 -0.4736 -0.3775  0.3154
  481TIP3    H125638   3.459   0.586   8.378 -1.8973  0.2061  0.6470
  481TIP3    H225639   3.590   0.634   8.439 -0.8567  0.2949 -1.5782
  482TIP3   OH225640   7.504   2.307   7.912 -0.7726  0.3089 -0.3391
  482TIP3    H125641   7.542   2.394   7.923  0.2617 -0.4013  2.4654
  482TIP3    H225642   7.564   2.262   7.852 -1.2626  1.4358 -1.7343
  483TIP3   OH225643   1.620   4.628   8.856  0.8368  0.2166 -0.3944
  483TIP3    H125644   1.684   4.697   8.839  0.1431  1.0316  0.1555
  483TIP3    H225645   1.567   4.663   8.928 -1.4131  0.4241 -2.0450
  484TIP3   OH225646   2.332   4.403   8.414 -0.0011  0.0668 -0.1045
  484TIP3    H125647   2.398   4.370   8.353 -0.5043 -0.3755 -0.4209
  484TIP3    H225648   2.304   4.325   8.463 -2.2200 -0.3130 -1.8251
  485TIP3   OH225649   4.206   2.952   7.101  0.0981 -0.6848  0.0686
  485TIP3    H125650   4.282   2.994   7.141 -0.8856 -0.0404  1.3325
  485TIP3    H225651   4.235   2.928   7.013  1.3175  0.8285  0.0192
  486TIP3   OH225652   5.985   4.822   9.178  0.0652  0.2152  0.0410
  486TIP3    H125653   6.054   4.805   9.242  0.8581 -1.1484 -1.1265
  486TIP3    H225654   5.904   4.794   9.222  0.2228  1.6756  1.3569
  487TIP3   OH225655   1.229   7.043   7.146 -0.1305  0.3581  0.1616
  487TIP3    H125656   1.272   7.116   7.101  0.9951 -0.8111 -0.7639
  487TIP3    H225657   1.182   6.997   7.076  1.6128 -1.4697  0.0684
  488TIP3   OH225658   6.969   1.509   9.196  0.2264  0.0321  0.4548
  488TIP3    H125659   7.048   1.475   9.239  0.8272  1.8015  0.8013
  488TIP3    H225660   6.928   1.564   9.262  1.7992  3.8070 -1.4310
  489TIP3   OH225661   0.760   5.561   6.781 -0.0276  0.1685 -0.1601
  489TIP3    H125662   0.714   5.540   6.700 -0.7993 -0.2585  0.3735
  489TIP3    H225663   0.851   5.540   6.763 -0.2788 -0.4773 -0.7376
  490TIP3   OH225664   1.798   1.161   7.083  0.3424 -0.5630 -0.2840
  490TIP3    H125665   1.790   1.131   6.992 -1.6452 -0.6902 -0.1084
  490TIP3    H225666   1.777   1.254   7.079  0.6821 -0.4731 -0.0057
  491TIP3   OH225667   4.570   6.110   7.808 -0.3697 -0.5627  0.1933
  491TIP3    H125668   4.559   6.017   7.789 -1.3935 -0.7460  1.5470
  491TIP3    H225669   4.646   6.113   7.867  0.7185 -0.3354 -1.1644
  492TIP3   OH225670   5.956   5.174   8.399 -0.1084 -0.1542 -0.4238
  492TIP3    H125671   5.970   5.257   8.353  1.0907 -0.2618 -0.2853
  492TIP3    H225672   5.904   5.197   8.475  1.2518  0.7046  0.2853
  493TIP3   OH225673   6.732   3.699   8.834  0.1994 -0.0346  0.0203
  493TIP3    H125674   6.731   3.646   8.755  0.1569  1.3128 -0.9320
  493TIP3    H225675   6.816   3.679   8.876  0.2873 -0.6523 -0.4481
  494TIP3   OH225676   3.978   5.395   7.434  0.1522 -0.4815  0.0902
  494TIP3    H125677   3.985   5.434   7.522  0.0493  3.3378 -1.3933
  494TIP3    H225678   3.888   5.361   7.431 -0.1330  0.1097  1.2121
  495TIP3   OH225679   5.423   5.308   7.139  0.3691  0.5796 -0.2532
  495TIP3    H125680   5.426   5.404   7.134  0.3247  0.5754 -0.4013
  495TIP3    H225681   5.348   5.284   7.083  0.6525  0.4354 -0.5764
  496TIP3   OH225682   2.933   3.749   7.895  0.3521  0.1839  0.0504
  496TIP3    H125683   3.001   3.682   7.901 -0.7394 -0.9385  0.3461
  496TIP3    H225684   2.902   3.744   7.804  1.3266  1.3979 -0.3762
  497TIP3   OH225685   3.900   2.599   8.145 -0.4961  0.3914 -0.7157
  497TIP3    H125686   3.850   2.517   8.156  2.0740 -1.0175  2.3716
  497TIP3    H225687   3.979   2.573   8.098  1.1901  0.5412  1.8277
  498TIP3   OH225688   4.828   5.900   6.549  0.7195  0.0963  0.7112
  498TIP3    H125689   4.785   5.818   6.524 -0.0025  0.9456 -0.9412
  498TIP3    H225690   4.769   5.939   6.614 -0.9997  1.1230 -1.3401
  499TIP3   OH225691   4.110   3.756   8.698 -0.3071 -0.2175  0.2735
  499TIP3    H125692   4.122   3.662   8.713  1.6644  0.0908  0.8720
  499TIP3    H225693   4.051   3.760   8.622 -0.9223 -1.9082  0.6080
  500TIP3   OH225694   4.178   3.777   6.978 -0.5770  0.1351  0.2670
  500TIP3    H125695   4.122   3.800   6.903  0.0155  0.4013 -0.0987
  500TIP3    H225696   4.192   3.683   6.969  0.0692  0.2765 -0.3725
  501TIP3   OH225697   6.344   0.419   8.718 -0.1099 -0.6898 -0.0041
  501TIP3    H125698   6.330   0.486   8.651  1.8917  0.6764  0.8611
  501TIP3    H225699   6.305   0.455   8.797 -0.4790 -1.2940  0.0945
  502TIP3   OH225700   0.232   2.611   9.805  0.5451 -0.3632 -0.2715
  502TIP3    H125701   0.254   2.521   9.829 -0.8593 -0.3945  1.0124
  502TIP3    H225702   0.147   2.627   9.844 -0.1883  0.8782 -2.1916
  503TIP3   OH225703   0.346   7.001   7.946 -0.4645 -0.0841  0.3996
  503TIP3    H125704   0.354   6.952   8.027  1.5313 -0.6222 -0.0633
  503TIP3    H225705   0.315   6.937   7.882  2.6756 -1.0426 -0.3368
  504TIP3   OH225706   3.970   5.072   7.215  0.3635 -0.0495  0.5133
  504TIP3    H125707   4.019   5.148   7.184  1.1048 -0.3972  0.7984
  504TIP3    H225708   3.987   5.004   7.149  0.7367 -0.3419  0.9004
  505TIP3   OH225709   3.231   0.961   8.799 -0.9425  0.4436  0.2740
  505TIP3    H125710   3.171   0.967   8.725 -0.6165  0.7141  0.0295
  505TIP3    H225711   3.220   1.043   8.846  0.8586  1.5063 -1.0332
  506TIP3   OH225712   4.975   3.078   7.512  0.0585 -0.2007  0.3094
  506TIP3    H125713   5.051   3.118   7.553 -0.3280  1.0953 -0.1826
  506TIP3    H225714   5.011   3.016   7.449  0.6775 -0.4359  0.8883
  507TIP3   OH225715   2.553   3.842   7.616  0.4004  0.4168  0.2280
  507TIP3    H125716   2.496   3.891   7.558 -0.2787  0.4631  0.9195
  507TIP3    H225717   2.518   3.858   7.704  1.1534  0.0138  0.6134
  508TIP3   OH225718   0.116   1.721   8.366  0.3112  0.3219 -0.0687
  508TIP3    H125719   0.140   1.754   8.279  0.6227  0.9881  0.2537
  508TIP3    H225720   0.199   1.692   8.404  0.1456 -0.1545 -0.0708
  509TIP3   OH225721   0.801   0.496   7.989  0.3121  1.0072  0.8622
  509TIP3    H125722   0.715   0.518   7.955 -0.6877 -2.4952  0.8223
  509TIP3    H225723   0.805   0.540   8.074 -2.0622  0.2065  1.4526
  510TIP3   OH225724   7.311   6.727   7.791 -0.0202  0.1791 -0.0101
  510TIP3    H125725   7.292   6.660   7.725 -1.0476  0.6906 -0.2483
  510TIP3    H225726   7.399   6.705   7.822  0.1901 -0.4967 -1.0309
  511TIP3   OH225727   7.600   0.971   9.006 -0.1701  0.3766 -0.3134
  511TIP3    H125728   7.593   0.952   8.913 -0.4478  0.0699 -0.2304
  511TIP3    H225729   7.563   1.059   9.015 -0.8661  0.0908 -0.3752
  512TIP3   OH225730   0.248   0.350   9.212 -0.1280 -0.0954 -0.0552
  512TIP3    H125731   0.175   0.402   9.248 -0.1706 -1.5212  2.1085
  512TIP3    H225732   0.325   0.380   9.261  0.2313 -0.5228 -0.3569
  513TIP3   OH225733   0.082   3.139   7.734 -0.2163 -0.1881  0.2932
  513TIP3    H125734   0.113   3.084   7.806  2.1532 -1.1620 -1.3199
  513TIP3    H225735   0.021   3.083   7.686  0.3478 -0.5711  0.0077
  514TIP3   OH225736   0.284   7.674   7.097 -0.4165 -0.0971  0.4713
  514TIP3    H125737   0.272   7.751   7.152 -0.0620  1.6301 -1.7133
  514TIP3    H225738   0.202   7.666   7.048 -0.6784 -1.5082  1.0941
  515TIP3   OH225739   6.441   6.142   7.502 -0.2173  0.2993 -0.2528
  515TIP3    H125740   6.439   6.186   7.587  0.7066 -0.2101  0.0478
  515TIP3    H225741   6.354   6.102   7.493 -0.2163  0.0946  0.5977
  516TIP3   OH225742   3.309   0.455   9.464 -0.5147 -0.2682 -0.1545
  516TIP3    H125743   3.230   0.401   9.457 -0.4312 -0.5117  0.6805
  516TIP3    H225744   3.337   0.468   9.374 -0.4261 -1.7936 -0.3688
  517TIP3   OH225745   3.810   5.146   8.741 -0.0406  0.1060  0.1867
  517TIP3    H125746   3.792   5.124   8.650 -0.7573  1.7504 -0.1077
  517TIP3    H225747   3.757   5.085   8.792 -1.7260  0.8835 -0.5652
  518TIP3   OH225748   2.540   5.434   8.927 -0.1323  0.2115 -0.1985
  518TIP3    H125749   2.612   5.435   8.990 -0.2727 -1.6129  0.0372
  518TIP3    H225750   2.583   5.446   8.842  0.4734 -0.8108 -0.0581
  519TIP3   OH225751   3.248   4.774   9.151 -0.1405 -0.3665 -0.2277
  519TIP3    H125752   3.160   4.772   9.113 -0.4997 -0.2315  0.5737
  519TIP3    H225753   3.275   4.866   9.144  0.7659 -0.7343 -2.2708
  520TIP3   OH225754   4.197   6.892   9.172 -0.0601  0.7741  0.0162
  520TIP3    H125755   4.276   6.849   9.206 -0.9514  0.0506  1.2763
  520TIP3    H225756   4.162   6.941   9.247 -0.5059  1.5489 -0.6811
  521TIP3   OH225757   1.569   0.674   8.637  0.4269 -0.4576 -0.3350
  521TIP3    H125758   1.533   0.585   8.628 -0.9333 -0.2576  2.1401
  521TIP3    H225759   1.495   0.731   8.614  0.1471 -0.0212  1.5300
  522TIP3   OH225760   3.879   4.572   7.345 -0.1857  0.5564  0.0290
  522TIP3    H125761   3.897   4.553   7.254 -1.7877 -0.5530 -0.0995
  522TIP3    H225762   3.827   4.497   7.376  0.1963  0.9686  1.8023
  523TIP3   OH225763   2.917   7.019   8.365  0.6643 -0.5829  0.2360
  523TIP3    H125764   2.830   7.052   8.390  1.0860  1.4519 -0.7555
  523TIP3    H225765   2.900   6.933   8.327 -0.9647 -0.1892 -0.0096
  524TIP3   OH225766   5.494   0.124   9.506 -0.2481  0.4249  0.0714
  524TIP3    H125767   5.417   0.147   9.558 -0.3264 -0.7770  0.5088
  524TIP3    H225768   5.467   0.141   9.416 -1.7981 -1.8984  0.0037
  525TIP3   OH225769   1.256   4.984   6.602 -0.2605 -0.2695 -0.6945
  525TIP3    H125770   1.310   5.058   6.571  0.0862 -0.6365 -0.9745
  525TIP3    H225771   1.291   4.964   6.689  0.4934 -0.9314 -1.1432
  526TIP3   OH225772   7.320   1.181   8.835 -0.4622 -0.3363  0.0586
  526TIP3    H125773   7.372   1.186   8.755 -2.1607 -1.9009 -1.2403
  526TIP3    H225774   7.383   1.195   8.905  1.4385 -0.6758 -1.4736
  527TIP3   OH225775   7.453   5.421   7.536 -0.0153  0.3199 -0.1474
  527TIP3    H125776   7.531   5.370   7.514 -0.6532 -0.1567 -1.3533
  527TIP3    H225777   7.479   5.471   7.613  1.6345  0.5120 -0.7893
  528TIP3   OH225778   5.458   2.007   8.379 -0.3154 -0.5344 -0.6105
  528TIP3    H125779   5.451   1.981   8.471  0.6042 -0.0928 -0.3992
  528TIP3    H225780   5.367   2.012   8.348 -0.7224  0.7104  0.6760
  529TIP3   OH225781   0.924   3.789   8.220  0.4150  0.2774 -0.1346
  529TIP3    H125782   0.861   3.861   8.217  0.6664  0.4646 -2.0338
  529TIP3    H225783   1.009   3.832   8.231  0.4064  0.1224  0.6540
  530TIP3   OH225784   5.840   4.260   8.367  0.3730 -0.3352  0.5348
  530TIP3    H125785   5.857   4.170   8.339  2.6766  0.4755 -0.9255
  530TIP3    H225786   5.784   4.296   8.299  0.8163 -0.1939  0.2416
  531TIP3   OH225787   5.049   4.794   7.563  0.4920 -0.0294 -0.0267
  531TIP3    H125788   5.115   4.862   7.576  1.1070 -0.6593  0.1622
  531TIP3    H225789   5.094   4.712   7.580 -0.0077 -0.5592 -1.1396
  532TIP3   OH225790   4.973   7.468   8.866  0.1754  0.0344 -0.4370
  532TIP3    H125791   5.035   7.477   8.938  0.5642 -0.9350 -0.6253
  532TIP3    H225792   4.924   7.388   8.887  0.4443 -0.3817 -1.3553
  533TIP3   OH225793   5.774   5.472   6.972  0.1236 -0.2153  0.1312
  533TIP3    H125794   5.769   5.439   7.061 -1.4448  1.3142  0.6707
  533TIP3    H225795   5.770   5.567   6.981 -0.7496 -0.0480 -1.5835
  534TIP3   OH225796   0.373   5.470   8.932  0.7005  0.0739 -0.0382
  534TIP3    H125797   0.321   5.487   8.853  1.1629  0.7399 -0.2065
  534TIP3    H225798   0.341   5.385   8.963  0.9918 -0.5442 -1.3436
  535TIP3   OH225799   1.644   4.930   9.130  0.7127  0.1648  0.1310
  535TIP3    H125800   1.649   4.992   9.058  0.6147  0.3378  0.2685
  535TIP3    H225801   1.703   4.965   9.197  0.2854  0.3774  0.4030
  536TIP3   OH225802   6.159   0.141   8.713 -0.1377 -0.3593 -0.3490
  536TIP3    H125803   6.154   0.097   8.628 -1.0876  0.4007 -0.7113
  536TIP3    H225804   6.233   0.201   8.704 -2.6711  2.8444 -2.2695
  537TIP3   OH225805   6.520   7.345   7.470  0.3783 -0.0034 -0.2436
  537TIP3    H125806   6.545   7.253   7.474 -0.0044 -0.0719  0.7343
  537TIP3    H225807   6.561   7.377   7.390 -0.3986 -1.2843 -1.1965
  538TIP3   OH225808   3.915   5.913   9.432 -0.0663 -0.2918  0.3446
  538TIP3    H125809   3.862   5.993   9.435 -1.1116 -1.0006  2.0061
  538TIP3    H225810   3.869   5.855   9.372 -1.7959 -1.2451  2.4521
  539TIP3   OH225811   0.410   1.112   9.542 -0.5092  0.7143  0.2126
  539TIP3    H125812   0.405   1.193   9.490  0.7112  0.4121 -0.4119
  539TIP3    H225813   0.347   1.053   9.500  1.6924 -0.1392 -2.1174
  540TIP3   OH225814   3.955   5.751   6.293 -0.6118 -0.5801 -0.1889
  540TIP3    H125815   3.885   5.792   6.241 -0.8211 -0.5572  0.1089
  540TIP3    H225816   3.908   5.699   6.359 -0.3647  0.5484  0.9107
  541TIP3   OH225817   7.639   0.602   7.684 -0.1259  0.0112  0.4097
  541TIP3    H125818   7.713   0.644   7.726  0.0543 -2.1858  2.5025
  541TIP3    H225819   7.567   0.665   7.692  0.6542  0.7831  1.5275
  542TIP3   OH225820   2.489   4.816   7.802  0.3007  0.0560 -0.4368
  542TIP3    H125821   2.573   4.852   7.832  0.4438 -0.3028 -0.3980
  542TIP3    H225822   2.514   4.752   7.735 -0.0154  0.8644 -1.3487
  543TIP3   OH225823   0.109   1.943   9.064 -0.1986 -0.5322 -0.1645
  543TIP3    H125824   0.068   2.029   9.052 -0.5193 -0.7381 -0.5891
  543TIP3    H225825   0.075   1.911   9.147  0.1867 -0.1026  0.1622
  544TIP3   OH225826   2.109   0.172   7.317  0.4273  0.2208 -0.5649
  544TIP3    H125827   2.021   0.209   7.325 -0.5708 -1.5340 -2.3252
  544TIP3    H225828   2.101   0.084   7.353  1.9382  0.6063  0.7836
  545TIP3   OH225829   5.572   5.167   8.488  0.5019  0.2354 -0.1207
  545TIP3    H125830   5.548   5.254   8.455  0.1248  0.6305  1.1552
  545TIP3    H225831   5.643   5.184   8.549  1.3632 -0.5177 -0.8923
  546TIP3   OH225832   0.648   1.943   6.831 -0.0760 -0.9831 -0.2770
  546TIP3    H125833   0.554   1.933   6.848 -0.1573 -3.3209 -1.5905
  546TIP3    H225834   0.677   2.006   6.896 -2.6119  0.1002 -0.0621
  547TIP3   OH225835   7.034   0.696   8.491 -0.4265  0.3177  0.2018
  547TIP3    H125836   7.005   0.756   8.422  1.3709  0.8332 -0.1530
  547TIP3    H225837   6.961   0.695   8.553 -1.3600  1.2344 -0.8215
  548TIP3   OH225838   4.246   2.735   7.342 -0.6598 -0.3903 -0.4274
  548TIP3    H125839   4.181   2.772   7.402  0.4782  0.9707  0.0486
  548TIP3    H225840   4.245   2.641   7.360 -1.8300 -0.2761  0.2170
  549TIP3   OH225841   2.940   4.671   9.106 -0.4334 -0.1469  0.0813
  549TIP3    H125842   2.870   4.700   9.047 -0.8268  0.1985  0.7069
  549TIP3    H225843   3.013   4.650   9.047 -0.3269  1.5505 -0.4703
  550TIP3   OH225844   1.838   5.180   7.743  0.0113 -0.1287  0.5227
  550TIP3    H125845   1.762   5.148   7.695  0.5191  0.7742 -0.9592
  550TIP3    H225846   1.860   5.110   7.804 -1.5158 -0.7303  0.4202
  551TIP3   OH225847   4.277   5.897   7.804 -0.6480  0.2513  0.3536
  551TIP3    H125848   4.253   5.883   7.896  1.0117  2.0496  1.1168
  551TIP3    H225849   4.359   5.850   7.793 -1.6023 -1.2824 -0.7242
  552TIP3   OH225850   3.383   7.668   9.111  0.5975 -0.4666 -0.3252
  552TIP3    H125851   3.319   7.681   9.041  0.7807 -1.0830 -0.6207
  552TIP3    H225852   3.468   7.672   9.067  0.7235 -0.6522 -0.1047
  553TIP3   OH225853   3.530   5.255   8.265 -0.7489 -0.2835 -0.4229
  553TIP3    H125854   3.544   5.167   8.300 -0.8484 -0.5406 -1.0176
  553TIP3    H225855   3.525   5.311   8.343  1.1625 -0.5269 -0.0838
  554TIP3   OH225856   6.681   5.635   8.684  0.2053 -0.2744 -0.1772
  554TIP3    H125857   6.586   5.626   8.670  0.1918 -0.3668 -0.0240
  554TIP3    H225858   6.719   5.627   8.596  0.0893 -0.4676 -0.2094
  555TIP3   OH225859   7.211   1.108   8.408 -0.1347 -1.2425  0.1613
  555TIP3    H125860   7.138   1.152   8.452  0.0828  0.9159 -1.4821
  555TIP3    H225861   7.237   1.039   8.469 -2.7552 -1.3348  1.3255
  556TIP3   OH225862   1.973   5.958   9.047 -0.5333  0.4203 -0.0985
  556TIP3    H125863   1.976   5.889   8.980  0.5997  0.6907 -0.3456
  556TIP3    H225864   2.051   6.011   9.031 -1.5094  1.9229 -0.0598
  557TIP3   OH225865   5.357   0.191   9.278 -0.5078  0.0631  0.3037
  557TIP3    H125866   5.281   0.133   9.269 -0.0887 -0.2129 -2.4059
  557TIP3    H225867   5.319   0.277   9.297 -1.2817 -0.5807  1.8542
  558TIP3   OH225868   5.664   5.567   7.259  0.2003  0.4521 -0.6261
  558TIP3    H125869   5.573   5.550   7.233  0.1135 -0.7520  0.3517
  558TIP3    H225870   5.699   5.480   7.281  1.6499  0.8765 -1.1649
  559TIP3   OH225871   0.252   4.484   7.627  0.2250  0.2736  0.3885
  559TIP3    H125872   0.321   4.447   7.571 -0.5128 -0.2805 -0.1745
  559TIP3    H225873   0.255   4.431   7.706 -1.0043 -1.2338 -0.5174
  560TIP3   OH225874   2.068   6.401   8.273  0.0732  0.0341  1.0132
  560TIP3    H125875   1.976   6.405   8.300  0.0624  0.7682  0.9007
  560TIP3    H225876   2.117   6.408   8.355  0.0328 -0.4944  1.0870
  561TIP3   OH225877   0.187   3.323   8.176 -0.3607  0.1912 -0.0690
  561TIP3    H125878   0.160   3.331   8.268  1.5086 -1.1057  0.6394
  561TIP3    H225879   0.106   3.299   8.130 -1.0378 -0.6924  1.4884
  562TIP3   OH225880   6.837   7.334   9.088 -0.4238  1.0179 -0.1077
  562TIP3    H125881   6.835   7.322   9.183 -2.6961 -2.6246 -0.4343
  562TIP3    H225882   6.749   7.362   9.065 -1.2743 -2.2419 -1.3623
  563TIP3   OH225883   0.972   5.037   9.537 -0.2018 -0.1205  0.7505
  563TIP3    H125884   0.976   5.102   9.606  1.6716 -1.6314  2.2012
  563TIP3    H225885   1.064   5.014   9.520 -0.7398 -1.7285 -0.3011
  564TIP3   OH225886   3.005   3.863   7.620 -0.3160 -0.3289  0.6828
  564TIP3    H125887   3.061   3.932   7.655  0.3523 -1.2139  1.3768
  564TIP3    H225888   3.060   3.785   7.617 -0.9536 -0.7660 -0.4372
  565TIP3   OH225889   1.513   4.234   8.846  0.2198  0.6005 -0.5616
  565TIP3    H125890   1.494   4.310   8.791  1.5877  1.1452 -0.3294
  565TIP3    H225891   1.599   4.204   8.816  1.3065  1.3041  1.6679
  566TIP3   OH225892   3.957   3.623   7.255 -0.1656  0.1976 -0.0737
  566TIP3    H125893   3.978   3.577   7.174 -2.9108  0.9586 -1.3528
  566TIP3    H225894   3.995   3.710   7.243 -1.4775  0.6737 -1.1280
  567TIP3   OH225895   6.820   7.007   7.072 -0.3817  0.0894  0.0177
  567TIP3    H125896   6.849   7.091   7.035  1.1655  0.2111  1.4308
  567TIP3    H225897   6.734   7.026   7.109 -1.5219  0.2137 -2.5133
  568TIP3   OH225898   1.965   5.378   7.030  0.2151 -0.2827  0.1984
  568TIP3    H125899   1.953   5.348   6.940  1.5914  0.1737 -0.1737
  568TIP3    H225900   2.051   5.421   7.029  0.2871 -0.3395  1.7471
  569TIP3   OH225901   4.792   6.531   9.161 -0.2573  0.3597 -0.5534
  569TIP3    H125902   4.703   6.526   9.126 -0.4375 -1.0186  0.0433
  569TIP3    H225903   4.784   6.587   9.238 -0.9023 -0.7721  0.2470
  570TIP3   OH225904   4.759   4.947   8.913 -0.3698 -0.2964  0.6368
  570TIP3    H125905   4.707   4.957   8.833  0.1672 -0.2740  0.2853
  570TIP3    H225906   4.836   5.002   8.898 -0.4776  0.0666  1.3583
  571TIP3   OH225907   4.235   0.015   9.176  0.1933 -0.1194  0.5587
  571TIP3    H125908   4.146   0.046   9.157 -0.1346 -2.1886 -1.8820
  571TIP3    H225909   4.223  -0.047   9.248 -0.1021  0.6583  1.1932
  572TIP3   OH225910   1.281   6.164   8.666 -0.3317 -0.0080  0.3575
  572TIP3    H125911   1.327   6.238   8.625  0.7743 -0.4632  0.7305
  572TIP3    H225912   1.241   6.118   8.593 -0.8069  0.8022  0.0906
  573TIP3   OH225913   5.514   6.138   9.225 -0.5858  0.2578 -0.6741
  573TIP3    H125914   5.495   6.083   9.148 -1.0255  0.6184 -0.8222
  573TIP3    H225915   5.597   6.180   9.203 -0.0098 -0.6753 -0.3727
  574TIP3   OH225916   4.981   7.149   8.664  0.0124 -0.3523 -0.6588
  574TIP3    H125917   5.029   7.231   8.654  0.0882 -0.3574 -0.3653
  574TIP3    H225918   4.889   7.174   8.662  0.0379 -0.1672  0.1001
  575TIP3   OH225919   5.959   7.192   7.463 -0.4096 -0.5627 -0.2879
  575TIP3    H125920   5.967   7.239   7.380  0.3536 -0.9858 -0.4647
  575TIP3    H225921   6.027   7.125   7.459 -1.6572 -1.8952 -0.1735
  576TIP3   OH225922   3.869   2.380   9.672 -0.3712  0.2009  0.0878
  576TIP3    H125923   3.882   2.462   9.625  0.7189  0.6574  1.1430
  576TIP3    H225924   3.874   2.312   9.605 -0.6812  0.9511 -0.7064
  577TIP3   OH225925   6.882   6.011   9.462  0.1283  0.3703  0.0062
  577TIP3    H125926   6.965   6.050   9.490 -0.3577  1.8671 -0.5677
  577TIP3    H225927   6.845   6.074   9.401 -0.8932 -0.8300 -0.6668
  578TIP3   OH225928   6.830   6.841   7.913  0.1016  0.1133 -0.4286
  578TIP3    H125929   6.844   6.863   8.006 -1.4848 -0.5132 -0.0198
  578TIP3    H225930   6.896   6.774   7.895 -0.0220 -0.2723  0.4601
  579TIP3   OH225931   1.001   3.219   7.623 -0.4923 -0.0562 -0.2127
  579TIP3    H125932   1.015   3.273   7.545 -0.6701  0.1431 -0.1075
  579TIP3    H225933   1.072   3.244   7.682 -0.1686 -0.4419 -0.4386
  580TIP3   OH225934   4.816   1.059   8.225  0.5104 -0.3805 -0.4237
  580TIP3    H125935   4.844   1.115   8.298 -2.2090  1.3930 -0.6269
  580TIP3    H225936   4.897   1.015   8.198  2.2492  1.3094  1.5597
  581TIP3   OH225937   5.838   2.736   8.681  0.2834 -0.2034  0.2069
  581TIP3    H125938   5.824   2.707   8.771 -1.7520 -0.3623 -0.0993
  581TIP3    H225939   5.898   2.671   8.644  1.0785 -0.1834  1.4113
  582TIP3   OH225940   7.408   1.116   7.998 -0.5859 -0.2415 -0.4370
  582TIP3    H125941   7.319   1.089   7.973  0.0179 -0.8261 -2.0769
  582TIP3    H225942   7.465   1.075   7.932  1.0716 -1.2585  1.5237
  583TIP3   OH225943   3.825   4.855   7.914 -0.0905  0.2572  1.1847
  583TIP3    H125944   3.850   4.897   7.997 -0.8762  0.3264  1.3961
  583TIP3    H225945   3.795   4.928   7.859  2.8059  0.5749 -0.1160
  584TIP3   OH225946   2.762   1.334   8.888  0.3185  0.2889 -0.4126
  584TIP3    H125947   2.781   1.373   8.973 -1.3044  1.0390 -0.3516
  584TIP3    H225948   2.681   1.284   8.902 -0.5810  1.3073 -1.7245
  585TIP3   OH225949   0.574   6.603   7.132  0.1139  0.0429  0.4198
  585TIP3    H125950   0.589   6.539   7.062  2.8327  1.4901 -0.4544
  585TIP3    H225951   0.495   6.650   7.104 -0.6964 -1.4724  0.0045
  586TIP3   OH225952   5.811   5.602   8.900 -0.1763  0.6036 -0.7018
  586TIP3    H125953   5.811   5.508   8.913  1.2468  0.6834  0.0485
  586TIP3    H225954   5.723   5.630   8.926 -0.9809 -0.6162 -1.9808
  587TIP3   OH225955   3.157   4.575   8.960  0.0883  0.3588 -0.2175
  587TIP3    H125956   3.236   4.611   9.001  0.4157 -1.3427  0.7727
  587TIP3    H225957   3.160   4.481   8.981 -3.5900  0.5711  2.2711
  588TIP3   OH225958   0.023   3.658   8.694 -1.2983 -0.2900 -0.1693
  588TIP3    H125959   0.096   3.626   8.747 -1.5224 -2.5290 -1.0683
  588TIP3    H225960   0.019   3.752   8.710  0.4116 -0.4725  1.5460
  589TIP3   OH225961   7.454   4.969   7.798 -0.0757 -0.2678  0.1884
  589TIP3    H125962   7.450   4.878   7.768 -1.6850 -0.0134 -0.4728
  589TIP3    H225963   7.520   4.968   7.867  0.1485 -1.8775  0.0066
  590TIP3   OH225964   6.936   7.595   9.172  0.1058  0.2683  0.2677
  590TIP3    H125965   7.030   7.614   9.164  0.7316 -2.2145  0.7691
  590TIP3    H225966   6.908   7.579   9.082  0.6570 -0.7992  0.2580
  591TIP3   OH225967   4.573   6.343   6.788  1.1661  1.0803  0.1031
  591TIP3    H125968   4.501   6.304   6.839 -1.2762  1.1435 -2.9823
  591TIP3    H225969   4.570   6.436   6.810 -0.2045  1.1947 -0.4236
  592TIP3   OH225970   2.304   6.915   6.682 -0.4655 -0.0120 -0.2974
  592TIP3    H125971   2.324   6.855   6.609  0.5067 -0.0577  0.0012
  592TIP3    H225972   2.381   6.913   6.737 -1.6386 -0.9111  1.4056
  593TIP3   OH225973   2.522   4.811   8.165 -0.2492 -0.1759 -0.0493
  593TIP3    H125974   2.584   4.796   8.237 -0.7380  0.4143  0.5031
  593TIP3    H225975   2.516   4.726   8.121 -0.7566 -0.8509  1.2513
  594TIP3   OH225976   4.159   3.006   8.307  0.6640  0.2065  0.4738
  594TIP3    H125977   4.184   3.031   8.218 -0.9830 -0.8795 -0.3590
  594TIP3    H225978   4.141   2.912   8.301  1.2558 -0.0519  2.1531
  595TIP3   OH225979   7.059   3.988   7.064 -0.7514  0.0795 -0.5114
  595TIP3    H125980   7.141   4.008   7.019 -0.0072  0.7290  1.0933
  595TIP3    H225981   6.996   4.050   7.028  0.0160  1.0884 -0.1337
  596TIP3   OH225982   1.976   3.798   9.336  0.3440  0.0069  0.4201
  596TIP3    H125983   1.977   3.742   9.259 -0.1556 -0.1247  0.5058
  596TIP3    H225984   2.038   3.757   9.396 -0.3540 -0.7125  0.6629
  597TIP3   OH225985   0.471   1.924   7.771 -0.6123  0.0016  0.1041
  597TIP3    H125986   0.560   1.958   7.780  0.3116 -1.6784 -1.8400
  597TIP3    H225987   0.427   1.949   7.852  1.9604 -0.0611  1.6204
  598TIP3   OH225988   6.516   3.527  20.267 -0.6306 -0.0995 -0.1834
  598TIP3    H125989   6.498   3.455  20.328 -0.8111 -1.2255 -1.5077
  598TIP3    H225990   6.612   3.532  20.264 -0.5788 -1.0689 -0.9093
  599TIP3   OH225991   7.578   7.621   8.191  0.0077  0.5085 -0.1473
  599TIP3    H125992   7.582   7.636   8.286  1.2534  0.0793 -0.1153
  599TIP3    H225993   7.507   7.678   8.161 -0.9529  0.0514  1.1499
  600TIP3   OH225994   0.694   1.814   8.014 -0.2381  0.0804  0.0856
  600TIP3    H125995   0.617   1.819   7.958 -0.5662  1.2221  0.5984
  600TIP3    H225996   0.659   1.810   8.103  0.2744  1.2032  0.3576
  601TIP3   OH225997   0.718   3.962   7.145  0.3349  0.9194  0.0466
  601TIP3    H125998   0.667   3.908   7.084  2.4967  0.2898 -1.3036
  601TIP3    H225999   0.685   4.051   7.132 -0.2982  0.5622 -0.8984
  602TIP3   OH226000   4.913   6.535   8.150 -0.6740  0.1355  0.3272
  602TIP3    H126001   4.965   6.466   8.107  0.2386  2.0143 -1.8181
  602TIP3    H226002   4.947   6.538   8.239 -0.0243 -1.4987  0.1723
  603TIP3   OH226003   3.095   4.287   9.400  0.0087 -0.6601  0.3578
  603TIP3    H126004   3.121   4.198   9.374  1.9533 -0.0522  0.0757
  603TIP3    H226005   3.055   4.324   9.321  0.1688 -0.9206  0.1503
  604TIP3   OH226006   6.682   1.423   9.154 -0.0696  0.1365  0.0790
  604TIP3    H126007   6.635   1.383   9.081 -1.4290 -0.1372  1.0513
  604TIP3    H226008   6.774   1.413   9.133 -0.4316 -0.2609 -1.4139
  605TIP3   OH226009   3.206   6.574   8.971  0.0945 -0.6323  0.7106
  605TIP3    H126010   3.133   6.612   9.019 -1.0211 -1.1855 -0.4720
  605TIP3    H226011   3.180   6.581   8.879  2.2146  0.5676  0.1076
  606TIP3   OH226012   3.094   6.286   9.006 -0.3250 -0.1563 -0.4995
  606TIP3    H126013   3.134   6.206   9.040  0.2580  0.5718  0.5874
  606TIP3    H226014   3.162   6.353   9.013 -1.1559  0.6967 -0.3100
  607TIP3   OH226015   1.902   6.512   7.506  0.2563  0.0912 -0.2504
  607TIP3    H126016   1.861   6.440   7.554  1.3574  0.3012  1.0797
  607TIP3    H226017   1.875   6.500   7.415 -0.1704 -1.5660  0.0780
  608TIP3   OH226018   3.849   2.463   7.867  0.0924 -0.0347  0.2301
  608TIP3    H126019   3.809   2.376   7.854 -0.8574  0.3422  0.5187
  608TIP3    H226020   3.928   2.445   7.918  0.9978 -0.9363 -1.3819
  609TIP3   OH226021   5.132   3.044   8.895  0.3112  0.1561 -0.0259
  609TIP3    H126022   5.131   3.105   8.968  0.8437 -0.0370  0.1422
  609TIP3    H226023   5.104   3.097   8.820 -0.4432  0.3029  0.3485
  610TIP3   OH226024   0.506   2.802   7.082 -0.2800  0.4804 -0.0641
  610TIP3    H126025   0.448   2.739   7.124  0.4261  1.2105  2.1132
  610TIP3    H226026   0.448   2.872   7.051 -0.7262  0.3743  0.5364
  611TIP3   OH226027   3.698   5.906   7.648  0.0389 -0.5518 -0.1534
  611TIP3    H126028   3.731   5.980   7.597  1.1404 -0.3610  0.7994
  611TIP3    H226029   3.604   5.921   7.653  0.3730  1.5623  1.1567
  612TIP3   OH226030   2.335   1.865   8.954  0.5357 -0.0572 -0.0580
  612TIP3    H126031   2.392   1.793   8.926 -0.7147 -0.7522 -0.9740
  612TIP3    H226032   2.366   1.889   9.041 -0.3268 -3.2303  1.2645
  613TIP3   OH226033   4.094   6.079   8.133  0.4432  0.5409 -0.1336
  613TIP3    H126034   4.124   6.065   8.223 -1.6852  1.8791  0.8959
  613TIP3    H226035   4.083   6.174   8.126 -0.9938  0.3387 -1.2169
  614TIP3   OH226036   6.500   2.056   8.536 -0.7148 -0.0219  0.0132
  614TIP3    H126037   6.480   1.965   8.560  0.5930 -0.4967 -0.5757
  614TIP3    H226038   6.414   2.095   8.519 -1.3517 -0.9498  0.9133
  615TIP3   OH226039   7.248   5.679   7.681  0.3682 -0.0241 -0.1997
  615TIP3    H126040   7.157   5.663   7.659  0.4494 -0.1778 -0.4259
  615TIP3    H226041   7.268   5.614   7.749 -0.4160  1.6380  1.7141
  616TIP3   OH226042   3.655   0.670   6.775 -0.5948  0.0421  0.1197
  616TIP3    H126043   3.710   0.614   6.830 -0.4565  1.8160  1.9024
  616TIP3    H226044   3.596   0.713   6.837 -1.4086  1.0642 -1.3164
  617TIP3   OH226045   5.127   3.838   8.290 -0.0803  0.1886 -0.0589
  617TIP3    H126046   5.187   3.797   8.352  1.8177  0.7889 -1.3838
  617TIP3    H226047   5.111   3.925   8.326  0.0717  0.1221  0.1709
  618TIP3   OH226048   4.043   2.904   7.939 -0.2039 -0.1361 -0.1357
  618TIP3    H126049   3.970   2.874   7.885 -0.1954 -0.8384  0.2387
  618TIP3    H226050   4.055   2.995   7.913 -1.3586  0.0608 -0.0469
  619TIP3   OH226051   6.465   7.478   8.205 -0.8152  0.2834 -0.1312
  619TIP3    H126052   6.527   7.551   8.211  0.5073 -0.7965 -0.1427
  619TIP3    H226053   6.454   7.463   8.112  0.4169 -0.7058 -0.1558
  620TIP3   OH226054   6.938   1.268   7.887  0.8111 -0.3183  0.8950
  620TIP3    H126055   6.933   1.333   7.816  0.7789 -0.1510  1.0480
  620TIP3    H226056   6.977   1.316   7.960  1.7141 -0.7526  0.6987
  621TIP3   OH226057   2.778   0.280   8.054  0.0992 -0.0178  0.1371
  621TIP3    H126058   2.781   0.242   8.142 -2.0214 -0.5022  0.0629
  621TIP3    H226059   2.726   0.218   8.003  0.6669  0.6302 -1.2711
  622TIP3   OH226060   1.320   3.043   6.728 -0.8537 -0.4990  0.1783
  622TIP3    H126061   1.273   3.126   6.718 -1.8721 -0.9800  0.8107
  622TIP3    H226062   1.411   3.065   6.708 -1.4218  0.3123 -1.7143
  623TIP3   OH226063   7.455   6.815   9.128  0.3688 -0.2729 -0.0340
  623TIP3    H126064   7.377   6.871   9.123  0.2403 -0.4875 -0.5932
  623TIP3    H226065   7.516   6.863   9.184  0.5061  0.7411 -1.0040
  624TIP3   OH226066   3.961   6.166   7.342  0.2150  0.8577  0.4399
  624TIP3    H126067   3.993   6.201   7.259 -0.6060 -0.4581 -0.4565
  624TIP3    H226068   3.990   6.075   7.342  1.2257  1.1403  2.1593
  625TIP3   OH226069   5.403   7.646   7.137  0.3504 -0.8337  0.6880
  625TIP3    H126070   5.395   7.718   7.201  1.0690 -0.9091  0.8680
  625TIP3    H226071   5.313   7.631   7.107  0.3452  1.1123 -0.4432
  626TIP3   OH226072   5.607   4.932   8.708 -0.1084 -0.4716 -0.0445
  626TIP3    H126073   5.574   4.880   8.635 -0.9073 -0.4631  0.2949
  626TIP3    H226074   5.698   4.904   8.719  0.3681  0.2732 -1.7085
  627TIP3   OH226075   1.542   5.534   7.306 -0.2556 -0.2098  0.2325
  627TIP3    H126076   1.574   5.577   7.385 -0.7106  0.5750 -0.0074
  627TIP3    H226077   1.607   5.556   7.239 -1.2470  1.3512 -0.2452
  628TIP3   OH226078   7.391   4.795   7.538 -0.3998  0.5420 -0.2808
  628TIP3    H126079   7.433   4.729   7.483  1.0304  2.0944 -1.1698
  628TIP3    H226080   7.433   4.785   7.624  1.6983  1.8787 -1.0834
  629TIP3   OH226081   0.307   6.869   7.296 -0.4827 -0.0041  0.6704
  629TIP3    H126082   0.309   6.963   7.280 -0.0617  0.2156  1.9040
  629TIP3    H226083   0.237   6.857   7.361 -0.5806 -0.5496  0.4714
  630TIP3   OH226084   7.137   6.111   9.486 -0.2708  0.7927 -0.1972
  630TIP3    H126085   7.185   6.166   9.424 -2.3511  0.8267 -1.8908
  630TIP3    H226086   7.193   6.035   9.498  0.6783  1.2780 -1.2855
  631TIP3   OH226087   0.378   0.954   9.251 -0.7036 -0.0750  0.2703
  631TIP3    H126088   0.356   0.875   9.300 -0.1752 -0.3039  0.1401
  631TIP3    H226089   0.321   0.950   9.174 -1.6231  0.3468  0.9043
  632TIP3   OH226090   7.144   1.209   9.043  0.2077  0.2497 -0.2475
  632TIP3    H126091   7.052   1.215   9.016  0.0253 -0.8073  0.0897
  632TIP3    H226092   7.193   1.206   8.961 -0.3616 -3.4095 -0.6433
  633TIP3   OH226093   6.902   4.056   8.716  0.0213  0.3279 -0.0075
  633TIP3    H126094   6.856   4.138   8.699  0.8343  0.8880  0.4488
  633TIP3    H226095   6.897   4.044   8.811 -1.3509 -0.9184 -0.2037
  634TIP3   OH226096   7.065   5.621   9.483 -0.4126  0.2857  0.4697
  634TIP3    H126097   6.998   5.676   9.523 -1.5060 -1.1943  0.7272
  634TIP3    H226098   7.017   5.552   9.438  0.8624  0.5621 -1.4553
  635TIP3   OH226099   1.578   0.944   8.183 -0.2321 -0.3850  0.2191
  635TIP3    H126100   1.584   0.926   8.089 -1.7442 -1.0197  0.2221
  635TIP3    H226101   1.493   0.986   8.195  0.2116  0.2818  1.2309
  636TIP3   OH226102   1.988   6.897   8.392 -0.1632  0.2122 -0.4164
  636TIP3    H126103   1.961   6.943   8.313  2.7984  0.4861 -1.3732
  636TIP3    H226104   1.963   6.956   8.463 -1.6381  0.5785 -1.1893
  637TIP3   OH226105   3.939   1.672   7.346 -0.3898 -0.0076 -0.4536
  637TIP3    H126106   3.967   1.608   7.412  0.7982 -0.4285 -1.3154
  637TIP3    H226107   3.943   1.756   7.391 -1.4557 -0.4629  0.5491
  638TIP3   OH226108   4.052   2.431   7.684 -0.2858  0.0990  0.1581
  638TIP3    H126109   4.041   2.517   7.642 -0.4975  0.5273  1.0496
  638TIP3    H226110   3.988   2.432   7.755  0.3803 -0.4141  0.7706
  639TIP3   OH226111   0.797   6.339   6.682 -0.3607 -0.9258 -0.2120
  639TIP3    H126112   0.850   6.261   6.666  0.4383 -0.4065 -0.1711
  639TIP3    H226113   0.804   6.390   6.601 -0.9245 -0.9170 -0.2609
  640TIP3   OH226114   3.342   7.396   8.410  0.8636  0.4219  0.2487
  640TIP3    H126115   3.328   7.331   8.479  0.0004 -0.6824 -0.9128
  640TIP3    H226116   3.326   7.480   8.453  0.3219 -0.2280  1.3884
  641TIP3   OH226117   0.592   2.206   9.042  0.1103 -0.5673  0.4315
  641TIP3    H126118   0.625   2.155   8.969  0.0256  3.0367 -2.4167
  641TIP3    H226119   0.498   2.188   9.044 -0.0238 -0.1476 -0.9394
  642TIP3   OH226120   3.797   6.755   7.477  0.5932 -0.4895  0.3157
  642TIP3    H126121   3.792   6.795   7.391  2.5102  0.9768  0.8113
  642TIP3    H226122   3.767   6.823   7.537  1.9381 -0.4560  1.0041
  643TIP3   OH226123   2.032   1.888   6.954 -0.8597 -0.0779  0.4576
  643TIP3    H126124   2.009   1.835   6.877  0.4574 -0.3435  0.2256
  643TIP3    H226125   2.093   1.953   6.920  0.2276 -0.5816  1.3687
  644TIP3   OH226126   3.493   4.447   7.361  0.3212  0.2309  0.1332
  644TIP3    H126127   3.557   4.411   7.422 -0.3914 -2.0832 -0.3916
  644TIP3    H226128   3.517   4.410   7.276 -1.1065  0.0926 -0.2368
  645TIP3   OH226129   6.007   0.599   7.531 -0.0942  0.3725  0.1623
  645TIP3    H126130   5.961   0.629   7.453  2.9129  1.3275 -1.3884
  645TIP3    H226131   6.025   0.506   7.515  0.4101  0.5369 -0.2681
  646TIP3   OH226132   0.232   2.910   7.883 -0.1312  0.3142  0.0591
  646TIP3    H126133   0.283   2.870   7.954  3.8800 -1.7662 -3.5352
  646TIP3    H226134   0.186   2.837   7.842  0.0750  0.9350 -1.3090
  647TIP3   OH226135   2.776   5.075   7.414  0.1772 -0.0756  0.1778
  647TIP3    H126136   2.757   5.158   7.459  1.4310 -0.8023  2.1900
  647TIP3    H226137   2.867   5.082   7.388  0.0943 -0.5635 -0.2558
  648TIP3   OH226138   4.304   5.641   8.919 -0.1468  1.0123 -0.0738
  648TIP3    H126139   4.251   5.704   8.969 -1.7599  0.1560 -0.6164
  648TIP3    H226140   4.358   5.597   8.985 -1.2848  0.8038  0.7495
  649TIP3   OH226141   1.552   7.629   7.652 -0.2060 -0.5795 -0.3596
  649TIP3    H126142   1.633   7.613   7.699 -1.2158 -0.4254  1.5087
  649TIP3    H226143   1.580   7.661   7.566  1.7635  2.8390  1.3564
  650TIP3   OH226144   0.337   0.838   8.935 -0.0955  0.1695 -0.1621
  650TIP3    H126145   0.417   0.892   8.931  1.1958 -1.5394  0.9026
  650TIP3    H226146   0.268   0.900   8.958  0.8665  1.7432 -1.2810
  651TIP3   OH226147   5.671   5.544   6.539  0.2001 -1.0279 -1.0050
  651TIP3    H126148   5.615   5.621   6.532  1.7912  0.3234  0.3941
  651TIP3    H226149   5.640   5.499   6.617  1.7319  0.3976  0.5195
  652TIP3   OH226150   1.624   0.257   8.568 -0.4374 -0.0279 -0.0025
  652TIP3    H126151   1.673   0.287   8.492  0.7291  1.3973  1.2520
  652TIP3    H226152   1.596   0.169   8.545  1.9742 -0.5805 -1.1340
  653TIP3   OH226153   7.544   7.359   7.880  0.5725  0.5235  0.6441
  653TIP3    H126154   7.624   7.406   7.855  1.0140 -0.0385  0.9845
  653TIP3    H226155   7.534   7.377   7.973  1.0916 -0.5457  0.9232
  654TIP3   OH226156   3.323   5.113   7.819 -0.4134  0.6638 -0.2159
  654TIP3    H126157   3.286   5.131   7.906 -1.6800 -0.6242 -0.4507
  654TIP3    H226158   3.324   5.018   7.813 -0.6295  0.7414 -1.7189
  655TIP3   OH226159   7.587   7.264   8.927  0.0323 -0.6046 -0.1161
  655TIP3    H126160   7.623   7.178   8.945  2.7335  0.6160  0.8316
  655TIP3    H226161   7.626   7.290   8.844  0.5782  0.3210  0.4048
  656TIP3   OH226162   2.471   0.219   8.431 -0.1646  0.3681  0.4571
  656TIP3    H126163   2.435   0.130   8.441  0.6237 -0.1342 -0.9344
  656TIP3    H226164   2.403   0.267   8.384  0.7552 -0.4973 -1.8980
  657TIP3   OH226165   3.454   3.006   8.250  0.3922 -0.3727 -0.0719
  657TIP3    H126166   3.428   2.925   8.294  0.0509 -0.2061  0.0368
  657TIP3    H226167   3.372   3.051   8.233  0.4634 -0.6781 -1.3646
  658TIP3   OH226168   2.084   1.133   8.252  0.5481 -0.9002  0.1474
  658TIP3    H126169   2.014   1.189   8.285 -0.7888 -2.6284  0.3513
  658TIP3    H226170   2.108   1.078   8.327  0.7528 -1.6537 -0.4588
  659TIP3   OH226171   1.675   0.837   7.438  0.0353 -0.9253 -0.4235
  659TIP3    H126172   1.592   0.845   7.391 -0.9446  2.3336  1.5683
  659TIP3    H226173   1.656   0.774   7.508 -0.9853  0.1396  0.3025
  660TIP3   OH226174   0.103   1.056   9.344 -0.6621 -0.0302 -0.3821
  660TIP3    H126175   0.191   1.031   9.316 -0.0310  0.2174  1.2695
  660TIP3    H226176   0.047   0.982   9.320  0.2769 -0.8542 -0.0516
  661TIP3   OH226177   4.558   7.240   8.053  0.0901  0.3399 -0.6622
  661TIP3    H126178   4.619   7.230   8.126  0.9658 -4.1249 -1.7473
  661TIP3    H226179   4.489   7.176   8.069 -1.4272  1.4511 -2.2519
  662TIP3   OH226180   1.823   5.745   7.139  0.5099  0.3130  0.0454
  662TIP3    H126181   1.786   5.671   7.090  1.2549  0.2572 -0.4437
  662TIP3    H226182   1.820   5.717   7.230 -1.5738  0.7051  0.1529
  663TIP3   OH226183   5.744   4.523   9.171 -0.1965 -0.0954 -0.3429
  663TIP3    H126184   5.743   4.602   9.225  0.0761 -0.2957 -0.0387
  663TIP3    H226185   5.836   4.512   9.148  0.0281 -1.2450  0.9954
  664TIP3   OH226186   6.538   7.465   7.204  0.1411  0.2004 -0.3687
  664TIP3    H126187   6.455   7.479   7.160  0.1827 -1.1449 -0.9204
  664TIP3    H226188   6.558   7.549   7.246 -1.0709  0.7813 -0.9220
  665TIP3   OH226189   3.576   7.302   9.341  0.0493 -0.2377  0.6517
  665TIP3    H126190   3.545   7.215   9.315  0.5131 -0.2318  0.0349
  665TIP3    H226191   3.514   7.363   9.301  0.3602 -0.2525  0.1410
  666TIP3   OH226192   1.241   0.518   8.373  0.6187  0.1586 -0.8335
  666TIP3    H126193   1.163   0.495   8.423 -0.6830  1.6695 -2.0489
  666TIP3    H226194   1.312   0.471   8.416 -0.8778 -0.8973  0.6048
  667TIP3   OH226195   6.043   1.440   8.720 -0.3583 -0.1344  0.1869
  667TIP3    H126196   6.044   1.401   8.633 -2.0233  0.1825 -0.0089
  667TIP3    H226197   5.979   1.387   8.769 -2.2546  1.9323  0.0764
  668TIP3   OH226198   7.482   6.405   9.120 -0.6206 -0.7214 -0.3346
  668TIP3    H126199   7.417   6.450   9.067 -0.9055  0.7910  1.1781
  668TIP3    H226200   7.560   6.401   9.065 -1.3564 -0.6249 -1.4105
  669TIP3   OH226201   2.096   0.150   8.620 -0.4396  0.3393  0.1337
  669TIP3    H126202   2.154   0.077   8.643  1.0072  1.8255  1.4687
  669TIP3    H226203   2.010   0.109   8.608  0.0888 -1.4661  1.9334
  670TIP3   OH226204   6.357   1.288   7.716 -0.1050 -0.5392  0.0933
  670TIP3    H126205   6.342   1.202   7.678  1.6798 -0.7732 -0.1631
  670TIP3    H226206   6.337   1.350   7.646 -0.2907 -0.8040 -0.0880
  671TIP3   OH226207   2.861   2.189   7.658  0.2982  0.6944  0.7262
  671TIP3    H126208   2.860   2.102   7.699  0.0804 -0.2170 -1.0833
  671TIP3    H226209   2.799   2.181   7.586  0.5998  2.2425  0.2724
  672TIP3   OH226210   4.461   4.879   8.377  0.1398  0.0146  0.3962
  672TIP3    H126211   4.420   4.957   8.339  3.0016  1.3590 -0.2337
  672TIP3    H226212   4.402   4.808   8.353 -0.7949  1.5004 -2.2568
  673TIP3   OH226213   4.673   7.080   8.813  0.4627 -0.3290  0.2657
  673TIP3    H126214   4.684   7.158   8.759  2.3762 -1.0331 -0.4222
  673TIP3    H226215   4.693   7.109   8.902 -2.3863  0.7562  0.6743
  674TIP3   OH226216   1.835   4.968   6.998  0.2054  0.3519  0.4230
  674TIP3    H126217   1.752   4.986   6.953  0.2796  0.5418  0.3617
  674TIP3    H226218   1.902   4.981   6.931  0.1128 -2.8990 -0.4339
  675TIP3   OH226219   3.661   2.029   8.758  0.5816 -0.3485 -0.3285
  675TIP3    H126220   3.718   2.050   8.832 -0.0732 -2.4398  0.8529
  675TIP3    H226221   3.719   1.985   8.695  1.0826  1.1973 -0.9932
  676TIP3   OH226222   1.057   6.799   8.892  0.4274 -0.1589  0.0487
  676TIP3    H126223   0.969   6.792   8.854  0.5885 -0.2760 -0.2991
  676TIP3    H226224   1.058   6.733   8.962  0.0752  0.1744  0.3774
  677TIP3   OH226225   5.890   3.894   8.721 -0.2503  0.2570 -0.5286
  677TIP3    H126226   5.806   3.861   8.753 -0.0405  0.7555  0.5864
  677TIP3    H226227   5.936   3.922   8.800  1.6703 -1.6054 -0.9024
  678TIP3   OH226228   7.351   0.129   9.107 -0.4317  0.4953 -0.5613
  678TIP3    H126229   7.399   0.144   9.189 -0.3309 -0.5816 -0.4157
  678TIP3    H226230   7.259   0.142   9.130 -0.2852  2.0008 -0.7115
  679TIP3   OH226231   7.121   1.140   7.576 -0.3826 -0.5450 -0.1656
  679TIP3    H126232   7.138   1.065   7.518 -1.0100 -2.7107  2.2331
  679TIP3    H226233   7.207   1.169   7.605 -0.0457  0.7077 -2.2258
  680TIP3   OH226234   1.163   2.179   7.898 -0.1994 -0.6757  0.0909
  680TIP3    H126235   1.229   2.113   7.916  2.0503  1.5180  0.4331
  680TIP3    H226236   1.183   2.250   7.959 -1.2466  1.1609 -1.5847
  681TIP3   OH226237   2.466   0.851   8.630 -0.2066 -0.0874  0.4030
  681TIP3    H126238   2.406   0.923   8.613 -1.4286 -0.9250  1.0165
  681TIP3    H226239   2.491   0.861   8.722  2.3043  1.4569 -0.3598
  682TIP3   OH226240   2.939   3.500   9.260  0.5691  0.5138  0.0393
  682TIP3    H126241   2.951   3.441   9.334 -0.1865  0.7195  0.3301
  682TIP3    H226242   2.870   3.460   9.208  0.4543  0.8398 -0.0634
  683TIP3   OH226243   5.448   3.341   7.999 -0.2670  0.0604 -0.0822
  683TIP3    H126244   5.470   3.389   7.919 -0.5455  0.0093 -0.1907
  683TIP3    H226245   5.426   3.253   7.970  0.5531 -0.2274  0.1519
  684TIP3   OH226246   3.072   3.588   8.899  0.0915  0.0774 -0.1521
  684TIP3    H126247   3.111   3.524   8.959 -2.0067 -0.8064  0.3756
  684TIP3    H226248   3.082   3.672   8.943 -0.5134 -0.4238  0.9891
  685TIP3   OH226249   5.762   7.516   8.873 -0.0738  0.2523  0.1656
  685TIP3    H126250   5.674   7.547   8.893 -0.2389  0.6663 -1.1056
  685TIP3    H226251   5.804   7.506   8.959 -1.0864  0.8341  0.7508
  686TIP3   OH226252   5.673   1.798   8.516 -0.0300  0.2907  0.1681
  686TIP3    H126253   5.619   1.787   8.594  0.3986 -0.8439  0.3350
  686TIP3    H226254   5.680   1.710   8.479  0.5863  0.6449 -0.6030
  687TIP3   OH226255   2.792   5.538   7.993  0.1298  0.1962 -0.1051
  687TIP3    H126256   2.697   5.540   7.989  0.1234  3.0866 -0.2715
  687TIP3    H226257   2.818   5.475   7.926 -1.6342 -1.0389  0.3009
  688TIP3   OH226258   1.981   2.444   9.701  0.6285 -0.3631  0.2878
  688TIP3    H126259   2.018   2.437   9.789  2.1175 -1.7860 -0.3884
  688TIP3    H226260   2.041   2.502   9.654  0.4348 -0.4524 -0.0724
  689TIP3   OH226261   1.732   0.397   8.776 -0.4029 -0.3784 -0.2868
  689TIP3    H126262   1.827   0.387   8.768 -0.2552  1.5126 -1.5896
  689TIP3    H226263   1.696   0.342   8.706 -0.1524  0.1877 -0.8765
  690TIP3   OH226264   3.955   4.348   8.895  0.8459  0.5573  0.0545
  690TIP3    H126265   3.937   4.410   8.966  1.3599  0.0811  0.6066
  690TIP3    H226266   3.994   4.272   8.938 -1.3992 -0.9360 -0.3717
  691TIP3   OH226267   0.791   3.458   9.017 -0.2780  0.4249  0.0012
  691TIP3    H126268   0.799   3.503   8.933  0.5332  0.2540 -0.0245
  691TIP3    H226269   0.711   3.493   9.056 -1.0049  0.0602 -1.1070
  692TIP3   OH226270   5.988   3.823   7.739  0.9910  0.0303 -0.1487
  692TIP3    H126271   6.048   3.824   7.663  2.4330  0.8591  0.9470
  692TIP3    H226272   6.045   3.806   7.814 -0.5465 -1.8725  0.6911
  693TIP3   OH226273   6.218   6.686   6.865  0.0487 -0.2065 -0.5274
  693TIP3    H126274   6.310   6.704   6.850 -0.0598  1.3274  0.4203
  693TIP3    H226275   6.200   6.607   6.814  1.7379 -0.2200 -1.1562
  694TIP3   OH226276   7.598   6.686   6.592  0.3189 -0.3681  0.8297
  694TIP3    H126277   7.512   6.698   6.551 -0.2872  1.5357  2.5311
  694TIP3    H226278   7.634   6.774   6.601  2.3604 -1.0900  0.4639
  695TIP3   OH226279   1.172   2.925   7.965  0.6069 -0.2685  0.6779
  695TIP3    H126280   1.247   2.937   7.907  0.3247  1.7952  0.6535
  695TIP3    H226281   1.211   2.895   8.048  1.1032 -2.2448 -0.2093
  696TIP3   OH226282   3.629   0.560   7.576  0.3576  0.3396  0.3107
  696TIP3    H126283   3.634   0.647   7.536 -0.3124  1.0627  1.7516
  696TIP3    H226284   3.697   0.561   7.643  2.4419 -1.3682 -1.5994
  697TIP3   OH226285   4.320   1.550   7.939  0.4904  0.4425  0.2187
  697TIP3    H126286   4.335   1.613   8.010  2.6849  1.9183 -1.4245
  697TIP3    H226287   4.302   1.467   7.984  1.0379  1.4690  2.4841
  698TIP3   OH226288   1.139   5.676   6.802  0.3529 -0.2443 -0.9859
  698TIP3    H126289   1.142   5.598   6.857 -1.4167 -1.8877 -3.0500
  698TIP3    H226290   1.225   5.681   6.762 -0.4681 -3.2716 -3.4512
  699TIP3   OH226291   2.568   2.574   8.534 -0.5052 -0.5231  0.5127
  699TIP3    H126292   2.474   2.565   8.522 -0.7284  0.6972  1.1565
  699TIP3    H226293   2.593   2.496   8.585 -0.7801 -1.9091 -1.3670
  700TIP3   OH226294   1.213   1.198   9.588 -0.3761  0.0623 -0.6197
  700TIP3    H126295   1.261   1.204   9.505 -0.3981  1.5114 -0.5468
  700TIP3    H226296   1.259   1.129   9.637  2.8783  2.5805  0.2180
  701TIP3   OH226297   6.174   6.422   8.084  0.7274 -0.6371 -0.4376
  701TIP3    H126298   6.114   6.406   8.012  0.0111 -0.8143  0.1793
  701TIP3    H226299   6.209   6.336   8.107  2.3858 -0.3659 -1.7484
  702TIP3   OH226300   2.263   4.184   7.667  0.2529 -0.1994 -0.6672
  702TIP3    H126301   2.208   4.112   7.637  2.0120 -0.9365 -2.3102
  702TIP3    H226302   2.212   4.263   7.646 -0.6974 -0.8754 -0.9973
  703TIP3   OH226303   3.586   6.630   8.009 -0.2071  0.8027 -0.1701
  703TIP3    H126304   3.611   6.598   8.095 -0.0391  0.2954 -0.4075
  703TIP3    H226305   3.643   6.706   7.995  0.8486 -0.0380 -0.4845
  704TIP3   OH226306   0.235   5.793   9.106 -0.6464  0.0780 -1.0667
  704TIP3    H126307   0.317   5.744   9.106 -1.1882 -0.8888 -2.0498
  704TIP3    H226308   0.175   5.740   9.159 -0.2656  1.5323  0.9425
  705TIP3   OH226309   0.379   2.781   9.627 -0.2966  0.2400 -0.4579
  705TIP3    H126310   0.353   2.724   9.699  0.5755 -1.1069 -1.1675
  705TIP3    H226311   0.396   2.866   9.668 -2.9988  0.4465  0.4231
  706TIP3   OH226312   3.810   2.636   8.407 -0.3293  0.0584 -0.0303
  706TIP3    H126313   3.835   2.599   8.322 -1.3569 -1.7206  0.4013
  706TIP3    H226314   3.735   2.585   8.435 -0.1914  0.7929  1.8492
  707TIP3   OH226315   3.515   7.444   7.754 -0.2239 -0.5120  0.1456
  707TIP3    H126316   3.424   7.423   7.733 -0.3340 -0.7456  0.8233
  707TIP3    H226317   3.549   7.487   7.675 -1.2883  0.6863  0.3027
  708TIP3   OH226318   1.660   3.535   9.252 -0.0245 -0.1558  0.0839
  708TIP3    H126319   1.744   3.502   9.284  1.0082  0.8622 -1.4272
  708TIP3    H226320   1.608   3.456   9.234  1.7006 -0.9395 -1.7242
  709TIP3   OH226321   5.878   3.389   7.472 -0.0185  0.4829 -0.1420
  709TIP3    H126322   5.909   3.447   7.403 -0.6307  0.1036 -0.7480
  709TIP3    H226323   5.784   3.406   7.477 -0.1824 -0.3632 -0.2379
  710TIP3   OH226324   1.994   1.255   8.621  0.4280 -0.1276  0.1507
  710TIP3    H126325   1.995   1.207   8.704 -0.0762 -1.4322 -0.5862
  710TIP3    H226326   1.950   1.337   8.642 -2.4486 -1.6638  0.5366
  711TIP3   OH226327   4.489   1.551   6.966  0.1158  0.0245  0.4985
  711TIP3    H126328   4.582   1.561   6.942  0.3868  0.6502  1.7250
  711TIP3    H226329   4.451   1.501   6.894  1.7010 -1.4266  0.6154
  712TIP3   OH226330   1.711   5.306   8.554 -0.6867  0.0532  0.0035
  712TIP3    H126331   1.783   5.320   8.492 -0.0332 -1.5665  0.3380
  712TIP3    H226332   1.712   5.211   8.571 -1.6966  0.2700  1.4598
  713TIP3   OH226333   1.975   0.897   7.697  0.1040  0.3038  0.4699
  713TIP3    H126334   1.880   0.890   7.703  0.1678 -0.8863  0.2515
  713TIP3    H226335   2.008   0.844   7.769  0.6181 -0.4657 -0.3194
  714TIP3   OH226336   4.389   1.564   7.229 -0.1354 -0.4315  0.3522
  714TIP3    H126337   4.424   1.581   7.142 -2.0448  3.6697  0.1614
  714TIP3    H226338   4.306   1.519   7.214  0.0260 -0.6631  0.1427
  715TIP3   OH226339   5.874   0.619   9.286  0.0645  0.1799 -0.0904
  715TIP3    H126340   5.811   0.656   9.223 -0.9565 -0.7680  0.3305
  715TIP3    H226341   5.880   0.685   9.355 -1.4257 -0.2009  0.4544
  716TIP3   OH226342   0.573   3.088   8.566 -0.3004 -0.3838  0.1150
  716TIP3    H126343   0.504   3.026   8.543 -0.0651 -0.2657 -0.9476
  716TIP3    H226344   0.606   3.119   8.482 -0.1177  0.8571  0.6255
  717TIP3   OH226345   3.787   6.216   9.391  0.3585  0.0575 -0.3968
  717TIP3    H126346   3.713   6.251   9.441  2.3325 -0.3004  3.1461
  717TIP3    H226347   3.844   6.291   9.376 -0.3485  0.2166 -2.5557
  718TIP3   OH226348   1.299   2.912   8.750 -0.2572  0.1396 -0.4264
  718TIP3    H126349   1.348   2.994   8.743  1.2874 -0.6330  0.9666
  718TIP3    H226350   1.209   2.940   8.767 -0.0323  1.5488 -1.3331
  719TIP3   OH226351   0.288   1.961   7.965 -0.0614 -0.3274  0.2089
  719TIP3    H126352   0.240   1.882   7.941  0.8480 -0.7017 -0.4232
  719TIP3    H226353   0.220   2.022   7.994 -0.6820 -1.7277  1.9073
  720TIP3   OH226354   1.688   7.414   7.410 -0.3829 -0.4174  0.6368
  720TIP3    H126355   1.711   7.469   7.335  0.8528 -1.0196  0.5589
  720TIP3    H226356   1.671   7.328   7.373  1.9132 -1.1694  1.1744
  721TIP3   OH226357   3.170   0.480   7.852  0.3894 -0.0219 -0.4321
  721TIP3    H126358   3.088   0.494   7.899  0.3806 -1.3373 -0.0219
  721TIP3    H226359   3.211   0.567   7.849 -0.4191  0.4065  0.4784
  722TIP3   OH226360   2.039   1.789   9.841  0.6389 -0.2943  0.2188
  722TIP3    H126361   2.015   1.701   9.871 -1.4591 -0.5372 -1.9227
  722TIP3    H226362   2.037   1.843   9.920  3.4668 -2.3310  1.8849
  723TIP3   OH226363   3.544   3.271   8.908  0.1420 -0.1669 -0.2647
  723TIP3    H126364   3.530   3.176   8.901 -2.4782  0.1739 -0.6673
  723TIP3    H226365   3.610   3.290   8.841  0.4968 -1.6613 -0.3807
  724TIP3   OH226366   5.175   1.447   7.821 -0.0053  0.1723  0.1042
  724TIP3    H126367   5.184   1.481   7.910 -1.1922 -0.0558  0.3380
  724TIP3    H226368   5.178   1.352   7.831  0.5703  0.1581 -0.1944
  725TIP3   OH226369   2.773   5.636   7.475  0.5464  0.1093  0.3229
  725TIP3    H126370   2.768   5.727   7.502 -0.3957  0.4519 -0.9559
  725TIP3    H226371   2.706   5.626   7.408  0.3158 -1.6422  0.7624
  726TIP3   OH226372   0.207   5.241   7.686  0.0797  0.3802  0.6316
  726TIP3    H126373   0.281   5.276   7.636 -1.3749 -0.4726 -2.3974
  726TIP3    H226374   0.223   5.147   7.689 -1.1622  0.0945 -0.6889
  727TIP3   OH226375   6.154   1.338   8.457 -0.4281 -0.3493 -0.0360
  727TIP3    H126376   6.237   1.372   8.490 -0.1384 -0.0856 -0.9986
  727TIP3    H226377   6.170   1.245   8.444 -0.5516 -0.4606  0.5598
  728TIP3   OH226378   5.192   5.671   7.449  0.1576  0.0352  0.2726
  728TIP3    H126379   5.166   5.602   7.511  0.2058  0.5260  0.8424
  728TIP3    H226380   5.287   5.671   7.452  0.1338  1.0647  1.3190
  729TIP3   OH226381   2.017   4.788   6.802 -0.3022  0.2536  0.2822
  729TIP3    H126382   2.005   4.883   6.809 -1.0729  0.0819  1.4767
  729TIP3    H226383   2.108   4.774   6.829 -1.0736  0.3766  3.2755
  730TIP3   OH226384   3.185   2.454   9.479 -0.3605 -0.5319 -0.4612
  730TIP3    H126385   3.258   2.510   9.455 -0.0223 -1.0456 -0.6603
  730TIP3    H226386   3.187   2.384   9.414 -1.0805 -0.5061 -0.5165
  731TIP3   OH226387   0.424   2.171   9.433  0.1687 -0.2540 -0.0950
  731TIP3    H126388   0.432   2.076   9.434 -1.0002 -0.3755 -0.4114
  731TIP3    H226389   0.392   2.192   9.345  1.7158  0.5708 -0.5028
  732TIP3   OH226390   6.939   1.454   7.692 -0.1830 -0.0892 -0.2075
  732TIP3    H126391   6.985   1.536   7.711  0.5200 -0.1233 -1.6354
  732TIP3    H226392   6.935   1.451   7.597 -2.5956 -0.4122 -0.1582
  733TIP3   OH226393   7.251   2.045   9.238 -1.0762 -0.2349 -0.2514
  733TIP3    H126394   7.310   1.986   9.191 -0.1021  0.4725  0.0504
  733TIP3    H226395   7.231   2.000   9.320 -0.4466 -0.2140 -0.0811
  734TIP3   OH226396   4.701   6.160   8.063  0.0031  0.0854 -0.4839
  734TIP3    H126397   4.786   6.146   8.105 -0.7328  1.5682  1.6364
  734TIP3    H226398   4.669   6.243   8.099 -2.9229 -1.0407 -0.2250
  735TIP3   OH226399   4.089   4.429   6.847  0.9350 -0.1704 -0.6140
  735TIP3    H126400   4.000   4.454   6.823  1.1358  2.1944  0.7910
  735TIP3    H226401   4.083   4.336   6.868 -1.3095  0.0326 -0.0993
  736TIP3   OH226402   1.408   1.079   7.555 -0.3897 -0.5163 -0.3644
  736TIP3    H126403   1.385   1.108   7.467  0.4961  0.8087 -0.1813
  736TIP3    H226404   1.503   1.073   7.555 -0.3733 -0.4943  0.5066
  737TIP3   OH226405   4.623   3.813   7.213  0.1396 -0.4164 -0.0846
  737TIP3    H126406   4.569   3.890   7.228 -0.9142 -0.9234 -1.1456
  737TIP3    H226407   4.692   3.843   7.154 -0.5404 -0.3717 -0.8815
  738TIP3   OH226408   0.471   2.218  10.044  0.5837 -0.5249 -0.4843
  738TIP3    H126409   0.454   2.132  10.004  0.1464 -0.8409  0.3484
  738TIP3    H226410   0.567   2.227  10.042  0.7240 -1.5351  0.3906
  739TIP3   OH226411   2.409   4.674   9.605 -0.6205 -0.2346 -0.0725
  739TIP3    H126412   2.406   4.608   9.674 -0.8836  0.3591  0.4880
  739TIP3    H226413   2.502   4.679   9.582 -0.6094 -0.8702 -0.1951
  740TIP3   OH226414   5.669   4.066   7.422  0.4795 -0.1022  0.1018
  740TIP3    H126415   5.760   4.097   7.430  0.1917  0.7839  0.1095
  740TIP3    H226416   5.623   4.141   7.383  0.0202 -1.0191 -1.1902
  741TIP3   OH226417   7.027   6.242   8.379 -0.1579 -0.2826 -0.2424
  741TIP3    H126418   7.117   6.272   8.369 -0.9115  1.4939 -2.6128
  741TIP3    H226419   6.974   6.322   8.375 -1.9343 -1.4231 -0.7915
  742TIP3   OH226420   3.901   6.112   7.790  0.1743  0.6152 -0.2349
  742TIP3    H126421   3.932   6.165   7.716 -0.6905 -0.6608 -1.5748
  742TIP3    H226422   3.938   6.025   7.774  0.3105  0.4204  1.0756
  743TIP3   OH226423   6.572   1.578   9.344  0.0834  0.3041  0.8426
  743TIP3    H126424   6.591   1.526   9.266  0.2325 -0.5433  1.4207
  743TIP3    H226425   6.625   1.657   9.335 -0.1086  0.3410 -0.0323
  744TIP3   OH226426   6.001   5.596   7.233  0.6585  0.2797  0.0732
  744TIP3    H126427   6.054   5.606   7.312 -0.5624 -0.4643  1.0314
  744TIP3    H226428   6.064   5.588   7.162  1.8002  0.5027  1.0340
  745TIP3   OH226429   2.013   6.127   8.268  0.0565  0.4662 -0.6907
  745TIP3    H126430   1.954   6.064   8.309  0.6053 -0.3330 -1.1038
  745TIP3    H226431   1.970   6.212   8.280 -0.9010 -0.0318 -0.5109
  746TIP3   OH226432   7.261   1.051   9.226 -0.1507  0.0101 -0.3901
  746TIP3    H126433   7.199   1.008   9.285 -0.8124  2.0954  0.5085
  746TIP3    H226434   7.208   1.086   9.155  0.4569 -1.1150 -1.4328
  747TIP3   OH226435   3.492   0.543   8.792  0.0179  0.7754  0.2514
  747TIP3    H126436   3.485   0.537   8.697  0.8920 -2.3758  0.2690
  747TIP3    H226437   3.418   0.599   8.819  0.6727  3.0688 -2.3006
  748TIP3   OH226438   1.912   7.223   7.917 -0.0816  0.2037 -0.2462
  748TIP3    H126439   1.839   7.232   7.979  1.2195 -0.6509  1.4663
  748TIP3    H226440   1.883   7.155   7.856 -1.5210  1.2939 -0.8519
  749TIP3   OH226441   7.116   0.238   9.175  0.3402 -0.7288  0.1179
  749TIP3    H126442   7.097   0.250   9.268  0.6117  0.9088 -0.0065
  749TIP3    H226443   7.030   0.239   9.132  0.3083  0.3422  0.1847
  750TIP3   OH226444   5.749   6.297   6.985 -0.5587  0.0299 -0.3341
  750TIP3    H126445   5.669   6.335   6.950  0.3440  1.2877 -1.1355
  750TIP3    H226446   5.727   6.270   7.074 -1.8793  0.2563 -0.5774
  751TIP3   OH226447   7.266   5.827   7.468 -0.5473  0.0278  0.0217
  751TIP3    H126448   7.319   5.771   7.411 -1.7021 -1.2826  0.1927
  751TIP3    H226449   7.263   5.781   7.551  0.6150  1.6397  1.0307
  752TIP3   OH226450   1.788   5.976   8.397 -0.1151  0.1313 -0.4238
  752TIP3    H126451   1.767   5.883   8.405  1.9811 -0.3213  0.5164
  752TIP3    H226452   1.705   6.020   8.418 -0.7653 -1.5019  0.7601
  753TIP3   OH226453   3.889   6.810   8.682  0.1319  0.3750 -0.7828
  753TIP3    H126454   3.829   6.740   8.708  0.3503  0.2073 -0.7328
  753TIP3    H226455   3.976   6.773   8.693  0.2746  0.9627  0.1514
  754TIP3   OH226456   0.781   4.363   8.131 -0.2603  0.1199  0.1274
  754TIP3    H126457   0.876   4.357   8.116 -0.0921  3.2498 -0.6239
  754TIP3    H226458   0.772   4.375   8.225  0.2476  1.6490 -0.0043
  755TIP3   OH226459   2.333   0.495   9.471  0.1012  0.3250 -0.5835
  755TIP3    H126460   2.367   0.584   9.480  2.6201 -0.7716  2.3674
  755TIP3    H226461   2.246   0.498   9.510  0.6979  1.2726  0.7435
  756TIP3   OH226462   6.927   7.261   7.028 -0.4448 -0.1233  0.1601
  756TIP3    H126463   6.866   7.321   7.070  0.0931  0.2945  0.3501
  756TIP3    H226464   6.974   7.315   6.965  0.5859 -0.1598  0.8776
  757TIP3   OH226465   6.620   4.693   7.980  0.1184  0.2656 -0.1159
  757TIP3    H126466   6.688   4.628   7.958 -1.1247 -1.3930  0.7188
  757TIP3    H226467   6.559   4.691   7.906  0.1632  0.6294 -0.1663
  758TIP3   OH226468   4.573   7.478   7.145 -0.0444 -0.2238  0.4976
  758TIP3    H126469   4.623   7.442   7.072 -0.0297 -1.0803  0.9285
  758TIP3    H226470   4.607   7.568   7.154  0.0866 -0.1680 -0.4154
  759TIP3   OH226471   2.590   3.330   8.046 -0.9099  0.5967  0.2094
  759TIP3    H126472   2.635   3.262   7.995 -0.5966 -0.5760  1.9719
  759TIP3    H226473   2.654   3.401   8.052 -0.8474  0.6304 -0.7767
  760TIP3   OH226474   3.917   1.156   8.732  0.5735 -0.3106 -0.5608
  760TIP3    H126475   3.913   1.135   8.825  1.6799  1.3152 -0.1126
  760TIP3    H226476   3.872   1.240   8.724 -2.0026 -1.7130 -1.9867
  761TIP3   OH226477   5.183   4.118   8.200 -0.4393 -0.3917  0.2984
  761TIP3    H126478   5.258   4.177   8.201  0.1977 -1.1284 -1.0480
  761TIP3    H226479   5.170   4.097   8.107 -2.3944 -0.1876  0.4805
  762TIP3   OH226480   5.776   7.219   7.158  0.2246  0.4543 -0.3887
  762TIP3    H126481   5.851   7.162   7.145 -1.2352 -1.7171  0.1115
  762TIP3    H226482   5.701   7.167   7.128 -1.0702  2.6814 -1.2873
  763TIP3   OH226483   3.069   7.442   9.096  0.3941  0.2035  0.2028
  763TIP3    H126484   3.041   7.514   9.040 -0.3438  0.4405  0.8576
  763TIP3    H226485   3.012   7.369   9.072  1.1664 -0.1908 -0.4870
  764TIP3   OH226486   4.262   2.412   7.112  0.1160  0.8377  0.2934
  764TIP3    H126487   4.354   2.393   7.091 -0.1397 -0.7124  0.4447
  764TIP3    H226488   4.266   2.451   7.199  0.7483  2.3282 -0.3787
  765TIP3   OH226489   3.459   4.937   7.577  0.3395 -0.1290  1.1053
  765TIP3    H126490   3.450   5.028   7.550 -0.8779 -0.6801 -0.5030
  765TIP3    H226491   3.373   4.913   7.609 -0.3083 -1.5725 -1.4744
  766TIP3   OH226492   1.553   6.101   9.519  0.1564 -0.5435 -0.3783
  766TIP3    H126493   1.533   6.186   9.481 -3.3033  0.1466  2.4020
  766TIP3    H226494   1.647   6.103   9.534  0.6235  1.6113 -2.8530
  767TIP3   OH226495   3.888   5.518   8.700  0.3824  0.5158  0.5158
  767TIP3    H126496   3.842   5.494   8.619  0.5124  0.5300  0.4379
  767TIP3    H226497   3.876   5.443   8.758  0.7830  0.2595  0.2748
  768TIP3   OH226498   2.225   3.507   8.142 -0.0134 -0.2004  0.1893
  768TIP3    H126499   2.159   3.456   8.189  0.4942 -0.8702  0.1950
  768TIP3    H226500   2.307   3.489   8.189  0.4657 -0.7090 -0.7925
  769TIP3   OH226501   4.839   0.545   8.084  0.0910  0.0313  0.0307
  769TIP3    H126502   4.794   0.536   8.169 -0.9316  0.4553 -0.4406
  769TIP3    H226503   4.811   0.631   8.052  2.4687  0.9929  0.3904
  770TIP3   OH226504   6.592   3.852   8.430 -0.2695 -0.9054 -0.0683
  770TIP3    H126505   6.501   3.821   8.431 -0.5952  0.0199  0.1466
  770TIP3    H226506   6.608   3.881   8.520  0.0501 -0.5344 -0.2432
  771TIP3   OH226507   1.213   7.069   6.752 -0.2345  0.2597  0.2254
  771TIP3    H126508   1.177   7.008   6.816 -1.4941 -0.0306 -0.7228
  771TIP3    H226509   1.137   7.117   6.719  0.4736  0.8493 -0.5929
  772TIP3   OH226510   4.293   5.544   6.912 -0.0942 -0.8399 -0.1162
  772TIP3    H126511   4.367   5.586   6.869  0.3840 -1.0739  0.4698
  772TIP3    H226512   4.330   5.465   6.952 -0.7466 -1.1973 -0.1999
  773TIP3   OH226513   0.725   3.596   8.286  0.3642 -0.0171 -0.2361
  773TIP3    H126514   0.709   3.655   8.360 -0.4240  1.2623 -1.3713
  773TIP3    H226515   0.817   3.610   8.263  0.4732 -0.0422  0.1757
  774TIP3   OH226516   5.296   6.578   7.722  0.3034  0.2353  0.1903
  774TIP3    H126517   5.232   6.615   7.661 -1.7838 -3.1571  0.0527
  774TIP3    H226518   5.249   6.573   7.806  0.5901 -1.7066  0.2623
  775TIP3   OH226519   7.517   4.692   7.769 -0.0338 -0.1198  0.7260
  775TIP3    H126520   7.488   4.603   7.785  0.2632 -0.3128  0.2101
  775TIP3    H226521   7.610   4.692   7.791 -0.0268  0.0543  0.6989
  776TIP3   OH226522   5.933   2.658   7.800 -0.5877  0.0191 -0.2164
  776TIP3    H126523   5.875   2.593   7.760  0.8628 -1.2091 -0.4435
  776TIP3    H226524   5.974   2.611   7.873  0.8655  0.4899 -0.6891
  777TIP3   OH226525   7.164   4.393   9.435  0.6745  0.5117 -0.0936
  777TIP3    H126526   7.097   4.444   9.479  0.1076 -0.1589 -0.1678
  777TIP3    H226527   7.221   4.458   9.394  0.6565  1.1137  0.8113
  778TIP3   OH226528   3.404   2.533   8.765  0.4502 -0.1364 -0.1091
  778TIP3    H126529   3.340   2.599   8.791 -0.3440 -1.3223  1.0291
  778TIP3    H226530   3.480   2.584   8.735 -0.4424  1.2804 -0.0516
  779TIP3   OH226531   3.628   0.790   7.410 -0.2134 -0.0428  0.0300
  779TIP3    H126532   3.617   0.875   7.365  0.0224  0.4736  0.9304
  779TIP3    H226533   3.539   0.758   7.421 -0.2521 -0.4694 -1.3383
  780TIP3   OH226534   1.801   2.415   9.507 -0.3837  0.1660 -0.1375
  780TIP3    H126535   1.869   2.423   9.574  0.0382 -0.8097 -0.4214
  780TIP3    H226536   1.729   2.470   9.538 -0.6177 -1.0752  1.6579
  781TIP3   OH226537   6.010   0.390   7.821 -0.4776  0.3610 -0.0639
  781TIP3    H126538   6.045   0.399   7.732 -0.5780 -2.5986 -0.4976
  781TIP3    H226539   5.917   0.412   7.812 -0.1915  1.5390 -0.3351
  782TIP3   OH226540   2.489   1.568   7.696 -0.3741 -0.3825  0.2348
  782TIP3    H126541   2.421   1.620   7.738 -1.2344 -1.9252  0.8428
  782TIP3    H226542   2.488   1.485   7.743  0.3495 -1.2684 -1.2395
  783TIP3   OH226543   6.254   3.523   7.222 -0.1913 -0.1728  0.2310
  783TIP3    H126544   6.310   3.600   7.236  2.9161 -2.3311  0.9543
  783TIP3    H226545   6.219   3.534   7.134  0.2591  1.9828  0.2691
  784TIP3   OH226546   1.268   6.637   8.691  0.0024  0.1118 -0.1751
  784TIP3    H126547   1.278   6.714   8.635  0.1827  1.5563  1.7120
  784TIP3    H226548   1.302   6.666   8.776 -0.7487 -1.7929  0.8181
  785TIP3   OH226549   5.179   0.798   9.189  0.0275 -0.4519  0.0317
  785TIP3    H126550   5.086   0.820   9.192 -0.3164 -1.6751 -0.8566
  785TIP3    H226551   5.193   0.764   9.100  1.5680  0.6645 -0.2156
  786TIP3   OH226552   4.098   7.176   7.086 -0.2347 -0.1452 -0.2508
  786TIP3    H126553   4.029   7.233   7.053 -1.4719 -2.5695 -2.1794
  786TIP3    H226554   4.062   7.138   7.167  0.2368  1.0456  0.5471
  787TIP3   OH226555   3.312   2.309   8.662  0.1549  0.4229 -0.0826
  787TIP3    H126556   3.356   2.391   8.683  0.2633  0.6077 -0.9690
  787TIP3    H226557   3.288   2.318   8.569  0.1337 -0.5251 -0.1792
  788TIP3   OH226558   0.521   5.939   7.022 -0.3122 -0.0111 -0.4931
  788TIP3    H126559   0.501   5.892   7.104 -0.8641  1.1090  0.0429
  788TIP3    H226560   0.589   5.887   6.981  0.3974 -0.3076  0.9693
  789TIP3   OH226561   4.603   5.884   8.942  0.1388 -0.3138  0.5455
  789TIP3    H126562   4.526   5.921   8.898  0.7889  2.2234  1.3764
  789TIP3    H226563   4.594   5.789   8.930 -2.4177 -0.0265 -0.4907
  790TIP3   OH226564   7.453   3.798   8.829  0.0309 -0.0243 -0.3306
  790TIP3    H126565   7.359   3.817   8.823 -0.4120 -1.7278  0.5317
  790TIP3    H226566   7.494   3.861   8.770 -1.6962  0.4887 -1.0485
  791TIP3   OH226567   4.767   3.105   7.985 -0.1171  0.3565  0.6981
  791TIP3    H126568   4.770   3.155   7.903 -0.5751 -0.2851  0.2776
  791TIP3    H226569   4.835   3.038   7.975 -0.9781 -0.4807  0.3240
  792TIP3   OH226570   7.408   2.036   7.312 -0.4534  0.0365 -0.2130
  792TIP3    H126571   7.406   2.127   7.282  1.5561  0.0187 -0.5986
  792TIP3    H226572   7.353   1.989   7.250 -1.8849  1.0398  0.2643
  793TIP3   OH226573   3.802   7.125   7.541  0.9922 -0.0344 -0.0241
  793TIP3    H126574   3.862   7.120   7.467  2.9232 -0.3121  1.4938
  793TIP3    H226575   3.720   7.158   7.503  2.0492  0.2857 -2.1746
  794TIP3   OH226576   4.740   2.196   8.113 -0.3410  0.3428  0.1050
  794TIP3    H126577   4.763   2.187   8.021 -1.1835 -0.8729 -0.0080
  794TIP3    H226578   4.765   2.113   8.153  0.9421  1.2100  1.2112
  795TIP3   OH226579   2.260   1.676   9.310 -0.3093 -0.4450 -0.2774
  795TIP3    H126580   2.264   1.752   9.368 -0.3959 -0.9188  0.3604
  795TIP3    H226581   2.348   1.672   9.271  0.2500 -0.9796  0.9600
  796TIP3   OH226582   4.170   6.645   6.798 -0.0346  0.1562  0.6661
  796TIP3    H126583   4.074   6.640   6.797 -0.0736  0.7130 -0.3958
  796TIP3    H226584   4.196   6.606   6.714  0.4912  2.4180 -0.3010
  797TIP3   OH226585   5.866   4.107   7.719 -0.3555 -0.8162 -0.2156
  797TIP3    H126586   5.858   4.093   7.624 -0.1030 -1.6395 -0.1215
  797TIP3    H226587   5.904   4.026   7.752 -0.4910 -0.5532  0.6054
  798TIP3   OH226588   1.901   6.898   7.370 -0.1810  0.2601  0.4869
  798TIP3    H126589   1.809   6.899   7.343  0.4020  0.8169 -1.6223
  798TIP3    H226590   1.932   6.986   7.350  1.0087 -0.1454  0.5053
  799TIP3   OH226591   3.899   6.245   8.688  0.0689 -0.0783  0.4634
  799TIP3    H126592   3.968   6.310   8.699  1.3213 -1.5847  2.1193
  799TIP3    H226593   3.835   6.266   8.757 -2.7837  3.0258 -2.7110
  800TIP3   OH226594   4.604   4.290   9.209 -0.0057 -0.1164  0.0662
  800TIP3    H126595   4.694   4.319   9.224 -0.0242  1.3669 -2.0923
  800TIP3    H226596   4.551   4.345   9.266  0.3365  0.5967 -0.2836
  801TIP3   OH226597   1.914   6.839   9.269 -1.2383 -0.4085 -0.1578
  801TIP3    H126598   1.915   6.917   9.214  0.6303  0.9353  1.6275
  801TIP3    H226599   1.864   6.864   9.346 -0.5384 -0.9347  0.4792
  802TIP3   OH226600   4.224   7.514   7.793  0.2404  0.1028 -0.0412
  802TIP3    H126601   4.192   7.570   7.722 -0.9595  1.7322  1.6692
  802TIP3    H226602   4.244   7.431   7.752  1.1949  1.4804 -2.5633
  803TIP3   OH226603   1.059   4.288   9.450 -0.4109 -0.2679  0.5036
  803TIP3    H126604   1.114   4.364   9.470  1.3902 -0.4028 -3.0272
  803TIP3    H226605   1.117   4.212   9.462 -0.2929 -0.5578 -1.4590
  804TIP3   OH226606   3.392   1.741   8.629  0.0973  0.0057 -0.0084
  804TIP3    H126607   3.452   1.773   8.696 -0.8838 -0.0286  0.9178
  804TIP3    H226608   3.333   1.682   8.675 -1.0526  0.5369 -0.7405
  805TIP3   OH226609   6.216   1.652   7.144  0.4047  0.4274 -0.6114
  805TIP3    H126610   6.255   1.567   7.126  0.2095  0.1537  0.1878
  805TIP3    H226611   6.237   1.706   7.068  0.6493 -0.2939 -1.0579
  806TIP3   OH226612   5.494   0.371   8.512  0.1434  0.0735 -0.4543
  806TIP3    H126613   5.580   0.336   8.537  2.1500  4.1834 -0.7869
  806TIP3    H226614   5.456   0.401   8.595 -0.3714 -0.5275 -0.4716
  807TIP3   OH226615   1.275   4.257   8.268 -0.1202  0.0570 -0.3138
  807TIP3    H126616   1.335   4.183   8.258 -0.0718  0.0078  0.2750
  807TIP3    H226617   1.333   4.331   8.287 -0.3094 -0.4438  2.7658
  808TIP3   OH226618   7.128   4.758   7.543  0.3925  0.6143  0.1384
  808TIP3    H126619   7.110   4.691   7.478  0.1475  1.2121 -0.4198
  808TIP3    H226620   7.222   4.775   7.536  0.5779 -0.1286  0.7348
  809TIP3   OH226621   0.559   0.160   9.306  0.2073 -0.5382 -0.2836
  809TIP3    H126622   0.652   0.140   9.320  0.4255  0.4724 -0.1841
  809TIP3    H226623   0.515   0.075   9.308  0.6138 -0.8177  3.3328
  810TIP3   OH226624   5.147   5.926   7.356 -0.1031 -0.1226 -0.5877
  810TIP3    H126625   5.133   5.831   7.365 -0.4871  0.0389  0.7310
  810TIP3    H226626   5.061   5.964   7.373 -0.3757  0.4145 -2.8534
  811TIP3   OH226627   3.469   4.519   8.888  0.1337  0.6820  0.2497
  811TIP3    H126628   3.446   4.447   8.947 -0.1486  0.4633 -0.1222
  811TIP3    H226629   3.555   4.549   8.919  0.0729  0.4513  0.6544
  812TIP3   OH226630   5.767   6.203   9.151  0.0427  0.4079 -0.2530
  812TIP3    H126631   5.847   6.178   9.197 -0.1793 -0.3606 -0.2746
  812TIP3    H226632   5.775   6.163   9.065 -0.4610  0.1356 -0.1814
  813TIP3   OH226633   5.025   3.963   8.732 -0.5895 -0.2427  0.2392
  813TIP3    H126634   5.022   3.868   8.722  1.9121 -0.3738  0.0968
  813TIP3    H226635   4.962   3.996   8.667 -1.4996 -1.7598  0.2878
  814TIP3   OH226636   4.097   2.792   9.297 -0.4650 -0.5879 -0.2177
  814TIP3    H126637   4.157   2.842   9.353 -2.9439  0.0091  2.1483
  814TIP3    H226638   4.065   2.856   9.233  0.3216 -0.5474 -0.5785
  815TIP3   OH226639   7.077   2.100   7.974  0.2325  0.5472 -0.2632
  815TIP3    H126640   7.134   2.176   7.969  1.3565 -0.1577  1.0941
  815TIP3    H226641   6.988   2.136   7.971  0.6956  2.1129  2.2121
  816TIP3   OH226642   1.300   3.495   8.881  0.0120 -0.0367 -0.0015
  816TIP3    H126643   1.321   3.588   8.867  0.3200 -0.1301 -0.1531
  816TIP3    H226644   1.210   3.487   8.850 -0.3793  0.4299  0.9381
  817TIP3   OH226645   2.664   5.686   8.362 -0.3473  0.0275 -0.2337
  817TIP3    H126646   2.619   5.742   8.426 -0.1643 -1.0460  0.8726
  817TIP3    H226647   2.757   5.695   8.384  0.0381  2.0145 -2.3317
  818TIP3   OH226648   5.752   0.850   7.894  0.4277  0.1093  0.0223
  818TIP3    H126649   5.795   0.799   7.963 -0.7905 -0.8792  0.0766
  818TIP3    H226650   5.802   0.831   7.815  0.2649 -0.8197  0.1354
  819TIP3   OH226651   5.223   0.044   7.934 -0.3416 -0.3229  0.4974
  819TIP3    H126652   5.298   0.101   7.920  1.3580 -2.6559 -0.7761
  819TIP3    H226653   5.258  -0.030   7.984 -2.2272 -0.7131  1.3552
  820TIP3   OH226654   1.998   2.531   9.090 -0.0912  0.3490  0.0309
  820TIP3    H126655   2.018   2.447   9.049 -1.7019  0.6276 -1.4041
  820TIP3    H226656   2.082   2.578   9.091  0.2339 -0.1347 -1.8571
  821TIP3   OH226657   7.391   2.314   8.405 -0.4632 -0.0563 -0.0468
  821TIP3    H126658   7.375   2.324   8.499  3.1828 -1.5499  0.9350
  821TIP3    H226659   7.311   2.274   8.371 -2.5940  2.1814  1.9915
  822TIP3   OH226660   5.137   5.257   9.254  0.2095 -0.1830  0.3130
  822TIP3    H126661   5.090   5.182   9.291 -0.6470  1.1468  2.0816
  822TIP3    H226662   5.067   5.311   9.215  0.3870  1.1593  1.7747
  823TIP3   OH226663   0.081   5.835   8.526 -0.0638 -0.0731 -0.0718
  823TIP3    H126664   0.076   5.747   8.489  3.9875 -0.3690 -0.4107
  823TIP3    H226665   0.132   5.885   8.461  0.7307  1.5102  1.6600
  824TIP3   OH226666   2.007   4.323   8.387 -0.2262 -0.0908 -0.0843
  824TIP3    H126667   2.063   4.253   8.352 -0.1692  0.0822 -0.3472
  824TIP3    H226668   1.922   4.282   8.401  0.1480 -0.5316  0.9757
  825TIP3   OH226669   3.245   2.286   9.677 -0.6663  0.3561  0.2427
  825TIP3    H126670   3.276   2.341   9.749  1.5360 -0.0608 -0.3085
  825TIP3    H226671   3.214   2.349   9.612 -2.2311  0.7523  1.3164
  826TIP3   OH226672   3.185   3.897   7.225  0.1744  0.2610 -0.0847
  826TIP3    H126673   3.195   3.946   7.143 -1.5136 -1.0446 -1.1528
  826TIP3    H226674   3.248   3.824   7.217  1.0054  0.8946  0.4505
  827TIP3   OH226675   6.667   0.040   7.309  0.1669 -0.3908  0.3170
  827TIP3    H126676   6.640   0.030   7.400 -0.7382  0.0571  0.1103
  827TIP3    H226677   6.624   0.120   7.280  1.2657  0.0155 -0.2194
  828TIP3   OH226678   0.536   3.606   6.483  0.4582  0.0848  0.2580
  828TIP3    H126679   0.494   3.691   6.498 -1.0446 -1.0666  3.5081
  828TIP3    H226680   0.630   3.625   6.491  0.1734  1.5152  0.4951
  829TIP3   OH226681   4.740   0.207   8.179 -0.3723  0.2859 -0.0092
  829TIP3    H126682   4.770   0.215   8.088 -0.7853  1.1589 -0.0816
  829TIP3    H226683   4.819   0.212   8.231 -0.0321 -1.0899 -0.3402
  830TIP3   OH226684   0.837   5.584   8.121 -0.4467 -0.0597  0.3386
  830TIP3    H126685   0.758   5.607   8.073 -0.9071  0.0591  1.1332
  830TIP3    H226686   0.805   5.552   8.206  0.3717  0.3538  0.8167
  831TIP3   OH226687   3.695   3.085   7.620 -0.3137 -0.6230 -0.3170
  831TIP3    H126688   3.670   3.140   7.546 -1.2519 -0.7394 -0.0989
  831TIP3    H226689   3.770   3.130   7.658 -1.3005  0.7512  0.1003
  832TIP3   OH226690   5.338   7.507   9.463  0.3273 -0.5132  0.0291
  832TIP3    H126691   5.267   7.570   9.473  0.2553 -0.4229 -0.9653
  832TIP3    H226692   5.327   7.446   9.536 -0.0505  0.1832  0.5648
  833TIP3   OH226693   7.404   5.035   9.263 -0.0227 -0.6411  0.4782
  833TIP3    H126694   7.487   5.081   9.252  0.1497 -1.2552 -0.9584
  833TIP3    H226695   7.354   5.090   9.324  1.2865 -0.0940  1.1049
  834TIP3   OH226696   0.980   7.207   6.696 -0.4568  0.2445 -0.0797
  834TIP3    H126697   0.912   7.141   6.685 -0.1085 -0.0022 -0.7949
  834TIP3    H226698   0.937   7.279   6.742 -1.1899  0.0801 -0.5028
  835TIP3   OH226699   7.314   4.784   8.850 -0.0486  0.5384  0.1427
  835TIP3    H126700   7.274   4.832   8.777 -2.2743  0.9054  1.4787
  835TIP3    H226701   7.401   4.760   8.819 -1.0139  0.3925 -2.7309
  836TIP3   OH226702   1.758   0.517   9.489 -0.5507  0.3094  0.0119
  836TIP3    H126703   1.673   0.553   9.512 -0.0757  0.9260  0.8361
  836TIP3    H226704   1.768   0.440   9.545 -0.1897  0.7601  0.5890
  837TIP3   OH226705   4.173   3.194   8.826 -0.1392  0.1773  0.0754
  837TIP3    H126706   4.267   3.187   8.815  0.0147 -2.7310  2.0489
  837TIP3    H226707   4.137   3.153   8.747  0.4210 -1.9944  0.8673
  838TIP3   OH226708   6.655   5.768   8.339 -0.2543 -0.1255 -0.1623
  838TIP3    H126709   6.601   5.762   8.418  0.5709 -1.0073  0.3594
  838TIP3    H226710   6.744   5.780   8.372  0.1928 -1.1766 -0.9378
  839TIP3   OH226711   6.020   5.161   7.959  0.9400  0.4414 -0.0493
  839TIP3    H126712   6.040   5.124   7.873  1.0021 -2.3237  1.0360
  839TIP3    H226713   6.026   5.086   8.019  0.6442  2.2071  2.3354
  840TIP3   OH226714   5.136   7.580   7.653  0.1961 -0.1433 -0.3582
  840TIP3    H126715   5.156   7.497   7.698  1.1804  0.4440  0.3366
  840TIP3    H226716   5.189   7.645   7.699 -1.2487  1.0475 -0.3079
  841TIP3   OH226717   5.756   3.090   7.485  0.5983  0.3383  0.8365
  841TIP3    H126718   5.672   3.116   7.445  1.4743  0.6478 -0.9031
  841TIP3    H226719   5.795   3.172   7.514  0.0240  0.1254  2.2563
  842TIP3   OH226720   0.827   0.162   9.320 -0.0592 -0.1780 -0.2407
  842TIP3    H126721   0.834   0.172   9.225 -0.8553  0.4283 -0.2438
  842TIP3    H226722   0.908   0.200   9.354  0.6717 -1.2603 -0.7118
  843TIP3   OH226723   6.731   1.017   7.059 -0.2288 -0.1693 -0.5080
  843TIP3    H126724   6.754   0.984   6.972  0.4899 -2.1694  0.3760
  843TIP3    H226725   6.816   1.034   7.100 -0.3756 -2.4455  0.9120
  844TIP3   OH226726   2.941   4.628   7.578 -0.6062 -0.2961 -0.0125
  844TIP3    H126727   2.950   4.642   7.483  1.7496 -3.0261 -0.3224
  844TIP3    H226728   3.025   4.658   7.614 -0.5788 -1.4277  0.8977
  845TIP3   OH226729   2.565   0.447   8.889  0.1149 -0.1141 -0.2043
  845TIP3    H126730   2.507   0.512   8.929  1.6885  0.0650  1.9813
  845TIP3    H226731   2.553   0.458   8.795 -1.8413  1.2842  0.1455
  846TIP3   OH226732   6.205   5.389   6.630  0.0607 -0.4191 -0.3668
  846TIP3    H126733   6.116   5.421   6.619 -0.0731 -1.1502 -1.5254
  846TIP3    H226734   6.259   5.469   6.634 -0.7201  0.0814  1.5270
  847TIP3   OH226735   3.733   5.730   7.893 -0.0230  0.2246  0.1164
  847TIP3    H126736   3.661   5.667   7.890  0.3025 -0.2141  1.1401
  847TIP3    H226737   3.708   5.797   7.829  0.1646 -1.4574 -1.8417
  848TIP3   OH226738   5.210   2.479   7.973 -0.1084  0.3284 -0.0499
  848TIP3    H126739   5.129   2.428   7.974  0.9686 -1.6277  3.0907
  848TIP3    H226740   5.271   2.425   7.923 -0.3229  1.1284 -1.2074
  849TIP3   OH226741   2.228   2.480   8.092  0.2567  0.3830 -0.6823
  849TIP3    H126742   2.211   2.440   8.177 -0.2328  1.5112 -0.2370
  849TIP3    H226743   2.303   2.431   8.057 -0.9148 -1.5981 -0.6160
  850TIP3   OH226744   4.668   1.267   8.067  0.4240  0.5857 -0.5517
  850TIP3    H126745   4.605   1.220   8.012 -1.1584 -0.3599  1.9263
  850TIP3    H226746   4.705   1.201   8.124  0.4538  1.8401  0.9419
  851TIP3   OH226747   5.931   5.280   6.857  0.5195 -0.2479  0.6011
  851TIP3    H126748   5.938   5.312   6.767 -0.4973 -3.0713 -0.5909
  851TIP3    H226749   5.887   5.351   6.904 -1.8684  0.1042 -1.8869
  852TIP3   OH226750   5.769   3.786   6.954 -0.3112 -0.2555  0.3126
  852TIP3    H126751   5.840   3.844   6.980  0.3845 -0.8588 -0.1800
  852TIP3    H226752   5.791   3.761   6.864 -1.8150  0.5327 -0.3033
  853TIP3   OH226753   1.929   6.454   8.583  0.4014 -0.4623 -0.2667
  853TIP3    H126754   2.010   6.403   8.577  0.7079 -0.2625  1.6465
  853TIP3    H226755   1.889   6.427   8.665 -0.4777  0.8861 -0.2188
  854TIP3   OH226756   1.672   3.729   8.331 -0.2173 -0.0502  0.0852
  854TIP3    H126757   1.749   3.673   8.323  0.0018  0.2270  0.1938
  854TIP3    H226758   1.672   3.757   8.423  0.0521  0.6445 -0.1173
  855TIP3   OH226759   0.656   5.785   9.725  0.6518 -0.2384 -0.3038
  855TIP3    H126760   0.705   5.759   9.803 -0.1385 -1.7453 -0.2468
  855TIP3    H226761   0.665   5.710   9.665 -1.2236 -0.4370 -0.4168
  856TIP3   OH226762   6.426   4.544   8.146 -0.1816 -0.3937  0.9768
  856TIP3    H126763   6.377   4.590   8.214  0.1816  0.6414  0.5670
  856TIP3    H226764   6.491   4.609   8.116 -1.4679 -0.1672 -1.5939
  857TIP3   OH226765   1.737   3.041   9.541  0.4693 -0.2130 -0.0363
  857TIP3    H126766   1.730   3.063   9.448 -0.7011 -1.7253 -0.3380
  857TIP3    H226767   1.646   3.037   9.572  0.7854 -1.0195  0.8433
  858TIP3   OH226768   6.733   3.353   8.829 -0.3260  0.2355 -0.0778
  858TIP3    H126769   6.781   3.342   8.911  0.7872  0.6336 -0.6596
  858TIP3    H226770   6.759   3.279   8.775 -1.8161 -0.5710  0.2567
  859TIP3   OH226771   6.262   4.517   9.145 -0.2423 -0.3404  0.5666
  859TIP3    H126772   6.331   4.457   9.174 -1.3161 -1.8872  0.0589
  859TIP3    H226773   6.271   4.521   9.050 -2.2772 -2.5445  0.1705
  860TIP3   OH226774   6.188   4.759   9.347  0.5805 -0.4165  0.2772
  860TIP3    H126775   6.210   4.701   9.275 -0.1907 -0.6164  0.1914
  860TIP3    H226776   6.267   4.762   9.401  0.5915 -1.6246  0.3426
  861TIP3   OH226777   3.089   7.213   8.460 -0.1194  0.1406  0.2799
  861TIP3    H126778   3.118   7.181   8.545  0.2939 -0.7649 -0.1902
  861TIP3    H226779   3.041   7.139   8.422 -0.3691  0.5642 -0.2422
  862TIP3   OH226780   6.598   3.837   7.675  0.4941 -0.1351  0.0124
  862TIP3    H126781   6.532   3.770   7.660  0.6985 -0.1660 -0.7846
  862TIP3    H226782   6.562   3.916   7.635  0.6266  0.0237  0.2048
  863TIP3   OH226783   0.106   4.449   9.083  0.6421 -0.7482  0.2268
  863TIP3    H126784   0.155   4.500   9.147  0.3959 -0.3688  0.1089
  863TIP3    H226785   0.051   4.391   9.135  0.7415 -0.7274  0.3554
  864TIP3   OH226786   4.519   5.527   8.704 -0.5103  0.4204 -0.0298
  864TIP3    H126787   4.452   5.460   8.685  0.0350  0.2907 -1.5695
  864TIP3    H226788   4.581   5.520   8.633  1.9376 -0.3799  2.0404
  865TIP3   OH226789   5.457   5.750   8.455 -0.6956 -0.0049 -0.7978
  865TIP3    H126790   5.418   5.831   8.423  0.1787  1.1151  0.8590
  865TIP3    H226791   5.392   5.714   8.515  0.1218  1.0822  0.8009
  866TIP3   OH226792   4.588   0.455   8.580 -0.0397  0.4203 -0.8440
  866TIP3    H126793   4.508   0.408   8.555 -1.8668  2.1479  1.3793
  866TIP3    H226794   4.640   0.390   8.628 -0.9686 -0.2216 -0.6958
  867TIP3   OH226795   5.135   0.669   7.130  0.3576  0.1101  0.5158
  867TIP3    H126796   5.155   0.679   7.223  2.9465  0.6938 -0.0334
  867TIP3    H226797   5.219   0.646   7.090 -1.0310 -1.9479 -1.4607
  868TIP3   OH226798   0.251   0.690   8.556  0.3887  0.0161  0.6022
  868TIP3    H126799   0.337   0.653   8.533  0.9967  1.3000  0.6830
  868TIP3    H226800   0.215   0.630   8.620  1.3949 -0.3687  0.8288
  869TIP3   OH226801   7.521   0.686   7.990  0.3872  0.6011 -0.0145
  869TIP3    H126802   7.498   0.720   8.077  2.0783  2.2398 -0.1395
  869TIP3    H226803   7.566   0.604   8.008  0.9729  1.0637  0.7106
  870TIP3   OH226804   3.013   3.155   9.156  0.1490  0.0632  0.0262
  870TIP3    H126805   3.092   3.173   9.104 -0.5408  1.9721 -0.4543
  870TIP3    H226806   2.961   3.097   9.102  1.0149 -0.8805  0.1713
  871TIP3   OH226807   5.561   2.995   8.639  0.0339 -0.0773  0.0427
  871TIP3    H126808   5.532   3.074   8.685  1.0584  0.1552  0.3209
  871TIP3    H226809   5.484   2.966   8.590 -0.7853  0.2627  1.0820
  872TIP3   OH226810   2.182   0.335   7.108 -0.0082  0.1172  0.6605
  872TIP3    H126811   2.151   0.279   7.179 -0.2866  0.5839  0.9091
  872TIP3    H226812   2.120   0.407   7.105 -0.0815  0.0313 -0.1548
  873TIP3   OH226813   5.983   7.057   7.801 -0.1664  0.4974 -0.6827
  873TIP3    H126814   6.022   7.017   7.724 -2.2583 -1.1279 -0.9638
  873TIP3    H226815   5.912   7.112   7.766 -0.5125  0.4966  0.0017
  874TIP3   OH226816   2.318   2.134   7.250 -0.3840  0.3133  0.3722
  874TIP3    H126817   2.267   2.140   7.169  0.5091  1.3351 -0.1363
  874TIP3    H226818   2.329   2.040   7.264 -2.0819  0.0664  0.3178
  875TIP3   OH226819   0.401   0.417   8.841 -0.0227 -0.1635 -0.3957
  875TIP3    H126820   0.415   0.500   8.887 -0.7358 -0.3020  0.0850
  875TIP3    H226821   0.386   0.353   8.911 -0.6882 -0.4594 -0.7999
  876TIP3   OH226822   0.114   0.635   7.422 -0.2295  0.2433  0.0764
  876TIP3    H126823   0.075   0.653   7.508  0.8667  0.2287  0.5938
  876TIP3    H226824   0.101   0.717   7.373  0.5012  0.8043  0.7893
  877TIP3   OH226825   0.282   7.340   9.352 -0.0617  0.2767 -0.0004
  877TIP3    H126826   0.362   7.290   9.369 -0.1489  0.0765 -0.1767
  877TIP3    H226827   0.218   7.308   9.415  0.0578  0.5810  0.2763
  878TIP3   OH226828   4.626   6.198   9.355 -0.1967 -0.1197 -0.4812
  878TIP3    H126829   4.603   6.291   9.357 -1.0531 -0.3025 -1.0977
  878TIP3    H226830   4.704   6.191   9.411 -0.0263  0.9882 -0.5553
  879TIP3   OH226831   4.472   5.762   7.245  0.0692  0.1964  0.1384
  879TIP3    H126832   4.404   5.791   7.185  1.0844  0.7502 -0.7912
  879TIP3    H226833   4.496   5.674   7.213 -3.5812 -2.3323  3.4421
  880TIP3   OH226834   1.170   5.906   9.324  0.0460  0.3746  0.0325
  880TIP3    H126835   1.197   5.825   9.366 -1.2452  0.1414  0.4544
  880TIP3    H226836   1.235   5.920   9.255  0.1762 -1.1440 -0.1948
  881TIP3   OH226837   2.131   7.622   8.900  0.0460  0.2295 -0.3379
  881TIP3    H126838   2.202   7.606   8.961 -0.4884  0.1381  0.2688
  881TIP3    H226839   2.067   7.673   8.949 -1.1728 -1.2850 -0.2582
  882TIP3   OH226840   3.622   4.392   7.107  0.6136 -0.1963  0.5183
  882TIP3    H126841   3.631   4.305   7.068 -1.2901 -1.6083  2.9439
  882TIP3    H226842   3.549   4.432   7.060 -2.0925 -2.1302  2.7434
  883TIP3   OH226843   3.211   4.909   8.395 -0.0828 -0.8844  0.5951
  883TIP3    H126844   3.272   4.840   8.370  0.3403  0.6037 -3.3141
  883TIP3    H226845   3.143   4.906   8.328 -0.0287  2.4128  0.2345
  884TIP3   OH226846   6.518   0.651   8.134  0.4917  0.1411  0.0900
  884TIP3    H126847   6.548   0.574   8.085 -1.2106 -0.7431  0.3430
  884TIP3    H226848   6.484   0.710   8.067 -1.3967 -0.8655  0.0883
  885TIP3   OH226849   3.795   1.925   8.163 -0.4583  0.6879  0.3350
  885TIP3    H126850   3.826   1.848   8.210 -1.0806  0.6130  0.6401
  885TIP3    H226851   3.855   1.935   8.089  0.2337  0.5099  0.8599
  886TIP3   OH226852   5.192   6.917   8.729 -0.3663 -0.6475 -0.3645
  886TIP3    H126853   5.131   6.991   8.723  0.3648 -0.0168 -0.2583
  886TIP3    H226854   5.275   6.953   8.698 -0.3479 -1.8822 -1.8539
  887TIP3   OH226855   4.473   2.456   8.516  0.3368  0.2855 -0.2170
  887TIP3    H126856   4.424   2.497   8.445 -0.4069 -0.2255 -0.0167
  887TIP3    H226857   4.564   2.479   8.499  0.2197 -0.1236 -1.5464
  888TIP3   OH226858   2.761   2.447   7.758  0.1398  0.2871  0.1539
  888TIP3    H126859   2.803   2.452   7.843 -0.1564  1.5637  0.2470
  888TIP3    H226860   2.762   2.353   7.736  0.6691  0.0017  1.3132
  889TIP3   OH226861   2.720   0.557   8.634  0.7391 -0.0871 -0.2645
  889TIP3    H126862   2.685   0.477   8.594  1.8188 -0.3836 -0.6735
  889TIP3    H226863   2.788   0.526   8.693  1.7410  0.5578 -1.0441
  890TIP3   OH226864   4.011   0.706   9.406 -0.3628  0.4672 -0.4768
  890TIP3    H126865   3.951   0.656   9.350 -1.0527  0.8100 -0.0669
  890TIP3    H226866   3.959   0.783   9.434  0.1999  0.6667  0.0493
  891TIP3   OH226867   6.432   6.123   9.076 -0.2637 -0.1083 -0.8523
  891TIP3    H126868   6.426   6.087   8.987  1.8931  0.7915 -1.4379
  891TIP3    H226869   6.502   6.071   9.117 -3.1565 -2.5554  1.4575
  892TIP3   OH226870   5.749   3.939   8.433 -0.0677 -0.0145 -0.4651
  892TIP3    H126871   5.739   3.958   8.340  1.4861  0.3833 -0.5697
  892TIP3    H226872   5.843   3.940   8.448 -0.2975 -0.0433  1.1285
  893TIP3   OH226873   4.977   7.569   8.002  0.0445  0.1640  0.5132
  893TIP3    H126874   4.898   7.613   7.972  0.6818  0.0746 -1.4220
  893TIP3    H226875   5.049   7.621   7.965  0.8625 -0.5195  1.1076
  894TIP3   OH226876   1.255   2.409   8.102  0.1079 -0.2046  0.1425
  894TIP3    H126877   1.325   2.457   8.148 -0.1331  0.1432  0.1471
  894TIP3    H226878   1.282   2.410   8.011 -1.1706  2.2494 -0.2906
  895TIP3   OH226879   1.449   6.680   8.047  0.1500  0.1460 -0.0299
  895TIP3    H126880   1.480   6.769   8.030 -0.0093  0.3171  0.5539
  895TIP3    H226881   1.502   6.625   7.991 -0.3606  0.6976 -1.0853
  896TIP3   OH226882   3.719   4.599   8.017 -0.5025  0.5246  0.2415
  896TIP3    H126883   3.769   4.668   7.973 -0.6195  1.0322  0.8866
  896TIP3    H226884   3.756   4.594   8.105 -0.1478 -0.6163  0.0371
  897TIP3   OH226885   4.318   6.319   9.098  0.2029  0.5905  0.5165
  897TIP3    H126886   4.231   6.360   9.097 -0.2837 -0.2923 -2.1871
  897TIP3    H226887   4.299   6.225   9.098  1.2309  0.3577  2.0639
  898TIP3   OH226888   3.703   6.363   7.024  0.1557 -0.0066  0.0689
  898TIP3    H126889   3.775   6.309   6.992 -0.7112 -0.7079 -0.7743
  898TIP3    H226890   3.670   6.407   6.946  1.1094  2.1056  0.8011
  899TIP3   OH226891   1.076   6.059   9.020  0.2240 -0.8585  0.7010
  899TIP3    H126892   1.162   6.018   9.019  0.3523 -0.5924  0.5935
  899TIP3    H226893   1.062   6.089   8.930  2.0689  3.2443  1.5352
  900TIP3   OH226894   5.356   6.182   6.970  0.0364 -0.1672 -0.3680
  900TIP3    H126895   5.270   6.219   6.952 -0.6701  0.3733  3.2597
  900TIP3    H226896   5.418   6.252   6.950 -0.5973  0.2839 -0.7555
  901TIP3   OH226897   6.101   5.085   7.709 -0.4833  0.5791  0.0096
  901TIP3    H126898   6.062   5.146   7.647  1.6369  0.7724 -1.2193
  901TIP3    H226899   6.079   4.998   7.675 -0.4397  0.6789 -0.2732
  902TIP3   OH226900   5.054   1.964   8.005  0.0134 -0.3455  0.0592
  902TIP3    H126901   5.040   1.875   8.036  0.4590 -0.0685  1.1021
  902TIP3    H226902   4.976   1.985   7.955  0.5757 -1.8754 -1.5429
  903TIP3   OH226903   5.537   6.564   7.607 -0.4142 -0.2502 -0.6384
  903TIP3    H126904   5.524   6.482   7.559  0.3205 -0.9625  0.3542
  903TIP3    H226905   5.456   6.575   7.657  0.7441 -2.2036  1.8682
  904TIP3   OH226906   0.363   4.596   8.846  0.2466 -0.2622 -0.5943
  904TIP3    H126907   0.409   4.625   8.925  0.8687 -1.2415 -0.5852
  904TIP3    H226908   0.280   4.560   8.879 -0.7741  1.9034 -0.6473
  905TIP3   OH226909   3.925   5.753   9.030 -0.1566 -0.2422 -0.1354
  905TIP3    H126910   3.880   5.713   8.956 -0.4476 -0.3471  0.0953
  905TIP3    H226911   3.859   5.758   9.099  0.5805 -1.7682  0.7227
  906TIP3   OH226912   0.762   6.186   8.062  0.0448  0.7086  0.8480
  906TIP3    H126913   0.747   6.281   8.065 -0.1693  0.7863 -1.1381
  906TIP3    H226914   0.828   6.174   7.994  0.6372 -0.5346  1.6009
  907TIP3   OH226915   0.163   2.395   7.431  0.3172 -0.2467 -0.0289
  907TIP3    H126916   0.076   2.357   7.418 -0.3982  1.5516 -0.9483
  907TIP3    H226917   0.199   2.403   7.343  0.9634  0.0257  0.2531
  908TIP3   OH226918   4.225   5.991   8.360 -0.0158  0.7186 -0.4013
  908TIP3    H126919   4.163   5.993   8.433 -0.6356  0.2132 -0.9062
  908TIP3    H226920   4.301   6.039   8.392 -0.7228  1.4786  0.1692
  909TIP3   OH226921   7.244   3.297   7.419  0.1193  0.5168  0.3331
  909TIP3    H126922   7.165   3.307   7.366 -0.3536  0.5807  1.0303
  909TIP3    H226923   7.213   3.259   7.501  0.3834  2.9374  1.6495
  910TIP3   OH226924   2.781   6.096   9.113  1.0490 -0.7856 -0.5642
  910TIP3    H126925   2.752   6.041   9.185 -0.8392 -0.4357 -1.0012
  910TIP3    H226926   2.825   6.036   9.053  1.4251 -1.3165  0.2377
  911TIP3   OH226927   6.769   6.402   8.967  0.9774  0.4324 -0.0734
  911TIP3    H126928   6.785   6.310   8.990  1.7801  0.2310 -1.3565
  911TIP3    H226929   6.707   6.398   8.894 -2.3558  1.0923  2.4378
  912TIP3   OH226930   7.238   5.283   8.184 -0.2105 -0.2118 -0.4325
  912TIP3    H126931   7.302   5.302   8.115  0.5024 -1.2190 -0.0619
  912TIP3    H226932   7.153   5.292   8.141  0.1388  1.4889 -0.8523
  913TIP3   OH226933   2.016   7.391   8.173  0.3755  0.0780  0.1052
  913TIP3    H126934   1.993   7.484   8.165  1.2411  0.3437  0.5860
  913TIP3    H226935   1.978   7.350   8.095 -0.7200  0.6874  0.3079
  914TIP3   OH226936   1.901   1.521   9.257 -0.1837  0.0154  0.5670
  914TIP3    H126937   1.924   1.600   9.208  0.5709 -0.1736  0.6032
  914TIP3    H226938   1.873   1.554   9.342  0.7871  0.2208  0.8226
  915TIP3   OH226939   4.822   5.930   8.366 -0.4241  0.4828  0.4172
  915TIP3    H126940   4.818   5.861   8.300 -0.0881  0.7739  0.0837
  915TIP3    H226941   4.732   5.939   8.397 -0.3492 -0.6134  1.0070
  916TIP3   OH226942   0.681   5.808   9.354 -0.3873 -0.0581  0.2385
  916TIP3    H126943   0.760   5.854   9.382  0.4099 -1.1305 -0.1742
  916TIP3    H226944   0.622   5.877   9.324  1.4332  0.6408 -2.0419
  917TIP3   OH226945   2.412   6.665   9.079 -0.4272  0.5840 -0.2407
  917TIP3    H126946   2.384   6.757   9.074  0.4195  1.0182  2.0345
  917TIP3    H226947   2.505   6.669   9.101 -0.3073 -0.8451 -0.3800
  918TIP3   OH226948   7.385   5.611   8.688 -0.2142  0.5530 -0.3369
  918TIP3    H126949   7.337   5.685   8.726  0.4333  0.8707 -0.1239
  918TIP3    H226950   7.376   5.623   8.593  0.4981  1.3274 -0.3192
  919TIP3   OH226951   1.195   0.540   8.962  0.3838  0.6128  0.5737
  919TIP3    H126952   1.215   0.612   9.022  0.9578  0.1920  0.8982
  919TIP3    H226953   1.168   0.583   8.881  2.6402  1.2255  0.0922
  920TIP3   OH226954   7.022   0.397   7.035  0.2312 -0.4155 -0.6733
  920TIP3    H126955   6.930   0.384   7.013  0.0113  0.8833 -0.6017
  920TIP3    H226956   7.061   0.310   7.026 -1.5999 -1.7351  2.3108
  921TIP3   OH226957   7.618   5.591   8.841 -0.2307  0.6560 -0.1589
  921TIP3    H126958   7.692   5.568   8.784  0.6123 -1.9886  1.8388
  921TIP3    H226959   7.545   5.605   8.780  0.9946 -0.4968 -1.9945
  922TIP3   OH226960   2.861   0.641   9.065  0.0082 -0.3219 -0.0655
  922TIP3    H126961   2.784   0.660   9.118  0.4525  1.4184  0.0131
  922TIP3    H226962   2.881   0.723   9.021  0.5131 -1.3331 -1.8500
  923TIP3   OH226963   0.242   2.604   8.283  0.0535 -0.0872  0.3463
  923TIP3    H126964   0.282   2.689   8.266 -0.0931  0.0046  0.4568
  923TIP3    H226965   0.315   2.542   8.284  0.1948  0.0817  0.5759
  924TIP3   OH226966   3.095   6.379   7.861 -0.6091 -0.0774 -0.3843
  924TIP3    H126967   3.025   6.417   7.914  1.4359 -0.2106  2.5906
  924TIP3    H226968   3.148   6.454   7.834  0.3197 -0.3027  0.7788
  925TIP3   OH226969   7.624   0.301   8.989  0.4664  0.3187  0.5836
  925TIP3    H126970   7.694   0.243   9.020 -0.4379 -1.7717 -1.0020
  925TIP3    H226971   7.631   0.297   8.893 -1.6066  0.2701  0.3910
  926TIP3   OH226972   0.625   3.900   7.513 -0.1826  0.4382 -0.4923
  926TIP3    H126973   0.554   3.886   7.576  1.8923 -0.2292  1.8772
  926TIP3    H226974   0.607   3.837   7.443 -1.4270 -0.3737  0.4991
  927TIP3   OH226975   7.260   6.371   8.378  0.1309 -0.4337  0.0399
  927TIP3    H126976   7.333   6.342   8.431 -0.7631 -1.2004  0.9036
  927TIP3    H226977   7.244   6.461   8.405  0.6972 -0.2965 -0.0862
  928TIP3   OH226978   1.279   1.922   7.147  0.4776 -0.3792  0.6079
  928TIP3    H126979   1.280   1.869   7.067 -3.3046 -0.7298  0.6394
  928TIP3    H226980   1.257   1.860   7.216 -2.3366  0.8247  0.9034
  929TIP3   OH226981   3.425   3.529   8.834  0.6440  0.1123  0.0545
  929TIP3    H126982   3.445   3.441   8.865  1.0098  0.3715  0.5841
  929TIP3    H226983   3.431   3.584   8.913 -0.0426  0.5369 -0.1771
  930TIP3   OH226984   0.254   0.768   9.395  0.4046 -0.5373 -0.4200
  930TIP3    H126985   0.189   0.740   9.331 -0.5671 -1.1330  0.7929
  930TIP3    H226986   0.203   0.800   9.470  1.5031 -0.1190  0.1747
  931TIP3   OH226987   5.102   4.143   7.927 -0.1712 -0.3930  0.1021
  931TIP3    H126988   5.125   4.234   7.947 -0.1046 -0.7185  1.6575
  931TIP3    H226989   5.115   4.135   7.833 -1.5184  1.5984 -0.3244
  932TIP3   OH226990   1.071   0.157   7.199  0.0623  0.2378  0.0532
  932TIP3    H126991   1.099   0.158   7.107 -0.0996 -1.1461 -0.0286
  932TIP3    H226992   0.985   0.116   7.197  0.3043 -0.3335  0.8848
  933TIP3   OH226993   6.680   5.798   8.034 -0.7255  0.4011 -0.2566
  933TIP3    H126994   6.684   5.745   8.113 -0.4195  1.2480  0.3071
  933TIP3    H226995   6.589   5.789   8.004 -0.4699 -1.1006 -0.6530
  934TIP3   OH226996   3.610   1.050   8.994 -0.0283 -0.3307  0.0711
  934TIP3    H126997   3.571   0.976   9.041  0.6395 -0.5127  0.3443
  934TIP3    H226998   3.615   1.020   8.903 -2.0212  0.2996 -0.3118
  935TIP3   OH226999   6.861   6.207   7.278  0.4508  0.1064  0.0069
  935TIP3    H127000   6.802   6.162   7.338 -1.0492  1.4443 -0.3870
  935TIP3    H227001   6.895   6.139   7.221  0.7278 -0.9571  1.3864
  936TIP3   OH227002   5.091   7.219   9.231  0.0331  0.0608  0.3841
  936TIP3    H127003   5.087   7.159   9.305 -2.3796  0.9421  1.0670
  936TIP3    H227004   5.036   7.178   9.164  1.2135 -0.1313 -0.5140
  937TIP3   OH227005   7.103   5.232   7.337 -0.0096  0.0581 -0.4499
  937TIP3    H127006   7.134   5.320   7.358 -1.8332  0.4556  0.8417
  937TIP3    H227007   7.116   5.224   7.243 -0.3988  1.9671 -0.7130
  938TIP3   OH227008   0.619   6.025   7.876  0.5178 -0.0284  0.5921
  938TIP3    H127009   0.668   5.943   7.889  1.4169  0.4896  0.5432
  938TIP3    H227010   0.649   6.082   7.947 -0.6373  0.0265  1.0514
  939TIP3   OH227011   3.393   2.056   7.323  0.4212  0.3667  0.2379
  939TIP3    H127012   3.385   1.980   7.266 -1.2273 -0.4758  1.5033
  939TIP3    H227013   3.452   2.115   7.276 -0.2823 -0.5773 -1.9927
  940TIP3   OH227014   5.436   2.966   8.971 -0.2107  0.6393 -0.1247
  940TIP3    H127015   5.468   3.052   8.942 -0.7601  1.3091  1.1468
  940TIP3    H227016   5.500   2.937   9.037 -0.4596  0.4615  0.0420
  941TIP3   OH227017   5.820   5.340   9.030  0.0447  0.0364  0.6609
  941TIP3    H127018   5.749   5.323   9.092 -1.0114 -1.1646 -0.8117
  941TIP3    H227019   5.893   5.288   9.063 -0.5536 -0.7150  0.8403
  942TIP3   OH227020   1.475   1.427   9.359  0.0469  0.4567  0.7962
  942TIP3    H127021   1.380   1.433   9.360  0.0431  0.6254  0.2419
  942TIP3    H227022   1.505   1.497   9.417 -0.1570  0.8115  0.4759
  943TIP3   OH227023   2.635   0.354   9.462  0.1535 -0.0679  0.0333
  943TIP3    H127024   2.701   0.421   9.479  0.2217 -0.4228  1.3258
  943TIP3    H227025   2.555   0.389   9.500  0.3657 -1.0055  1.4535
  944TIP3   OH227026   0.516   5.224   7.148 -0.5728 -0.3112 -0.2322
  944TIP3    H127027   0.526   5.285   7.075 -0.0237 -0.6772 -0.4637
  944TIP3    H227028   0.600   5.226   7.193 -0.8455 -0.2332  0.2810
  945TIP3   OH227029   1.585   1.557   9.699 -0.5226  0.6985 -0.1748
  945TIP3    H127030   1.525   1.490   9.733 -0.3369  1.2547  1.3542
  945TIP3    H227031   1.535   1.638   9.706 -0.4885  0.8241 -1.3317
  946TIP3   OH227032   1.672   4.236   9.605  0.1104  0.1603 -0.1076
  946TIP3    H127033   1.752   4.191   9.632 -0.2006 -0.7194 -0.6074
  946TIP3    H227034   1.603   4.169   9.612 -0.6114  0.9386  0.4503
  947TIP3   OH227035   6.324   2.587   8.632 -0.4639 -0.0246 -0.2638
  947TIP3    H127036   6.419   2.600   8.628 -0.2572 -0.2167  2.3096
  947TIP3    H227037   6.311   2.496   8.606 -0.0853  0.2447 -1.4986
  948TIP3   OH227038   2.880   0.210   7.661  0.4524 -0.6926 -0.2483
  948TIP3    H127039   2.960   0.248   7.626 -0.0294  0.0010 -0.6007
  948TIP3    H227040   2.825   0.195   7.585 -0.3946  0.3435  0.1368
  949TIP3   OH227041   3.027   4.957   8.182 -0.2999  0.2556  0.0427
  949TIP3    H127042   2.971   4.894   8.226  2.4897 -2.0748  0.5297
  949TIP3    H227043   3.055   4.913   8.102  0.3017  1.5994 -0.5196
  950TIP3   OH227044   3.725   2.900   8.432 -0.2773  0.4285  0.3621
  950TIP3    H127045   3.676   2.892   8.351 -1.4296 -1.4324  1.1672
  950TIP3    H227046   3.776   2.818   8.438 -0.5025  0.3567  1.6618
  951TIP3   OH227047   3.012   5.167   8.725 -0.7419  0.4010 -0.4221
  951TIP3    H127048   2.922   5.161   8.695 -0.4990 -0.4333 -1.0189
  951TIP3    H227049   3.063   5.122   8.657  0.1437  1.0548 -0.2024
  952TIP3   OH227050   4.386   6.010   8.784  0.3048  0.4414 -0.1892
  952TIP3    H127051   4.301   6.018   8.826 -0.2093  1.2473 -1.3189
  952TIP3    H227052   4.377   5.936   8.725  0.3757  0.5369 -0.3214
  953TIP3   OH227053   7.446   1.369   9.495 -0.4832 -0.2520  0.5949
  953TIP3    H127054   7.501   1.347   9.420  0.9631  0.8198  1.3072
  953TIP3    H227055   7.366   1.317   9.482  0.2442 -1.0264 -1.0165
  954TIP3   OH227056   2.815   2.806   8.130 -0.6230  0.1979  0.2977
  954TIP3    H127057   2.765   2.807   8.049 -1.6232  2.9401  0.8466
  954TIP3    H227058   2.750   2.798   8.199  0.2222 -2.1895  0.9107
  955TIP3   OH227059   3.055   5.204   7.375  0.5678 -0.0044  0.5661
  955TIP3    H127060   3.114   5.186   7.301  2.6851  0.0511  2.1321
  955TIP3    H227061   3.026   5.294   7.361  0.4938 -0.1815 -0.4853
  956TIP3   OH227062   5.034   0.401   9.178 -0.0623 -0.5073 -0.1799
  956TIP3    H127063   5.020   0.454   9.257  0.2270 -0.9677  0.1893
  956TIP3    H227064   5.125   0.417   9.155 -0.6365  1.0925 -1.5343
  957TIP3   OH227065   7.103   7.159   8.518  0.1508 -0.6718 -0.0283
  957TIP3    H127066   7.119   7.241   8.565  0.4064 -1.1777  0.7809
  957TIP3    H227067   7.009   7.161   8.499  0.1495 -0.2006  0.0130
  958TIP3   OH227068   6.323   1.735   9.142  0.1271 -0.7298 -0.0527
  958TIP3    H127069   6.233   1.763   9.158  0.8764  1.9198 -0.0453
  958TIP3    H227070   6.349   1.693   9.224 -0.1586  1.2882  1.1511
  959TIP3   OH227071   2.530   2.966   9.549  0.2750 -0.0708 -0.5329
  959TIP3    H127072   2.544   3.039   9.490 -0.4824  1.5632  1.1722
  959TIP3    H227073   2.605   2.909   9.537  1.3115  1.4158 -1.3523
  960TIP3   OH227074   6.892   6.068   8.536 -0.1573 -0.4848  0.3908
  960TIP3    H127075   6.965   6.049   8.595  0.4045 -3.0342 -0.9404
  960TIP3    H227076   6.930   6.126   8.470  0.3043 -0.7062  0.4566
  961TIP3   OH227077   3.086   0.530   9.189 -0.3567  0.4151 -0.0392
  961TIP3    H127078   3.051   0.444   9.167  1.1169  0.3650 -2.5903
  961TIP3    H227079   3.009   0.586   9.194 -1.1760 -0.6109 -0.7152
  962TIP3   OH227080   4.819   0.421   9.028  0.0677  0.0251  0.1250
  962TIP3    H127081   4.899   0.430   9.079  1.1076  0.5935 -1.5062
  962TIP3    H227082   4.791   0.511   9.009  0.2969 -0.1403 -1.1236
  963TIP3   OH227083   6.187   7.360   7.882 -0.7223  0.1621 -0.6064
  963TIP3    H127084   6.215   7.353   7.791 -3.2058 -0.9999 -1.3696
  963TIP3    H227085   6.103   7.406   7.878 -0.6203  0.5910  1.1728
  964TIP3   OH227086   5.079   3.539   7.560 -0.0181 -0.3933 -0.1890
  964TIP3    H127087   5.117   3.501   7.640 -1.1798 -1.2147 -0.0055
  964TIP3    H227088   5.078   3.466   7.498  5.0286  1.1244 -2.6618
  965TIP3   OH227089   1.742   6.883   8.192  0.0157  0.4495 -0.0164
  965TIP3    H127090   1.711   6.891   8.101 -1.8007  0.7001  0.5901
  965TIP3    H227091   1.837   6.893   8.185 -0.0445  0.1624 -1.9210
  966TIP3   OH227092   0.919   5.074   7.520  0.5069  0.0735  0.2045
  966TIP3    H127093   0.952   5.050   7.607  1.5994  2.4205  0.5243
  966TIP3    H227094   0.994   5.116   7.477 -0.3909  0.0918 -1.4049
  967TIP3   OH227095   4.130   3.534   8.453 -0.0403 -0.1553  0.4572
  967TIP3    H127096   4.211   3.540   8.504 -0.2730  0.1139  0.8037
  967TIP3    H227097   4.134   3.609   8.394  1.3417 -1.7369 -1.6103
  968TIP3   OH227098   5.162   1.407   8.821 -0.2252 -0.2421  0.2435
  968TIP3    H127099   5.160   1.471   8.891  0.0124  1.4412 -1.2128
  968TIP3    H227100   5.079   1.360   8.828 -0.2686  0.0145  1.5202
  969TIP3   OH227101   0.806   2.684   9.052  0.2150  0.2348  0.2352
  969TIP3    H127102   0.816   2.770   9.093 -0.5635  0.6113 -0.3401
  969TIP3    H227103   0.770   2.629   9.123  0.6719  0.3900  0.5914
  970TIP3   OH227104   1.958   7.493   8.495  0.5857 -0.0132 -0.0874
  970TIP3    H127105   1.877   7.534   8.523  1.3385  1.8227 -0.4308
  970TIP3    H227106   1.931   7.418   8.443 -0.8541 -1.7088  2.8983
  971TIP3   OH227107   1.563   7.034   6.986  0.5021 -0.3925  0.2048
  971TIP3    H127108   1.544   7.017   6.894  1.6480 -0.3953 -0.0506
  971TIP3    H227109   1.658   7.047   6.988  0.4481 -0.1225  1.3443
  972TIP3   OH227110   3.193   7.127   8.730  0.2833  0.9428  0.0508
  972TIP3    H127111   3.228   7.045   8.697 -0.7903  0.6774 -0.4866
  972TIP3    H227112   3.147   7.103   8.810 -2.5294  0.4454 -1.5830
  973TIP3   OH227113   1.565   4.826   7.040  0.0941  0.1567 -0.5373
  973TIP3    H127114   1.498   4.795   6.979 -0.0775  0.8896 -0.7273
  973TIP3    H227115   1.634   4.760   7.034 -1.3278 -1.5981  1.0042
  974TIP3   OH227116   2.642   2.168   7.492 -0.3249 -0.2746 -0.0391
  974TIP3    H127117   2.586   2.231   7.446  1.1825 -0.1493 -1.8368
  974TIP3    H227118   2.625   2.084   7.448 -0.4688 -0.6169  0.6592
  975TIP3   OH227119   2.051   3.126   9.328 -0.5912 -0.6320  0.0633
  975TIP3    H127120   2.014   3.205   9.288  1.0597  0.2045  0.0972
  975TIP3    H227121   1.982   3.061   9.319 -1.5252  0.4515 -1.1486
  976TIP3   OH227122   0.015   4.940   7.553 -0.0797  0.3212  0.2197
  976TIP3    H127123  -0.004   4.977   7.638 -0.1892  0.6804  0.0382
  976TIP3    H227124   0.111   4.933   7.551 -0.1554 -1.8266  1.2701
  977TIP3   OH227125   7.110   7.368   8.996  0.2911 -0.0587  0.2114
  977TIP3    H127126   7.166   7.433   9.037  2.5928 -1.4787 -0.4973
  977TIP3    H227127   7.028   7.373   9.045  0.8792  2.3015  1.1194
  978TIP3   OH227128   4.549   2.373   8.882 -0.4277 -0.7126  0.3382
  978TIP3    H127129   4.575   2.283   8.900 -1.6505 -1.1708 -0.0884
  978TIP3    H227130   4.456   2.368   8.863 -0.2056  0.4170 -1.2765
  979TIP3   OH227131   2.749   2.404   9.604  0.2978 -0.1871 -0.1308
  979TIP3    H127132   2.811   2.380   9.673 -0.7967 -1.0677  0.5858
  979TIP3    H227133   2.684   2.459   9.647  0.1837  0.1412 -0.7099
  980TIP3   OH227134   6.744   7.456   9.363  0.1705 -0.0081  0.0906
  980TIP3    H127135   6.725   7.536   9.314 -0.3592 -0.1479  0.0582
  980TIP3    H227136   6.660   7.430   9.400  0.5913  0.2183  1.2831
  981TIP3   OH227137   2.160   4.580   8.314  0.2616 -0.5726 -0.0427
  981TIP3    H127138   2.076   4.543   8.340  0.7492  0.0187  2.7676
  981TIP3    H227139   2.225   4.525   8.358  1.1626  1.0679  0.7924
  982TIP3   OH227140   2.206   6.301   8.794 -0.5300 -0.0551 -0.3444
  982TIP3    H127141   2.272   6.369   8.777 -0.2267 -0.9449 -3.4461
  982TIP3    H227142   2.242   6.223   8.751 -1.7748 -1.7027  1.4327
  983TIP3   OH227143   4.286   3.374   8.247 -0.1609  0.1230 -0.2807
  983TIP3    H127144   4.375   3.390   8.214  1.4856 -2.1270  2.5837
  983TIP3    H227145   4.285   3.413   8.335 -1.5601 -0.9704  0.2361
  984TIP3   OH227146   7.047   0.361   8.819 -0.0197 -0.0646 -0.0063
  984TIP3    H127147   7.118   0.304   8.848 -0.0272 -1.0790 -1.8038
  984TIP3    H227148   7.090   0.441   8.789  0.3636 -0.5757 -0.8529
  985TIP3   OH227149   6.117   0.311   9.464 -0.0634  0.1739 -0.2925
  985TIP3    H127150   6.135   0.221   9.437 -0.6411  0.2532 -0.9636
  985TIP3    H227151   6.068   0.349   9.391  1.6449  1.5629 -0.7928
  986TIP3   OH227152   1.434   4.991   8.711 -0.1968 -0.0687 -0.3092
  986TIP3    H127153   1.513   5.029   8.674 -0.0441 -0.7530 -0.6762
  986TIP3    H227154   1.432   4.901   8.680 -0.1662 -0.6040  1.1857
  987TIP3   OH227155   3.953   1.494   7.561 -0.1207 -0.4298  0.0470
  987TIP3    H127156   3.997   1.412   7.584 -2.7583 -1.7140  0.8979
  987TIP3    H227157   3.985   1.557   7.626  2.0790 -0.6484 -0.7282
  988TIP3   OH227158   2.336   4.039   9.391  0.3658 -0.7505 -0.0711
  988TIP3    H127159   2.426   4.068   9.402  0.4594 -1.5702  1.7916
  988TIP3    H227160   2.283   4.115   9.416  0.4825  0.0497 -2.0976
  989TIP3   OH227161   3.290   1.881   8.913  0.7042  0.0308  0.0433
  989TIP3    H127162   3.325   1.963   8.878 -0.2740  0.3460 -0.2201
  989TIP3    H227163   3.363   1.843   8.961  1.2658  0.9044 -0.0930
  990TIP3   OH227164   1.591   6.869   7.928 -0.1755  0.0068 -0.2228
  990TIP3    H127165   1.558   6.912   7.849 -1.1225 -1.0939 -0.4561
  990TIP3    H227166   1.674   6.829   7.900 -0.5366 -0.4309 -0.6829
  991TIP3   OH227167   2.490   0.569   7.639  0.4615 -0.1828  0.1877
  991TIP3    H127168   2.544   0.505   7.685 -0.3387 -1.7639 -0.9648
  991TIP3    H227169   2.401   0.555   7.672  0.2099  0.0556 -0.3627
  992TIP3   OH227170   4.743   2.809   8.435 -0.3730  0.1642 -0.5548
  992TIP3    H127171   4.747   2.713   8.428 -0.7251  0.1048  0.0029
  992TIP3    H227172   4.651   2.827   8.454  0.2182  0.3640  2.7139
  993TIP3   OH227173   6.266   1.717   8.042  0.3242  0.2562  0.2793
  993TIP3    H127174   6.276   1.792   7.983 -1.6563 -0.3782 -0.9537
  993TIP3    H227175   6.210   1.750   8.113 -0.3863  0.0263 -0.1625
  994TIP3   OH227176   3.431   2.703   8.262  0.8390 -0.3214  0.1406
  994TIP3    H127177   3.420   2.614   8.228 -1.2913 -0.2305  0.4932
  994TIP3    H227178   3.517   2.730   8.230  1.7382 -2.6481  0.3725
  995TIP3   OH227179   0.333   1.536   7.396  0.6143 -0.2347  0.4895
  995TIP3    H127180   0.274   1.487   7.339  1.6941 -0.2761 -0.6391
  995TIP3    H227181   0.388   1.586   7.336  1.2185  0.3972  1.5394
  996TIP3   OH227182   2.648   0.723   9.232  0.2898  0.5323 -0.0808
  996TIP3    H127183   2.554   0.727   9.219  0.0125 -2.1582  0.4560
  996TIP3    H227184   2.658   0.686   9.320  1.8014 -0.1155 -0.4911
  997TIP3   OH227185   6.181   0.051   9.377  0.3681 -0.5383  0.2723
  997TIP3    H127186   6.117  -0.019   9.381 -0.8509  0.5087 -0.0178
  997TIP3    H227187   6.213   0.049   9.286  1.0888 -1.3366  0.5332
  998TIP3   OH227188   4.606   5.878   7.486 -0.1630  0.4709 -0.1194
  998TIP3    H127189   4.661   5.826   7.428 -1.7434  0.6600 -1.8864
  998TIP3    H227190   4.521   5.834   7.485 -0.6515  1.3227  0.8905
  999TIP3   OH227191   2.834   0.213   9.344 -0.3840  0.3215  0.0662
  999TIP3    H127192   2.755   0.257   9.374 -0.5092 -0.9043  1.6827
  999TIP3    H227193   2.814   0.120   9.350  1.0958 -0.0178  0.2835
 1000TIP3   OH227194   3.464   1.799   9.111  0.2279 -0.3498  0.2426
 1000TIP3    H127195   3.428   1.827   9.195  0.1226 -1.5989  0.6276
 1000TIP3    H227196   3.461   1.704   9.114  2.9996 -0.5351  0.0702
 1001TIP3   OH227197   1.710   1.742   9.163 -0.4651  0.2345 -0.2360
 1001TIP3    H127198   1.630   1.793   9.178 -1.0352 -1.0364  1.3100
 1001TIP3    H227199   1.778   1.791   9.210 -0.8417  0.0425  0.5296
 1002TIP3   OH227200   2.438   6.885   7.033 -0.4551 -0.1190  0.1329
 1002TIP3    H127201   2.482   6.895   6.948  0.4468  0.0764  0.6124
 1002TIP3    H227202   2.404   6.973   7.053 -2.4185 -0.5660 -0.9247
 1003TIP3   OH227203   0.720   5.284   7.847  0.2783  0.4327 -0.4842
 1003TIP3    H127204   0.730   5.192   7.825  2.8033  0.6179 -0.3312
 1003TIP3    H227205   0.626   5.295   7.861  0.0919 -2.5991  1.6090
 1004TIP3   OH227206   4.283   1.992   9.115  0.2702 -0.0979 -0.1408
 1004TIP3    H127207   4.377   1.984   9.101  0.2436  0.4435 -0.6492
 1004TIP3    H227208   4.244   1.922   9.063  0.1752  1.8182 -2.8476
 1005TIP3   OH227209   6.542   0.821   9.211  0.2032 -0.4478  0.1528
 1005TIP3    H127210   6.539   0.899   9.267  1.3234 -0.3626  0.1096
 1005TIP3    H227211   6.496   0.848   9.131 -2.5163 -0.9456  1.4143
 1006TIP3   OH227212   7.449   5.648   7.398 -0.3677  0.0490  0.0357
 1006TIP3    H127213   7.522   5.631   7.338  0.0063  1.0887  0.1870
 1006TIP3    H227214   7.452   5.575   7.460  3.0485  1.9410  2.4616
 1007TIP3   OH227215   0.381   1.346   7.772 -0.4267  0.1756 -0.1293
 1007TIP3    H127216   0.296   1.302   7.777 -0.8907  1.1297  0.7764
 1007TIP3    H227217   0.419   1.335   7.858 -0.2149  0.8741 -0.1299
 1008TIP3   OH227218   7.623   6.914   9.357  0.0879 -0.2039 -0.4218
 1008TIP3    H127219   7.625   6.999   9.312 -1.6119  0.5129  0.7573
 1008TIP3    H227220   7.715   6.897   9.379  0.8727 -0.1621 -3.2748
 1009TIP3   OH227221   1.116   4.131   7.242 -0.4223 -0.1261  0.2376
 1009TIP3    H127222   1.041   4.161   7.191  1.3785  1.5233 -1.6321
 1009TIP3    H227223   1.129   4.198   7.309  0.2018  0.3519 -0.3478
 1010TIP3   OH227224   7.090   2.790   8.021 -0.3584 -0.2642 -0.0587
 1010TIP3    H127225   7.183   2.808   8.035 -0.2824 -1.0305  0.5417
 1010TIP3    H227226   7.050   2.876   8.011  0.5179  0.0455 -1.0431
 1011TIP3   OH227227   4.940   6.758   9.011 -0.4951  0.4988 -0.1931
 1011TIP3    H127228   4.868   6.709   9.052  2.1029 -1.0880  3.0410
 1011TIP3    H227229   4.980   6.695   8.951  1.8616 -1.1665  2.7832
 1012TIP3   OH227230   6.202   3.249   7.269 -0.2959  0.4086 -0.1322
 1012TIP3    H127231   6.110   3.237   7.249 -0.4152  0.3244  0.4371
 1012TIP3    H227232   6.214   3.344   7.269 -0.7298  0.4880  1.2306
 1013TIP3   OH227233   0.369   7.449   8.917 -0.2805  0.1824 -0.2007
 1013TIP3    H127234   0.413   7.532   8.896 -0.8502  0.4081 -0.5361
 1013TIP3    H227235   0.439   7.392   8.948 -0.0103  1.0826  0.9189
 1014TIP3   OH227236   3.711   2.818   7.472 -0.0307 -0.4495  0.2802
 1014TIP3    H127237   3.624   2.783   7.452  0.2396 -0.4725 -0.9718
 1014TIP3    H227238   3.695   2.887   7.536 -1.3433  1.5110 -2.0212
 1015TIP3   OH227239   2.215   4.841   8.406 -0.1747 -0.0893 -0.1993
 1015TIP3    H127240   2.159   4.769   8.376 -1.3938  0.5467  0.4500
 1015TIP3    H227241   2.283   4.799   8.458 -1.6830 -0.6952  1.3687
 1016TIP3   OH227242   3.372   0.554   9.210  0.5912  0.0990  0.2594
 1016TIP3    H127243   3.280   0.552   9.183  0.6408  1.7980 -0.1488
 1016TIP3    H227244   3.399   0.645   9.196  1.3255  0.5467  3.7119
 1017TIP3   OH227245   0.022   5.717   7.606 -0.4019 -0.0474 -0.0866
 1017TIP3    H127246   0.081   5.776   7.558  1.0793 -1.0324  0.4670
 1017TIP3    H227247   0.057   5.630   7.591 -0.6402 -0.5029  1.7660
 1018TIP3   OH227248   0.886   7.590   9.373 -0.0006 -0.1496 -0.5198
 1018TIP3    H127249   0.843   7.670   9.344 -0.1175 -0.2795 -0.6995
 1018TIP3    H227250   0.980   7.609   9.364 -0.0340 -0.2470 -1.1451
 1019TIP3   OH227251   2.730   3.991   8.445  0.7889  0.0005 -0.3419
 1019TIP3    H127252   2.738   4.014   8.538  2.0275 -0.6697 -0.2632
 1019TIP3    H227253   2.792   4.048   8.401 -0.1143  0.6296 -0.8382
 1020TIP3   OH227254   1.365   7.552   8.198 -0.0768 -0.0908 -0.5468
 1020TIP3    H127255   1.307   7.586   8.265 -0.6511 -0.1319 -1.0168
 1020TIP3    H227256   1.322   7.473   8.166  0.9108 -0.9029  0.0558
 1021TIP3   OH227257   3.477   5.716   9.313  0.1752 -0.3701 -0.3417
 1021TIP3    H127258   3.406   5.761   9.267  0.7687  0.4791 -0.4615
 1021TIP3    H227259   3.434   5.647   9.362 -0.7239  0.0828 -0.4682
 1022TIP3   OH227260   4.428   1.230   8.773 -0.3359 -0.1697 -0.0584
 1022TIP3    H127261   4.449   1.235   8.679 -1.4914  1.2294 -0.2765
 1022TIP3    H227262   4.340   1.194   8.777  0.3138 -1.7535  0.6054
 1023TIP3   OH227263   2.305   4.696   9.363 -0.3199  0.4319 -0.0090
 1023TIP3    H127264   2.315   4.676   9.456  0.9292 -1.8401 -0.5562
 1023TIP3    H227265   2.383   4.747   9.341  0.3515 -0.6549 -0.1893
 1024TIP3   OH227266   3.367   0.713   8.108  0.0673  0.2832 -0.7322
 1024TIP3    H127267   3.399   0.627   8.134  0.8765  0.9788  0.7029
 1024TIP3    H227268   3.314   0.696   8.029 -0.9968 -1.7017  0.3203
 1025TIP3   OH227269   2.727   0.329   8.436 -0.5173 -0.1310  0.2306
 1025TIP3    H127270   2.695   0.384   8.363 -1.5477  0.7451  1.2902
 1025TIP3    H227271   2.661   0.261   8.444  0.4341 -1.1993 -0.6667
 1026TIP3   OH227272   1.458   0.464   9.433 -0.3707 -0.3768  0.0660
 1026TIP3    H127273   1.484   0.486   9.344 -0.6654 -0.4369 -0.0342
 1026TIP3    H227274   1.485   0.373   9.444  2.4316  0.4518  1.0523
 1027TIP3   OH227275   6.425   1.115   9.101  0.6720 -0.2796 -0.1550
 1027TIP3    H127276   6.359   1.085   9.039  2.0065 -1.7461 -0.9471
 1027TIP3    H227277   6.385   1.099   9.187 -0.4671  0.0380 -0.6012
 1028TIP3   OH227278   0.705   0.033   8.519 -0.2467 -0.6343  0.4251
 1028TIP3    H127279   0.731   0.107   8.465  0.4126 -0.3600  1.0878
 1028TIP3    H227280   0.781   0.016   8.574 -1.2268 -0.2161  1.9969
 1029TIP3   OH227281   3.046   6.146   6.449  0.5657  0.8803 -0.3177
 1029TIP3    H127282   3.064   6.052   6.457  1.4868  1.1903  2.0705
 1029TIP3    H227283   2.964   6.159   6.497  0.9718  1.4092  0.2635
 1030TIP3   OH227284   2.438   5.062   7.485 -0.1691 -0.0177  0.1881
 1030TIP3    H127285   2.466   5.086   7.397  0.1178 -0.0374  0.2719
 1030TIP3    H227286   2.439   5.145   7.534  2.2453 -0.3540  0.8694
 1031TIP3   OH227287   5.798   7.318   8.220  0.0099 -0.0273  0.0227
 1031TIP3    H127288   5.829   7.227   8.218  1.3861  0.4444 -1.0403
 1031TIP3    H227289   5.726   7.316   8.283 -1.0049 -2.1703 -1.0672
 1032TIP3   OH227290   4.277   4.036   7.062 -0.5029 -0.3930 -0.4658
 1032TIP3    H127291   4.259   3.942   7.049 -0.5413 -0.5728  0.7988
 1032TIP3    H227292   4.362   4.038   7.106 -0.8703  0.1310  0.2312
 1033TIP3   OH227293   3.534   0.076   7.070  0.2236  0.3075  0.3330
 1033TIP3    H127294   3.542   0.153   7.013  2.4405  1.1797  1.7167
 1033TIP3    H227295   3.444   0.080   7.102  0.4666  2.7958  0.9429
 1034TIP3   OH227296   7.063   4.909   7.302 -0.5873 -0.0068 -0.0716
 1034TIP3    H127297   7.080   4.815   7.307  0.4772  0.1369 -0.6976
 1034TIP3    H227298   7.054   4.927   7.208 -0.8545  0.5097  0.0485
 1035TIP3   OH227299   3.760   3.405   7.183 -0.1535  0.0218 -1.0951
 1035TIP3    H127300   3.795   3.454   7.109 -1.0377  1.2614 -0.7340
 1035TIP3    H227301   3.685   3.457   7.213 -0.2160 -0.7902  0.2536
 1036TIP3   OH227302   1.814   3.555   7.121  0.3352 -0.0595  1.0704
 1036TIP3    H127303   1.908   3.568   7.108 -0.0464  1.7808 -0.2326
 1036TIP3    H227304   1.787   3.628   7.177 -0.2805 -0.7704  1.7259
 1037TIP3   OH227305   6.867   2.831   8.628 -0.0367  0.4130  0.0560
 1037TIP3    H127306   6.885   2.737   8.632 -0.1082  0.1914 -2.8973
 1037TIP3    H227307   6.804   2.841   8.557 -0.7847  2.6401  0.9380
 1038TIP3   OH227308   0.674   1.088   8.245  0.0931  0.2354  0.3595
 1038TIP3    H127309   0.732   1.012   8.244 -0.4205 -0.1596  0.2583
 1038TIP3    H227310   0.618   1.076   8.168 -1.6789 -0.6101  1.7366
 1039TIP3   OH227311   2.004   4.971   9.194  0.3813 -0.2796  0.1632
 1039TIP3    H127312   2.015   4.979   9.288 -0.8779  0.4048  0.2751
 1039TIP3    H227313   2.018   4.878   9.175  0.8371 -0.3831  0.9879
 1040TIP3   OH227314   5.970   2.540   9.049  0.1473 -0.3990  0.1650
 1040TIP3    H127315   5.940   2.496   9.128  1.0505 -1.1764  0.0987
 1040TIP3    H227316   5.996   2.469   8.990 -0.0318  0.1825 -0.6281
 1041TIP3   OH227317   3.218   3.266   8.706  0.1750  0.2177 -0.3380
 1041TIP3    H127318   3.135   3.271   8.659 -0.4411  0.4103  0.7325
 1041TIP3    H227319   3.270   3.338   8.671 -1.1081  1.7907  0.7994
 1042TIP3   OH227320   1.080   0.273   9.372  0.0135 -0.7855 -0.5438
 1042TIP3    H127321   1.093   0.346   9.311 -2.0116 -0.0680 -0.1838
 1042TIP3    H227322   1.104   0.308   9.457 -2.7162  0.1683 -0.0630
 1043TIP3   OH227323   1.145   6.744   9.359 -0.0696 -0.0551  0.0955
 1043TIP3    H127324   1.073   6.705   9.408  0.0933 -0.4374  0.0304
 1043TIP3    H227325   1.160   6.685   9.285  0.4549 -0.0999  0.2319
 1044TIP3   OH227326   7.055   3.079   8.883  0.0170 -0.1184 -0.0773
 1044TIP3    H127327   6.997   3.011   8.915 -0.9543  0.7222  0.0057
 1044TIP3    H227328   7.140   3.059   8.923 -0.6502 -0.3246  1.2893
 1045TIP3   OH227329   1.555   1.547   8.493 -0.6285 -0.0554 -0.4189
 1045TIP3    H127330   1.506   1.615   8.538  0.3410 -0.2677  1.0677
 1045TIP3    H227331   1.552   1.571   8.400 -1.6763  1.0919 -0.1092
 1046TIP3   OH227332   2.982   3.868   8.499  0.7164  0.6690  0.0380
 1046TIP3    H127333   3.001   3.892   8.408 -0.1800  1.5777  0.0669
 1046TIP3    H227334   2.886   3.864   8.503  0.7296  1.0637  1.0336
 1047TIP3   OH227335   1.357   7.367   8.742 -0.1430  0.0403 -0.3435
 1047TIP3    H127336   1.375   7.454   8.779 -0.5901  0.0115 -0.0437
 1047TIP3    H227337   1.414   7.308   8.790 -0.4388  0.0579  0.0345
 1048TIP3   OH227338   0.787   2.920   9.187  0.5449 -0.0180 -0.1326
 1048TIP3    H127339   0.844   2.997   9.187  0.4911  0.0373  0.9056
 1048TIP3    H227340   0.726   2.935   9.259 -1.0531  0.0990 -1.4531
 1049TIP3   OH227341   7.629   4.450   8.313  0.2234  0.2531  0.0844
 1049TIP3    H127342   7.584   4.512   8.255  0.9323 -0.2826 -1.0765
 1049TIP3    H227343   7.687   4.401   8.255  0.6733 -0.5762  1.2022
 1050TIP3   OH227344   5.394   2.220   9.044 -0.2662 -0.2494  0.0617
 1050TIP3    H127345   5.323   2.175   8.999 -0.3621  0.6829 -0.7488
 1050TIP3    H227346   5.410   2.298   8.991  2.0101 -0.9093 -0.3142
 1051TIP3   OH227347   5.011   6.801   7.238 -0.1816  0.1865 -0.3188
 1051TIP3    H127348   5.052   6.715   7.237  0.3382  0.4339 -0.8217
 1051TIP3    H227349   4.985   6.815   7.329 -0.9126 -0.7934 -0.3579
 1052TIP3   OH227350   5.616   1.489   8.643 -0.0985  0.3806  0.1282
 1052TIP3    H127351   5.618   1.397   8.666  0.3932  0.4414  0.3344
 1052TIP3    H227352   5.669   1.496   8.564 -1.1434  0.2971 -0.5966
 1053TIP3   OH227353   0.867   4.074   9.069 -0.4283  0.2872 -0.0765
 1053TIP3    H127354   0.919   4.137   9.019 -0.6346  1.5955  1.2531
 1053TIP3    H227355   0.896   4.086   9.160 -1.4984 -0.5173  0.3918
 1054TIP3   OH227356   0.775   0.355   7.134 -0.4668 -0.3394 -0.3783
 1054TIP3    H127357   0.798   0.271   7.173  0.0022 -0.4329 -0.8425
 1054TIP3    H227358   0.857   0.386   7.094 -0.3882  0.7877  0.5913
 1055TIP3   OH227359   6.904   0.270   8.103  0.1170  0.3983  0.2580
 1055TIP3    H127360   6.927   0.226   8.185 -0.6334 -1.4798 -0.4660
 1055TIP3    H227361   6.987   0.299   8.067  0.7752 -1.1943  0.3957
 1056TIP3   OH227362   3.507   1.129   8.498 -0.1258 -0.2600 -0.9240
 1056TIP3    H127363   3.560   1.138   8.419  0.5166  0.1819 -0.4542
 1056TIP3    H227364   3.529   1.205   8.551 -0.7502 -0.4113 -0.4285
 1057TIP3   OH227365   4.928   0.910   9.177  0.0436  0.1419  0.0488
 1057TIP3    H127366   4.905   0.880   9.089 -2.2098  0.1202  0.5929
 1057TIP3    H227367   4.879   0.992   9.188 -0.6433 -0.4611  1.7030
 1058TIP3   OH227368   4.666   7.489   9.584  0.4166 -0.5308  0.7284
 1058TIP3    H127369   4.624   7.406   9.605  0.6043 -1.1076 -1.0236
 1058TIP3    H227370   4.665   7.493   9.489 -0.5833  2.0184  0.7854
 1059TIP3   OH227371   0.818   2.015   9.538 -0.9880  0.3483  0.0222
 1059TIP3    H127372   0.804   1.965   9.458  0.6355 -0.4519  0.2150
 1059TIP3    H227373   0.750   2.083   9.535 -1.8526 -0.5202 -1.3117
 1060TIP3   OH227374   3.893   2.919   7.020 -0.4504  0.1318  0.5340
 1060TIP3    H127375   3.811   2.870   7.029  0.8031 -2.2435 -0.0038
 1060TIP3    H227376   3.867   3.005   6.987 -2.6605 -0.8552 -0.4738
 1061TIP3   OH227377   5.671   3.551   9.088  0.1063  0.3454  0.4752
 1061TIP3    H127378   5.632   3.464   9.097 -2.2578  0.9273 -2.4779
 1061TIP3    H227379   5.739   3.540   9.022 -0.7584  0.8086 -0.5324
 1062TIP3   OH227380   3.320   2.960   7.690 -0.0740 -0.4882 -0.3063
 1062TIP3    H127381   3.366   3.019   7.749  0.3764 -0.1268 -1.0018
 1062TIP3    H227382   3.231   2.956   7.724 -0.0398  0.3779 -0.0944
 1063TIP3   OH227383   6.273   3.810   8.326  0.0447  0.7858 -0.4078
 1063TIP3    H127384   6.231   3.773   8.248  2.5834  1.0301 -2.0114
 1063TIP3    H227385   6.290   3.902   8.302  0.4204  1.0009  0.6296
 1064TIP3   OH227386   6.634   4.789   8.610  0.6993 -0.1894 -0.2407
 1064TIP3    H127387   6.682   4.840   8.675 -0.4056  1.7485 -0.8564
 1064TIP3    H227388   6.543   4.789   8.642  0.4069 -0.4252 -1.0424
 1065TIP3   OH227389   1.244   7.105   8.465 -0.0592 -0.0193 -0.3544
 1065TIP3    H127390   1.152   7.130   8.450 -0.4302 -0.4959  0.9735
 1065TIP3    H227391   1.292   7.188   8.458 -0.4460  0.1123 -1.9088
 1066TIP3   OH227392   1.737   1.811   7.805  0.4637  0.1769 -0.0382
 1066TIP3    H127393   1.701   1.870   7.739 -0.2642  0.4299  0.5849
 1066TIP3    H227394   1.739   1.863   7.886 -1.5311 -1.0518  0.8671
 1067TIP3   OH227395   2.409   2.716   7.368 -0.8717  0.0701  0.9201
 1067TIP3    H127396   2.381   2.769   7.443  0.8497  2.0403  0.2539
 1067TIP3    H227397   2.380   2.765   7.291  0.1126 -0.3185  0.2883
 1068TIP3   OH227398   0.333   2.695   7.443  0.3224  0.4604 -0.2557
 1068TIP3    H127399   0.239   2.696   7.422  0.1048  0.0552  0.6463
 1068TIP3    H227400   0.376   2.684   7.358 -0.4973 -0.5800 -0.5678
 1069TIP3   OH227401   0.593   1.505   8.735  0.1443  0.2689 -0.0380
 1069TIP3    H127402   0.500   1.483   8.728  0.0161  0.1724  1.6246
 1069TIP3    H227403   0.639   1.425   8.709 -0.2599 -0.1846  0.6187
 1070TIP3   OH227404   0.520   0.408   6.747  0.1264  0.5226  0.3476
 1070TIP3    H127405   0.490   0.378   6.832 -1.2910  0.7671 -0.0508
 1070TIP3    H227406   0.511   0.332   6.690  0.1944  0.6175  0.2088
 1071TIP3   OH227407   3.987   2.668   7.541  0.8496  0.3421  0.1433
 1071TIP3    H127408   3.915   2.606   7.549  0.5950  0.8267  2.1005
 1071TIP3    H227409   3.946   2.750   7.516  0.9192  0.2444 -0.2941
 1072TIP3   OH227410   4.367   4.272   8.946 -0.0585  0.0840 -0.2814
 1072TIP3    H127411   4.308   4.228   8.884  0.0593  0.2892 -0.5425
 1072TIP3    H227412   4.374   4.212   9.020  1.1524 -0.9529 -1.1909
 1073TIP3   OH227413   3.124   4.910   7.126  0.6370  0.1897  0.3404
 1073TIP3    H127414   3.036   4.924   7.090  0.2571  0.5698  1.3858
 1073TIP3    H227415   3.166   4.851   7.064 -0.8705 -1.1872  0.5522
 1074TIP3   OH227416   3.024   7.547   8.369 -0.4353 -0.1305  0.2483
 1074TIP3    H127417   2.981   7.511   8.447 -0.9767  0.6170  0.3063
 1074TIP3    H227418   2.989   7.636   8.361 -0.8833 -0.4050 -1.2180
 1075TIP3   OH227419   4.564   5.161   7.544 -0.3990 -0.2100  0.0177
 1075TIP3    H127420   4.610   5.217   7.606 -2.5253  1.9923 -0.2424
 1075TIP3    H227421   4.579   5.202   7.459  2.6280 -3.2804 -1.1429
 1076TIP3   OH227422   1.451   6.756   7.044  0.0175 -0.5344  0.3182
 1076TIP3    H127423   1.483   6.846   7.056 -1.3087 -0.1727  1.4255
 1076TIP3    H227424   1.358   6.767   7.024  0.2347 -1.6117 -1.4869
 1077TIP3   OH227425   6.731   3.276   7.823 -0.1634  0.3758  0.2466
 1077TIP3    H127426   6.781   3.358   7.826  0.1564  0.2256 -0.6570
 1077TIP3    H227427   6.647   3.302   7.785  0.9208 -0.1329 -2.8205
 1078TIP3   OH227428   4.766   5.353   7.026 -0.5810  0.2752 -0.3520
 1078TIP3    H127429   4.830   5.358   6.955  0.8292  0.8261  0.8977
 1078TIP3    H227430   4.685   5.326   6.984  0.3820 -0.0827 -2.0577
 1079TIP3   OH227431   0.033   5.216   8.693  0.4142  0.0099  0.2854
 1079TIP3    H127432   0.090   5.199   8.767 -1.5946  2.0158  2.4530
 1079TIP3    H227433   0.087   5.267   8.632  1.3051  0.9008  1.7562
 1080TIP3   OH227434   3.192   6.077   8.798  0.2193 -0.7086  0.3854
 1080TIP3    H127435   3.100   6.086   8.822 -0.0379 -0.7224 -0.5362
 1080TIP3    H227436   3.228   6.165   8.808 -0.3595 -0.2760 -0.9953
 1081TIP3   OH227437   1.947   6.758   7.605 -0.5945  0.7127  0.0518
 1081TIP3    H127438   1.941   6.801   7.520 -0.1668 -0.2841 -0.5001
 1081TIP3    H227439   1.942   6.664   7.585  0.5962  0.4146  1.0006
 1082TIP3   OH227440   1.788   1.539   8.860  0.2562  0.0009  0.0251
 1082TIP3    H127441   1.717   1.600   8.839  1.3879  0.6654 -2.1426
 1082TIP3    H227442   1.865   1.594   8.868  0.8182 -0.8777  0.8200
 1083TIP3   OH227443   6.864   1.148   7.644  0.3871 -0.3612 -0.0409
 1083TIP3    H127444   6.950   1.157   7.603  0.3485  0.1677 -0.0137
 1083TIP3    H227445   6.877   1.173   7.735  0.5706 -1.9901  0.4149
 1084TIP3   OH227446   5.399   0.575   8.340  0.1267  0.1532  0.2299
 1084TIP3    H127447   5.323   0.522   8.319 -0.4431  0.7860  0.6653
 1084TIP3    H227448   5.450   0.522   8.401 -0.6590  0.2661  1.0020
 1085TIP3   OH227449   5.119   7.606   7.072  0.2410 -0.5650 -0.0794
 1085TIP3    H127450   5.104   7.700   7.071  1.7401 -0.2972 -0.8067
 1085TIP3    H227451   5.131   7.585   7.164  0.5880  0.0849  0.0302
 1086TIP3   OH227452   0.359   5.841   8.813 -0.1987  0.0246  0.3394
 1086TIP3    H127453   0.287   5.900   8.794 -1.1861 -1.0888  0.5353
 1086TIP3    H227454   0.353   5.824   8.907  0.5236  0.1693  0.4241
 1087TIP3   OH227455   0.456   6.703   7.951  0.1261  0.4319  0.1827
 1087TIP3    H127456   0.525   6.767   7.932  1.1022 -0.3298  1.0416
 1087TIP3    H227457   0.502   6.620   7.956 -1.3571 -0.7513 -2.9123
 1088TIP3   OH227458   7.619   0.854   9.279 -0.5785  0.1761 -0.2355
 1088TIP3    H127459   7.587   0.876   9.191  0.9049 -0.7248 -1.0563
 1088TIP3    H227460   7.590   0.764   9.292 -2.2848  0.8564  0.9717
 1089TIP3   OH227461   4.938   4.405   8.053 -0.8023  0.1483 -0.3252
 1089TIP3    H127462   4.888   4.472   8.100  2.4994  2.5596  0.1839
 1089TIP3    H227463   4.928   4.428   7.961  0.0455  1.2063 -0.1708
 1090TIP3   OH227464   0.582   2.246   7.962  0.5524  0.6033 -0.4701
 1090TIP3    H127465   0.625   2.316   7.913  1.4664  0.5364  0.2260
 1090TIP3    H227466   0.649   2.212   8.021 -0.5192  0.7229  0.8891
 1091TIP3   OH227467   4.336   0.107   7.294  0.0965 -0.5678 -0.0027
 1091TIP3    H127468   4.266   0.173   7.297  0.8348  0.1921  0.9248
 1091TIP3    H227469   4.366   0.109   7.203 -1.5950 -1.4743 -0.6282
 1092TIP3   OH227470   4.089   4.162   6.902  0.3780 -0.3272  0.2974
 1092TIP3    H127471   4.174   4.152   6.944  1.0232 -4.7608 -1.5371
 1092TIP3    H227472   4.026   4.129   6.966  0.1837  1.2172  0.9491
 1093TIP3   OH227473   3.491   1.692   8.239 -0.2615  0.0144 -0.0981
 1093TIP3    H127474   3.579   1.674   8.272 -0.2249 -0.0151 -0.2109
 1093TIP3    H227475   3.472   1.782   8.266 -1.4624 -0.9934  2.7620
 1094TIP3   OH227476   3.540   0.074   7.893  0.4213 -0.0799  0.1678
 1094TIP3    H127477   3.598   0.017   7.842 -0.3850 -1.2068  0.4772
 1094TIP3    H227478   3.515   0.020   7.968 -1.7322  0.0385 -0.4154
 1095TIP3   OH227479   5.305   6.613   8.022 -0.0079 -0.3414 -0.0996
 1095TIP3    H127480   5.350   6.693   8.046  0.0598  0.3249 -2.2769
 1095TIP3    H227481   5.249   6.593   8.097  0.3480  1.4597  0.6808
 1096TIP3   OH227482   5.568   3.969   6.957 -0.3701 -0.3006 -0.2723
 1096TIP3    H127483   5.623   4.021   7.016  0.1757 -1.5345  0.3472
 1096TIP3    H227484   5.619   3.889   6.942 -1.0587 -0.5430 -1.4346
 1097TIP3   OH227485   3.932   6.300   7.982  0.1197 -0.6136 -0.3652
 1097TIP3    H127486   3.934   6.212   7.944 -0.2025 -0.4368 -0.7961
 1097TIP3    H227487   3.881   6.352   7.920  0.9753  0.0651 -0.5220
 1098TIP3   OH227488   2.767   1.477   7.690  0.7738  0.2429 -0.9396
 1098TIP3    H127489   2.730   1.393   7.660  1.1754 -0.4223  0.3378
 1098TIP3    H227490   2.691   1.529   7.714  0.5604 -0.2874 -0.4274
 1099TIP3   OH227491   2.645   2.014   8.556  0.4092  0.0068 -0.1992
 1099TIP3    H127492   2.642   1.933   8.607  1.4429  0.7823  1.1308
 1099TIP3    H227493   2.562   2.014   8.507  0.2326 -1.6676  0.0239
 1100TIP3   OH227494   1.405   3.647   8.458  0.0488 -0.2926 -0.1758
 1100TIP3    H127495   1.336   3.649   8.524  1.2513 -1.0879  1.1650
 1100TIP3    H227496   1.361   3.673   8.376 -1.6830 -0.2225  0.7287
 1101TIP3   OH227497   2.075   3.628   7.228  0.4461 -0.4601 -0.3134
 1101TIP3    H127498   2.146   3.564   7.226  0.7053 -0.1725 -1.1751
 1101TIP3    H227499   2.108   3.699   7.283  0.6447 -0.5394 -0.3293
 1102TIP3   OH227500   1.010   6.295   8.255 -0.1201 -0.5303 -0.1647
 1102TIP3    H127501   0.918   6.302   8.279  0.4456 -1.0429  2.4512
 1102TIP3    H227502   1.023   6.202   8.235 -0.6041 -0.0979 -2.8550
 1103TIP3   OH227503   4.469   1.930   7.710  0.5258 -0.2469 -0.3426
 1103TIP3    H127504   4.419   1.853   7.681 -0.8428  0.3165  0.4344
 1103TIP3    H227505   4.547   1.893   7.750 -0.1364 -1.2586  0.0644
 1104TIP3   OH227506   2.910   1.522   9.702 -0.4269  0.1421  0.1713
 1104TIP3    H127507   2.938   1.475   9.623  1.5444  1.8778 -0.2398
 1104TIP3    H227508   2.958   1.480   9.773 -0.0699  0.3732  0.0640
 1105TIP3   OH227509   1.388   1.038   8.809  0.1343 -0.4794  0.1333
 1105TIP3    H127510   1.477   1.004   8.798  0.8250  1.1837  0.3476
 1105TIP3    H227511   1.395   1.131   8.790 -1.9570 -0.6220 -1.7013
 1106TIP3   OH227512   3.913   5.423   7.710 -0.3070  0.7442  0.2920
 1106TIP3    H127513   3.838   5.383   7.754 -0.8769  2.3724  0.8488
 1106TIP3    H227514   3.976   5.441   7.779 -0.0547  0.8096  0.0482
 1107TIP3   OH227515   1.541   3.684   9.467 -0.1613  0.0205  0.3626
 1107TIP3    H127516   1.574   3.633   9.393 -3.2212 -0.4345 -0.8337
 1107TIP3    H227517   1.558   3.775   9.442 -1.6734 -0.0865 -1.2784
 1108TIP3   OH227518   4.351   6.320   8.246 -0.3009  0.3834  0.5886
 1108TIP3    H127519   4.344   6.319   8.151 -0.1446  1.8564  0.5309
 1108TIP3    H227520   4.265   6.294   8.277 -0.0354 -1.2047  0.0749
 1109TIP3   OH227521   1.922   2.833   8.953 -0.1366  0.2411 -0.0987
 1109TIP3    H127522   2.015   2.845   8.974  0.2174  0.3975 -1.6398
 1109TIP3    H227523   1.922   2.779   8.874 -1.3006  1.3873 -0.9299
 1110TIP3   OH227524   5.621   6.718   7.263  0.0823 -0.2799 -0.3557
 1110TIP3    H127525   5.592   6.633   7.229  2.8131 -2.3615  1.9836
 1110TIP3    H227526   5.671   6.756   7.191  2.3787 -2.7300 -0.2262
 1111TIP3   OH227527   4.689   5.472   8.443  0.0699 -0.4848  0.4308
 1111TIP3    H127528   4.758   5.408   8.431 -0.3474 -1.0936  1.1906
 1111TIP3    H227529   4.628   5.455   8.371 -0.1239 -1.0663  0.7247
 1112TIP3   OH227530   3.088   1.832   9.662  0.0490  0.6443  0.2256
 1112TIP3    H127531   3.066   1.764   9.726 -0.1535 -0.3864 -0.9054
 1112TIP3    H227532   3.009   1.840   9.608  1.3339 -0.9627 -2.0205
 1113TIP3   OH227533   3.261   1.043   6.972 -0.4294  1.0119  0.5418
 1113TIP3    H127534   3.176   1.019   7.008  0.4846 -1.5693  1.1837
 1113TIP3    H227535   3.272   0.985   6.896  1.7386 -0.5017  1.9097
 1114TIP3   OH227536   4.578   4.281   8.352  0.6917  0.3725 -0.2291
 1114TIP3    H127537   4.623   4.274   8.436 -0.1176 -0.9040  0.1317
 1114TIP3    H227538   4.556   4.374   8.344 -0.0430  0.3819  1.4323
 1115TIP3   OH227539   3.886   1.906   8.630  0.0243 -0.2760 -0.2819
 1115TIP3    H127540   3.955   1.930   8.692 -0.6131  0.2123  0.2501
 1115TIP3    H227541   3.930   1.905   8.545  0.7977 -0.4646  0.1083
 1116TIP3   OH227542   4.612   6.255   7.546  0.3763  1.2992 -0.0230
 1116TIP3    H127543   4.595   6.232   7.637 -1.5473  1.1099 -0.3966
 1116TIP3    H227544   4.698   6.297   7.548  0.7023  0.6408  1.7558
 1117TIP3   OH227545   6.806   0.361   8.911 -0.3069  0.0400 -0.0986
 1117TIP3    H127546   6.885   0.356   8.858 -1.2618  0.1419 -1.5658
 1117TIP3    H227547   6.829   0.419   8.984  0.4916  1.3493 -1.3574
 1118TIP3   OH227548   0.614   5.638   7.997  0.0270 -0.0389 -0.0586
 1118TIP3    H127549   0.637   5.655   7.906 -0.2313 -1.7739 -0.4859
 1118TIP3    H227550   0.529   5.679   8.009 -0.3783 -0.6070 -0.8970
 1119TIP3   OH227551   5.764   1.353   9.518  0.0938 -0.5109 -0.1377
 1119TIP3    H127552   5.789   1.445   9.529  2.1388 -0.9833 -0.5467
 1119TIP3    H227553   5.737   1.347   9.426  1.3799 -0.6027 -0.5269
 1120TIP3   OH227554   0.933   2.855   8.516  0.3598  0.2153  0.1590
 1120TIP3    H127555   0.867   2.794   8.548 -2.1689  1.4705 -2.2829
 1120TIP3    H227556   0.952   2.912   8.590 -1.6174  0.0498  0.8332
 1121TIP3   OH227557   4.028   6.047   8.567  0.6965  0.1148 -0.0779
 1121TIP3    H127558   3.961   6.106   8.601 -1.5209 -1.3242 -1.6741
 1121TIP3    H227559   4.068   6.008   8.645 -1.1266  0.1973  0.9436
 1122TIP3   OH227560   3.857   0.482   8.719  0.2289  0.2763 -0.4589
 1122TIP3    H127561   3.940   0.501   8.761 -0.2832 -0.1138  0.7895
 1122TIP3    H227562   3.803   0.445   8.789 -1.8814  2.9130 -0.5226
 1123TIP3   OH227563   3.570   1.911   7.492 -0.5584 -0.6640  0.2552
 1123TIP3    H127564   3.496   1.966   7.465  0.7548  0.3347 -1.5379
 1123TIP3    H227565   3.645   1.970   7.494  0.6728 -2.1238 -0.5093
 1124TIP3   OH227566   3.760   2.656   9.548  0.2144  0.6150 -0.0167
 1124TIP3    H127567   3.831   2.701   9.595  0.4962  0.5800 -0.4067
 1124TIP3    H227568   3.797   2.635   9.462  0.2449 -0.8034  0.3208
 1125TIP3   OH227569   6.226   4.567   7.622  1.2344  0.2726 -0.5753
 1125TIP3    H127570   6.226   4.610   7.708  0.0119  0.7270 -0.7901
 1125TIP3    H227571   6.163   4.496   7.631  0.5571  0.7755 -1.3115
 1126TIP3   OH227572   3.526   0.317   6.904 -0.1379  0.2353  0.1323
 1126TIP3    H127573   3.481   0.400   6.922 -1.6674 -0.4963 -0.1247
 1126TIP3    H227574   3.487   0.286   6.822 -0.4557 -1.3061  0.8344
 1127TIP3   OH227575   3.624   5.317   7.689  0.6691  0.4557  0.3786
 1127TIP3    H127576   3.580   5.366   7.619 -0.1845 -0.8217 -0.0099
 1127TIP3    H227577   3.568   5.328   7.765 -0.6956 -1.6144 -0.2524
 1128TIP3   OH227578   6.124   1.090   8.222 -0.0551  0.2853  0.3589
 1128TIP3    H127579   6.058   1.026   8.196  0.2268 -0.1465  0.6976
 1128TIP3    H227580   6.077   1.174   8.222 -0.1049  0.2872 -1.3380
 1129TIP3   OH227581   3.017   0.676   7.427 -0.1538  0.3338  0.0185
 1129TIP3    H127582   2.924   0.694   7.417  0.2166  1.5623 -1.4644
 1129TIP3    H227583   3.040   0.714   7.512 -1.1785 -0.9175  0.9079
 1130TIP3   OH227584   5.158   6.525   9.391  0.0193 -0.2188  0.4999
 1130TIP3    H127585   5.093   6.464   9.355 -0.6050  0.4303  0.5250
 1130TIP3    H227586   5.220   6.468   9.437 -0.1290 -0.9072 -0.1274
 1131TIP3   OH227587   1.583   6.584   8.619  0.0262 -0.5117 -0.0349
 1131TIP3    H127588   1.664   6.636   8.621  0.6380 -1.3853  2.8177
 1131TIP3    H227589   1.530   6.625   8.550  1.9340  1.5577 -0.3984
 1132TIP3   OH227590   3.218   0.681   8.522  0.4530 -0.4613 -0.0706
 1132TIP3    H127591   3.169   0.721   8.450  0.0295 -1.3156 -0.2681
 1132TIP3    H227592   3.310   0.689   8.495  0.4004  0.5421 -0.0071
 1133TIP3   OH227593   3.549   2.733   8.634 -0.0063 -0.2450 -0.0739
 1133TIP3    H127594   3.612   2.802   8.611 -0.5918 -0.0956 -1.2865
 1133TIP3    H227595   3.527   2.692   8.550 -1.5898 -0.2334  0.3198
 1134TIP3   OH227596   7.568   1.851   8.130 -0.6271  0.5254 -0.3453
 1134TIP3    H127597   7.573   1.776   8.188  0.0954 -0.6098 -1.8058
 1134TIP3    H227598   7.614   1.921   8.177 -0.0953 -0.3450  0.4535
 1135TIP3   OH227599   0.143   5.998   8.750 -0.4889 -0.8364 -0.2535
 1135TIP3    H127600   0.115   6.077   8.703 -1.0864 -0.1494  1.1949
 1135TIP3    H227601   0.146   5.930   8.683  2.4522  0.8754 -2.0939
 1136TIP3   OH227602   0.611   3.923   8.780 -0.3437  0.0585 -0.0662
 1136TIP3    H127603   0.523   3.886   8.771 -0.2005  0.0504 -1.7778
 1136TIP3    H227604   0.604   4.010   8.740  0.6473 -0.3486 -1.2073
 1137TIP3   OH227605   2.027   4.219   8.991 -1.0082  0.3407 -0.0726
 1137TIP3    H127606   1.992   4.140   9.032  0.1640 -0.8226 -1.2137
 1137TIP3    H227607   2.070   4.266   9.061  3.3230 -2.8852 -0.1658
 1138TIP3   OH227608   5.975   7.189   8.859 -0.1719 -0.0132  0.1253
 1138TIP3    H127609   5.929   7.221   8.936  0.2324 -0.5323  0.5964
 1138TIP3    H227610   6.058   7.155   8.894  0.0240 -0.2332 -0.5436
 1139TIP3   OH227611   6.750   4.436   7.701  0.9669  0.5422  0.3480
 1139TIP3    H127612   6.665   4.475   7.721  0.4646  0.4165 -1.3145
 1139TIP3    H227613   6.730   4.347   7.673  1.7297  0.2702  0.6334
 1140TIP3   OH227614   1.924   1.813   9.609 -0.2512 -0.5440  0.1350
 1140TIP3    H127615   1.998   1.830   9.551 -1.0047 -1.0062 -0.9749
 1140TIP3    H227616   1.965   1.780   9.689  0.9110  1.5305  0.4905
 1141TIP3   OH227617   2.437   0.644   8.457 -0.1207 -0.3717  0.5729
 1141TIP3    H127618   2.351   0.668   8.422  0.0267  1.1864  1.2049
 1141TIP3    H227619   2.456   0.711   8.523  2.0455 -0.0782 -0.2745
 1142TIP3   OH227620   7.167   7.012   6.818 -0.0180  0.1149  0.3343
 1142TIP3    H127621   7.167   7.040   6.910  1.1760 -0.8872  0.6729
 1142TIP3    H227622   7.259   7.015   6.792 -0.3169  0.1467 -0.7621
 1143TIP3   OH227623   1.403   6.963   8.807 -0.2618 -0.2878  0.1064
 1143TIP3    H127624   1.398   7.020   8.883 -0.0921 -2.3809  1.7761
 1143TIP3    H227625   1.394   6.875   8.842  0.4180 -1.3834 -2.2428
 1144TIP3   OH227626   0.093   3.439   7.696  0.2317 -0.6083  0.1822
 1144TIP3    H127627   0.090   3.345   7.712  0.3904 -0.3307  2.0165
 1144TIP3    H227628   0.174   3.468   7.739  1.1050  0.1452 -1.8269
 1145TIP3   OH227629   3.758   0.908   8.652  0.1867  0.3077 -0.4135
 1145TIP3    H127630   3.668   0.911   8.686  0.7487  0.1233  1.1741
 1145TIP3    H227631   3.774   0.997   8.621 -0.6842  0.2262 -1.1605
 1146TIP3   OH227632   3.757   7.248   7.800 -0.1325 -0.6938  0.0625
 1146TIP3    H127633   3.688   7.309   7.774  0.5356  0.9159  1.8038
 1146TIP3    H227634   3.785   7.207   7.718 -0.9929  0.9407 -1.1141
 1147TIP3   OH227635   7.426   3.560   9.326 -0.0069  0.9006 -0.3217
 1147TIP3    H127636   7.405   3.547   9.233 -1.8619  0.4270  0.1268
 1147TIP3    H227637   7.382   3.489   9.371  0.5399  1.3519  0.9833
 1148TIP3   OH227638   0.344   7.223   8.689 -0.0739 -0.2772  0.0880
 1148TIP3    H127639   0.406   7.293   8.711 -0.1093 -0.1052 -0.3405
 1148TIP3    H227640   0.259   7.267   8.683  0.0138 -0.2220 -0.8742
 1149TIP3   OH227641   4.224   2.418   8.594 -0.4346 -0.0703 -0.1148
 1149TIP3    H127642   4.316   2.412   8.569 -0.3126 -1.4218  0.6103
 1149TIP3    H227643   4.196   2.504   8.561  1.0766  0.3648 -0.3235
 1150TIP3   OH227644   5.152   5.192   8.486  0.0444  0.1772 -0.1276
 1150TIP3    H127645   5.162   5.099   8.467  1.9727  0.3955 -0.3220
 1150TIP3    H227646   5.199   5.237   8.416 -0.0232  1.2732  0.5064
 1151TIP3   OH227647   6.824   0.770   9.202 -0.3699  0.0376 -0.5110
 1151TIP3    H127648   6.729   0.774   9.211 -0.5348  0.0638 -2.0073
 1151TIP3    H227649   6.842   0.682   9.168  0.2734 -0.4098  0.9036
 1152TIP3   OH227650   1.254   6.434   7.951 -0.1219  0.0467  0.2802
 1152TIP3    H127651   1.319   6.496   7.985 -0.2718  0.0615  0.5468
 1152TIP3    H227652   1.171   6.481   7.959  0.1222  1.1137 -2.6193
 1153TIP3   OH227653   3.287   6.509   9.609  0.0325  0.0981 -0.7212
 1153TIP3    H127654   3.218   6.482   9.548  0.4625  0.4831 -1.3837
 1153TIP3    H227655   3.263   6.467   9.692 -0.9386  0.1387 -0.9716
 1154TIP3   OH227656   1.977   3.893   8.303 -0.4027 -0.5860 -0.0980
 1154TIP3    H127657   1.914   3.902   8.232 -0.8464 -1.4374  0.1769
 1154TIP3    H227658   1.983   3.799   8.319 -1.2924 -0.3711  1.8351
 1155TIP3   OH227659   1.973   3.799   7.860  0.3126  0.4018 -0.6754
 1155TIP3    H127660   1.994   3.720   7.809 -3.7036 -0.5750 -1.1373
 1155TIP3    H227661   2.027   3.792   7.938 -0.3254 -3.2318 -0.4004
 1156TIP3   OH227662   0.657   2.482   7.482  0.2795  0.0004  0.6951
 1156TIP3    H127663   0.639   2.459   7.391  0.5005 -0.7489  0.8384
 1156TIP3    H227664   0.571   2.489   7.523  0.2027 -2.4817  1.1097
 1157TIP3   OH227665   6.881   1.251   9.488 -0.1578  0.7329 -0.4326
 1157TIP3    H127666   6.903   1.238   9.396 -0.4534 -0.0174 -0.4032
 1157TIP3    H227667   6.815   1.185   9.506  2.1500 -1.2879  1.1545
 1158TIP3   OH227668   5.063   4.566   8.761 -0.6850 -0.1981  0.3993
 1158TIP3    H127669   5.023   4.577   8.847 -0.1433  0.8684  0.5395
 1158TIP3    H227670   5.055   4.652   8.720  1.5351  0.1232  0.4986
 1159TIP3   OH227671   2.525   0.633   8.068 -0.1690 -0.8481 -0.1980
 1159TIP3    H127672   2.498   0.716   8.108  1.3721 -0.0430 -0.7509
 1159TIP3    H227673   2.442   0.588   8.050 -0.9842 -0.3498  1.9378
 1160TIP3   OH227674   1.108   2.559   9.222 -0.2402 -0.5695 -0.0181
 1160TIP3    H127675   1.028   2.561   9.275 -0.7582  0.8237 -0.8012
 1160TIP3    H227676   1.078   2.575   9.132  0.5007 -3.7909 -0.9486
 1161TIP3   OH227677   3.453   4.730   8.569 -0.2826  0.3026 -0.2244
 1161TIP3    H127678   3.510   4.689   8.503 -2.1541 -1.8865 -0.5881
 1161TIP3    H227679   3.438   4.661   8.634 -3.6547  0.2322 -0.9158
 1162TIP3   OH227680   3.833   7.479   8.740 -0.7234 -0.0557  0.3891
 1162TIP3    H127681   3.801   7.515   8.823 -0.0069  3.5361 -0.7385
 1162TIP3    H227682   3.924   7.506   8.735 -1.1540  1.2859 -2.2224
 1163TIP3   OH227683   0.161   7.393   7.271  0.3522  0.0415  0.5791
 1163TIP3    H127684   0.083   7.448   7.271  0.6395  0.4592  0.7080
 1163TIP3    H227685   0.189   7.391   7.180  0.7429  0.7048  0.6734
 1164TIP3   OH227686   7.239   2.320   8.046  0.4111 -0.5986  0.0519
 1164TIP3    H127687   7.327   2.312   8.009  0.9731 -0.1892  1.2507
 1164TIP3    H227688   7.199   2.392   7.998  1.0020 -0.3010 -0.0037
 1165TIP3   OH227689   5.767   6.904   9.380  0.0110 -0.2277 -0.5921
 1165TIP3    H127690   5.724   6.819   9.387  1.4103 -0.9444 -0.2755
 1165TIP3    H227691   5.822   6.898   9.302 -1.1291  1.0040 -1.5335
 1166TIP3   OH227692   3.518   1.559   7.985  0.3828 -0.4168 -0.0490
 1166TIP3    H127693   3.435   1.546   7.939  0.9418  1.1804 -1.6462
 1166TIP3    H227694   3.495   1.612   8.061 -0.0252  0.5067 -0.7916
 1167TIP3   OH227695   1.082   3.263   9.094  0.0292  0.2880  0.1266
 1167TIP3    H127696   1.100   3.356   9.110  1.3227 -0.3300  2.9739
 1167TIP3    H227697   1.015   3.240   9.158  0.4630 -0.9360  0.1806
 1168TIP3   OH227698   4.508   4.725   9.059 -0.0546  0.1198  0.4236
 1168TIP3    H127699   4.547   4.712   8.972 -0.9186 -0.8464  0.1602
 1168TIP3    H227700   4.583   4.744   9.116  0.7279 -0.9362 -0.2068
 1169TIP3   OH227701   1.888   3.539   7.512  0.2564 -0.2826 -0.1014
 1169TIP3    H127702   1.860   3.626   7.542 -0.3839 -0.8621  1.0318
 1169TIP3    H227703   1.807   3.494   7.491  0.5776 -0.6742 -0.5087
 1170TIP3   OH227704   4.218   4.318   8.007 -0.3297  0.2904  0.1937
 1170TIP3    H127705   4.246   4.373   7.934 -1.7602  1.0654  0.1933
 1170TIP3    H227706   4.166   4.249   7.965 -0.3383  0.1784  0.3906
 1171TIP3   OH227707   0.728   5.572   7.214 -0.8106 -0.1112  0.1362
 1171TIP3    H127708   0.702   5.660   7.243 -0.9021  0.0109 -0.3133
 1171TIP3    H227709   0.651   5.517   7.234 -1.5228  0.2907 -1.3844
 1172TIP3   OH227710   0.211   7.254   7.997  0.4615 -0.5346  0.9686
 1172TIP3    H127711   0.254   7.179   7.956 -2.0870 -0.7510 -1.6740
 1172TIP3    H227712   0.154   7.215   8.063  0.1062 -0.8363  0.4953
 1173TIP3   OH227713   4.532   3.077   9.092  0.2876 -0.8702  0.5027
 1173TIP3    H127714   4.621   3.114   9.090  0.9040 -2.1822 -2.4552
 1173TIP3    H227715   4.545   2.983   9.101 -0.9471 -0.9496  1.7665
 1174TIP3   OH227716   4.467   5.509   9.170  0.0752 -0.4357  0.1108
 1174TIP3    H127717   4.477   5.417   9.195  1.1346  0.0518  1.5360
 1174TIP3    H227718   4.520   5.518   9.091  1.7988 -0.5571  1.2147
 1175TIP3   OH227719   4.024   3.038   7.620 -0.5236 -0.5372  0.0626
 1175TIP3    H127720   4.108   2.993   7.614 -0.9204 -1.3246  0.2588
 1175TIP3    H227721   3.960   2.967   7.629 -1.2834  0.0274 -0.8289
 1176TIP3   OH227722   6.551   1.589   7.267  0.4909  0.4242  0.2615
 1176TIP3    H127723   6.483   1.528   7.240  0.7631  0.4827 -0.5628
 1176TIP3    H227724   6.514   1.676   7.252  0.1542  0.4739  1.3080
 1177TIP3   OH227725   5.586   7.563   9.617  0.0032 -0.2156  0.5058
 1177TIP3    H127726   5.627   7.648   9.635 -1.2791 -0.0180  2.9152
 1177TIP3    H227727   5.522   7.582   9.549 -0.5196  0.8501  1.2617
 1178TIP3   OH227728   0.491   5.044   8.897 -0.8073  0.2014 -0.0436
 1178TIP3    H127729   0.489   5.021   8.805 -2.0940  0.6717 -0.1542
 1178TIP3    H227730   0.463   5.136   8.900  0.0312  0.4523  0.7513
 1179TIP3   OH227731   2.747   0.006   8.541 -0.2596 -0.4015 -0.3434
 1179TIP3    H127732   2.783  -0.082   8.556  0.9379 -0.2008 -1.8097
 1179TIP3    H227733   2.816   0.065   8.570 -1.0893  0.0950  0.6976
 1180TIP3   OH227734   3.227   6.044   9.151  0.8818 -0.3627 -0.2931
 1180TIP3    H127735   3.220   5.976   9.084  3.4000  0.9357 -2.0467
 1180TIP3    H227736   3.314   6.031   9.190 -0.3255 -0.7815  2.5068
 1181TIP3   OH227737   3.817   1.469   7.105  0.7898  0.6340 -0.6017
 1181TIP3    H127738   3.814   1.398   7.041  0.6245 -0.2351  0.3426
 1181TIP3    H227739   3.882   1.530   7.070  0.6724  0.2112 -1.6095
 1182TIP3   OH227740   4.996   6.982   7.492  0.5261  0.5773  0.5476
 1182TIP3    H127741   4.961   7.063   7.455  1.3042  1.2724  1.2937
 1182TIP3    H227742   4.956   6.976   7.579  1.4566  0.8632  1.0130
 1183TIP3   OH227743   2.595   0.118   8.724  0.1431 -0.5402  0.3975
 1183TIP3    H127744   2.637   0.099   8.640  0.2735 -0.6607  0.4885
 1183TIP3    H227745   2.558   0.035   8.752 -0.2269 -0.4144  0.2785
 1184TIP3   OH227746   6.388   4.317   7.791  0.1230  0.5567  0.0703
 1184TIP3    H127747   6.330   4.342   7.863 -2.2868  0.8224 -1.8320
 1184TIP3    H227748   6.441   4.246   7.826 -2.8351 -1.1883  1.3782
 1185TIP3   OH227749   4.035   4.089   7.604  0.8004 -1.0517 -0.2862
 1185TIP3    H127750   4.012   3.996   7.602  1.4292 -1.2015 -1.2448
 1185TIP3    H227751   4.070   4.107   7.517 -0.9107  0.5186 -0.6946
 1186TIP3   OH227752   3.395   4.867   8.059  0.1384 -0.0427 -0.3704
 1186TIP3    H127753   3.309   4.875   8.020 -0.0987  1.9419  0.4194
 1186TIP3    H227754   3.453   4.843   7.987 -0.9022 -0.4473 -1.0904
 1187TIP3   OH227755   1.993   7.496   7.198 -0.2640  0.0234  0.7195
 1187TIP3    H127756   1.924   7.560   7.179  0.8542  0.7650 -1.1554
 1187TIP3    H227757   1.969   7.419   7.145 -1.0458 -0.7568  2.1570
 1188TIP3   OH227758   4.624   7.251   9.324 -0.0187 -0.3611  0.2299
 1188TIP3    H127759   4.680   7.174   9.330  0.3115 -0.2796 -1.4244
 1188TIP3    H227760   4.566   7.233   9.250 -0.1505  0.8208  0.0217
 1189TIP3   OH227761   5.046   6.320   8.034 -0.3392  0.3808 -0.9599
 1189TIP3    H127762   5.000   6.237   8.018  1.1468 -0.5068 -0.8169
 1189TIP3    H227763   5.138   6.296   8.037  0.0653  1.8998  0.0789
 1190TIP3   OH227764   5.289   5.533   6.818  0.2094  0.6446  0.3810
 1190TIP3    H127765   5.357   5.601   6.819  2.1530 -1.0970 -1.8969
 1190TIP3    H227766   5.335   5.452   6.838 -1.6480 -0.3317  0.9615
 1191TIP3   OH227767   0.501   7.100   7.688 -0.3655 -0.2212 -0.3664
 1191TIP3    H127768   0.584   7.116   7.733 -0.1862 -0.7110 -0.5111
 1191TIP3    H227769   0.440   7.075   7.757  0.1887 -2.0481 -0.4786
 1192TIP3   OH227770   5.127   3.083   7.261 -0.3439  0.4722  0.5754
 1192TIP3    H127771   5.137   2.997   7.219 -2.8849  0.3912  0.0005
 1192TIP3    H227772   5.143   3.146   7.191 -0.3963  0.4206  0.5164
 1193TIP3   OH227773   1.851   0.931   8.581  0.1904  0.2021  0.6385
 1193TIP3    H127774   1.855   0.939   8.486  1.4012 -0.6840  0.5966
 1193TIP3    H227775   1.781   0.992   8.607  0.3834  1.0539 -0.7316
 1194TIP3   OH227776   0.200   2.329   7.967 -0.1225 -0.0838 -0.1297
 1194TIP3    H127777   0.224   2.343   7.875 -0.7938 -0.5785 -0.3864
 1194TIP3    H227778   0.271   2.275   8.001 -0.8630 -1.6001 -0.9067
 1195TIP3   OH227779   1.928   2.004   8.698 -0.0946  0.4566  0.1380
 1195TIP3    H127780   1.896   1.956   8.775 -0.0653 -0.6678 -0.5215
 1195TIP3    H227781   1.848   2.029   8.651 -0.0825 -1.0816 -0.7580
 1196TIP3   OH227782   0.469   0.466   8.367  0.4360  0.4699 -0.6058
 1196TIP3    H127783   0.519   0.478   8.447 -0.2422 -0.8491  0.0460
 1196TIP3    H227784   0.446   0.373   8.366 -2.2651  1.0450 -0.7075
 1197TIP3   OH227785   5.124   7.293   8.473  0.5801  0.1711 -0.1543
 1197TIP3    H127786   5.040   7.268   8.435  1.0963  0.6071 -1.6558
 1197TIP3    H227787   5.154   7.367   8.420  2.2725 -0.4675 -0.1824
 1198TIP3   OH227788   3.326   5.211   9.410 -0.2583  0.4097  0.5726
 1198TIP3    H127789   3.349   5.175   9.324 -1.7077  0.3618  0.1844
 1198TIP3    H227790   3.410   5.239   9.447  0.5537 -0.7649 -0.2995
 1199TIP3   OH227791   5.127   3.342   7.400  0.7057  0.4342  0.0649
 1199TIP3    H127792   5.115   3.265   7.345  1.1241  1.1326 -1.0273
 1199TIP3    H227793   5.213   3.329   7.441  0.1997 -0.2997  0.9359
 1200TIP3   OH227794   5.011   3.686   8.688  0.3037  0.3437 -0.5055
 1200TIP3    H127795   5.020   3.632   8.767 -1.5307 -0.6591 -0.9108
 1200TIP3    H227796   5.080   3.656   8.630 -0.3404 -1.2361 -0.5004
 1201TIP3   OH227797   1.175   5.799   7.353  0.1701  0.1347  0.6401
 1201TIP3    H127798   1.247   5.809   7.415  0.6823 -0.6981  0.1904
 1201TIP3    H227799   1.099   5.776   7.407  0.2560  0.9024  1.1022
 1202TIP3   OH227800   1.752   0.278   9.239  0.0879 -0.1233  0.0068
 1202TIP3    H127801   1.771   0.199   9.291 -0.7994 -0.3244  0.0397
 1202TIP3    H227802   1.835   0.298   9.195  0.3511 -1.0283  0.0652
 1203TIP3   OH227803   1.202   0.118   6.922 -0.2016 -0.2404  0.0487
 1203TIP3    H127804   1.239   0.048   6.868 -1.3813  0.1740 -1.3575
 1203TIP3    H227805   1.145   0.167   6.862  0.5799  1.9270  0.9886
 1204TIP3   OH227806   1.899   7.228   8.708  0.2138 -0.3372 -0.1934
 1204TIP3    H127807   1.903   7.132   8.709 -0.5555 -0.3684  0.9607
 1204TIP3    H227808   1.940   7.252   8.624 -0.6636 -1.7172 -1.0622
 1205TIP3   OH227809   7.510   0.635   8.605 -0.1621  0.1791  0.7392
 1205TIP3    H127810   7.416   0.655   8.603  0.1584  1.7478  0.0236
 1205TIP3    H227811   7.520   0.561   8.545 -0.9946 -0.2678  1.1430
 1206TIP3   OH227812   6.610   2.417   8.326 -0.3623 -0.0453 -0.7085
 1206TIP3    H127813   6.685   2.374   8.368 -0.3187 -0.0444 -0.7861
 1206TIP3    H227814   6.535   2.364   8.352 -0.1684 -0.8805 -1.7731
 1207TIP3   OH227815   0.614   4.972   9.512  0.1138  0.3415  0.0982
 1207TIP3    H127816   0.611   5.066   9.533 -0.3170  0.4090 -0.2744
 1207TIP3    H227817   0.694   4.942   9.554  2.7776  1.7753 -3.4177
 1208TIP3   OH227818   0.388   1.928   6.871 -0.0360  0.5573 -0.0244
 1208TIP3    H127819   0.294   1.911   6.857 -0.0624  0.7245 -0.0470
 1208TIP3    H227820   0.396   2.023   6.869  0.0902  0.5521  0.2810
 1209TIP3   OH227821   5.527   6.444   8.707 -0.0654 -0.0289 -0.3736
 1209TIP3    H127822   5.442   6.481   8.683 -0.3949  0.2444  1.1199
 1209TIP3    H227823   5.588   6.517   8.701 -0.4435  0.4416  1.1241
 1210TIP3   OH227824   3.961   4.326   8.146  0.0284  0.5683 -0.2610
 1210TIP3    H127825   3.925   4.294   8.063 -0.2132 -0.3639  0.1867
 1210TIP3    H227826   3.886   4.327   8.206  0.6341 -1.0883  0.5957
 1211TIP3   OH227827   2.036   1.641   8.863  0.1217  0.1801  0.3388
 1211TIP3    H127828   2.043   1.657   8.769 -0.9922 -1.8121 -0.1225
 1211TIP3    H227829   2.060   1.549   8.874  0.7035  0.5001  2.0927
 1212TIP3   OH227830   1.702   6.693   7.091  0.5436 -0.1994  0.9933
 1212TIP3    H127831   1.711   6.698   7.186  0.2259  1.7799  0.9527
 1212TIP3    H227832   1.608   6.696   7.075  0.6514  1.6065  0.5584
 1213TIP3   OH227833   3.706   5.665   8.278 -0.2551  0.2493 -0.2393
 1213TIP3    H127834   3.659   5.716   8.212 -0.9742  1.6631  1.2827
 1213TIP3    H227835   3.754   5.731   8.329  0.5442 -0.8275  0.4391
 1214TIP3   OH227836   1.707   1.304   8.948  0.4664  0.3111  0.0133
 1214TIP3    H127837   1.726   1.392   8.914 -1.9541  0.7371 -0.4589
 1214TIP3    H227838   1.653   1.320   9.026  0.6110 -0.7584  0.3428
 1215TIP3   OH227839   4.785   4.605   8.140 -0.2769 -0.1529  0.0136
 1215TIP3    H127840   4.787   4.693   8.178 -2.0941 -0.4408  0.8611
 1215TIP3    H227841   4.712   4.607   8.078 -0.9989 -1.3457  0.7951
 1216TIP3   OH227842   4.403   2.182   7.368 -0.7848 -0.2755 -0.7643
 1216TIP3    H127843   4.363   2.154   7.286 -1.4325 -2.7761  0.3041
 1216TIP3    H227844   4.329   2.192   7.428 -0.3588  1.8931 -0.5198
 1217TIP3   OH227845   5.981   0.170   8.294  0.3882 -0.3223  0.5644
 1217TIP3    H127846   5.937   0.092   8.261  0.3230 -0.5026  1.0697
 1217TIP3    H227847   5.939   0.242   8.247 -1.6017 -0.3504  2.1466
 1218TIP3   OH227848   7.362   1.518   9.122  0.2591  0.2218 -0.2191
 1218TIP3    H127849   7.349   1.593   9.063 -1.9614 -0.1316 -0.2932
 1218TIP3    H227850   7.424   1.462   9.076  0.7519  1.2769 -0.8977
 1219TIP3   OH227851   4.430   7.644   8.968  0.2586  0.1291 -0.2947
 1219TIP3    H127852   4.362   7.608   9.025  2.0250 -1.8809  0.6841
 1219TIP3    H227853   4.502   7.664   9.027  1.1561  0.5887 -1.5062
 1220TIP3   OH227854   7.296   3.577   7.366  0.4487  0.4446  0.0319
 1220TIP3    H127855   7.291   3.482   7.377 -1.2241  0.3642 -0.9570
 1220TIP3    H227856   7.296   3.612   7.455 -1.6884 -0.4226  0.4280
 1221TIP3   OH227857   3.484   0.197   8.587 -0.0344  0.1857 -0.2751
 1221TIP3    H127858   3.420   0.241   8.531  0.6967 -0.8052 -1.9487
 1221TIP3    H227859   3.478   0.104   8.562  0.8651 -0.1593  0.7379
 1222TIP3   OH227860   6.978   3.316   8.598  0.3254 -0.1643 -0.6122
 1222TIP3    H127861   6.935   3.247   8.648 -0.0004  0.4501 -0.0355
 1222TIP3    H227862   7.065   3.324   8.639 -0.0893  0.6194  0.1288
 1223TIP3   OH227863   6.404   0.201   9.507  0.4713 -0.4742  0.1922
 1223TIP3    H127864   6.352   0.136   9.459  0.5978 -1.3387  1.1779
 1223TIP3    H227865   6.344   0.274   9.522  0.3136 -0.3695 -0.9043
 1224TIP3   OH227866   7.671   2.763   8.934  0.3856  1.1316  0.1533
 1224TIP3    H127867   7.765   2.778   8.941  0.2587  1.3999  1.3941
 1224TIP3    H227868   7.662   2.703   8.859  1.7605 -0.8477  1.4614
 1225TIP3   OH227869   6.474   4.059   9.120  0.3936  0.3163 -0.4340
 1225TIP3    H127870   6.501   3.968   9.107 -1.0032 -0.0702 -0.8520
 1225TIP3    H227871   6.387   4.052   9.160  1.0807  1.4921  1.3852
 1226TIP3   OH227872   6.418   7.352   8.614 -0.1796  0.2317 -0.0754
 1226TIP3    H127873   6.363   7.326   8.540 -0.3102 -1.6479  0.6266
 1226TIP3    H227874   6.357   7.359   8.688  0.2452 -0.0937  0.3136
 1227TIP3   OH227875   6.515   5.018   7.838  0.3677 -0.2234 -0.1291
 1227TIP3    H127876   6.488   4.966   7.914  1.7766 -0.1211  0.4734
 1227TIP3    H227877   6.611   5.020   7.843  0.5196 -0.4200 -2.0472
 1228TIP3   OH227878   2.271   5.316   9.123 -0.7366  0.2461  0.4447
 1228TIP3    H127879   2.267   5.411   9.134  1.2600  0.3860  0.4025
 1228TIP3    H227880   2.328   5.286   9.194 -2.0050 -1.0444  0.9615
 1229TIP3   OH227881   5.042   6.502   8.412  0.1308 -0.1100  0.0440
 1229TIP3    H127882   5.012   6.575   8.466 -0.1068 -0.7842  0.8453
 1229TIP3    H227883   5.133   6.522   8.393  0.6535 -0.4990  1.8785
 1230TIP3   OH227884   1.168   7.533   9.109  0.2537 -0.0675  0.1104
 1230TIP3    H127885   1.147   7.580   9.189 -0.5088 -3.7044  2.2969
 1230TIP3    H227886   1.261   7.513   9.116  0.2736 -0.0415 -0.0851
 1231TIP3   OH227887   1.365   4.465   9.249 -0.5335  0.7193  0.2382
 1231TIP3    H127888   1.434   4.525   9.220  0.2207 -0.5124 -0.6558
 1231TIP3    H227889   1.369   4.393   9.186 -1.3643 -0.2913  1.3021
 1232TIP3   OH227890   2.237   3.337   7.807 -0.0593  0.1097  0.1030
 1232TIP3    H127891   2.301   3.360   7.739  0.6428  1.1746  1.0815
 1232TIP3    H227892   2.257   3.246   7.829 -0.4217 -0.3141 -1.2269
 1233TIP3   OH227893   7.506   4.445   7.871 -0.1788  0.3433 -0.2956
 1233TIP3    H127894   7.428   4.393   7.891 -0.7353  0.4391 -2.1167
 1233TIP3    H227895   7.578   4.391   7.902 -0.9114 -0.0697  0.7666
 1234TIP3   OH227896   0.231   0.251   7.167 -0.3452 -0.0449 -0.5325
 1234TIP3    H127897   0.199   0.261   7.257 -1.1868 -0.6104 -0.7589
 1234TIP3    H227898   0.235   0.341   7.133 -0.0872  0.1661  0.0386
 1235TIP3   OH227899   0.734   5.433   8.344  0.2665 -0.2193  0.0393
 1235TIP3    H127900   0.646   5.471   8.343  0.6108  0.6423 -0.8913
 1235TIP3    H227901   0.730   5.362   8.280 -0.4492 -1.9889  1.9752
 1236TIP3   OH227902   3.317   6.908   7.755  0.6908 -0.6912  0.0018
 1236TIP3    H127903   3.377   6.901   7.829  1.6330  2.5863 -0.2599
 1236TIP3    H227904   3.370   6.949   7.686 -1.0764 -0.4485 -1.2703
 1237TIP3   OH227905   3.841   3.228   7.820  0.2564  0.0952  0.0023
 1237TIP3    H127906   3.912   3.253   7.761  2.5833 -2.5432  1.4037
 1237TIP3    H227907   3.861   3.272   7.902 -0.6797  0.6064 -0.0344
 1238TIP3   OH227908   4.349   0.909   8.081 -0.1631 -0.5543  0.0727
 1238TIP3    H127909   4.280   0.870   8.134  0.5756 -1.5167  0.3781
 1238TIP3    H227910   4.401   0.834   8.052 -0.1510  0.0220 -1.4385
 1239TIP3   OH227911   3.205   1.409   7.077 -0.5229 -0.4689  0.1534
 1239TIP3    H127912   3.272   1.477   7.089 -1.2706  1.1253 -3.4590
 1239TIP3    H227913   3.143   1.426   7.149  0.0088  1.8552  0.1717
 1240TIP3   OH227914   1.192   2.399   8.928 -0.3460 -0.0185  0.0421
 1240TIP3    H127915   1.213   2.490   8.907  1.0661 -0.7480 -1.9877
 1240TIP3    H227916   1.265   2.369   8.982 -0.7051 -0.0120  0.5347
 1241TIP3   OH227917   3.700   7.319   8.059 -0.1659  0.4655 -0.2680
 1241TIP3    H127918   3.730   7.290   7.973 -1.2581 -1.0826 -0.1668
 1241TIP3    H227919   3.611   7.351   8.044 -0.6002 -0.4070  0.3800
 1242TIP3   OH227920   1.843   0.856   7.132  1.0011  0.1814 -0.8664
 1242TIP3    H127921   1.869   0.842   7.223  0.5077  1.1081 -0.5691
 1242TIP3    H227922   1.840   0.951   7.123 -2.6307  0.1847 -0.7537
 1243TIP3   OH227923   4.259   2.375   8.907  0.5058 -0.0712  0.5185
 1243TIP3    H127924   4.250   2.443   8.839 -0.6353  0.0439  0.7562
 1243TIP3    H227925   4.168   2.355   8.932  0.6260 -3.1366 -0.9756
 1244TIP3   OH227926   4.446   6.053   7.304  0.1495 -0.7127 -0.0317
 1244TIP3    H127927   4.375   6.049   7.368  0.3672 -4.1963  0.2204
 1244TIP3    H227928   4.481   5.964   7.302  0.7343 -0.6119 -4.3317
 1245TIP3   OH227929   3.434   3.548   7.542 -0.4476 -1.1090  0.0752
 1245TIP3    H127930   3.526   3.544   7.566  1.0681  2.3933 -3.9057
 1245TIP3    H227931   3.428   3.499   7.460 -1.3127  1.0958 -1.2825
 1246TIP3   OH227932   1.318   5.459   8.726  0.1809 -0.1443  0.4751
 1246TIP3    H127933   1.333   5.483   8.634 -1.3537  5.5839  1.3072
 1246TIP3    H227934   1.396   5.490   8.772 -0.4471  0.0571  1.4317
 1247TIP3   OH227935   6.839   1.947   8.095 -0.6531 -0.5432 -0.5491
 1247TIP3    H127936   6.761   2.000   8.082 -0.8993 -0.8753 -0.4334
 1247TIP3    H227937   6.844   1.935   8.190  1.8841  3.0341 -0.0445
 1248TIP3   OH227938   7.608   4.143   8.278  0.5487 -0.4786 -0.5095
 1248TIP3    H127939   7.641   4.058   8.307 -0.7234 -1.6974 -2.3889
 1248TIP3    H227940   7.534   4.161   8.336 -0.4529 -1.6952 -1.3549
 1249TIP3   OH227941   4.886   2.173   8.987  0.0116 -0.0844  0.0667
 1249TIP3    H127942   4.896   2.263   9.017  0.7229 -0.1904  0.1637
 1249TIP3    H227943   4.939   2.121   9.048  0.6422 -0.4218 -0.7522
 1250TIP3   OH227944   3.560   6.821   9.037  0.0763 -0.1538 -0.4462
 1250TIP3    H127945   3.581   6.865   8.955  1.1838 -0.8475 -0.5504
 1250TIP3    H227946   3.570   6.888   9.104  2.6275 -0.4016 -0.4935
 1251TIP3   OH227947   5.462   0.062   7.605  0.5604  0.0516  0.1837
 1251TIP3    H127948   5.469  -0.033   7.593  0.9789  0.1823 -0.7180
 1251TIP3    H227949   5.402   0.090   7.535 -2.0842  0.0915  2.2902
 1252TIP3   OH227950   3.981   0.139   7.228 -0.3311 -0.0557  0.3420
 1252TIP3    H127951   4.064   0.186   7.222 -0.6975  0.5285 -0.3836
 1252TIP3    H227952   3.946   0.142   7.139 -0.2122 -2.0160  0.1992
 1253TIP3   OH227953   1.081   4.812   8.591  0.2366 -0.0519 -0.3833
 1253TIP3    H127954   1.026   4.749   8.639  0.2850 -0.9423 -1.4533
 1253TIP3    H227955   1.043   4.897   8.611  0.0241 -0.4320  0.9202
 1254TIP3   OH227956   1.931   5.806   8.825 -0.5284 -0.2070  0.3480
 1254TIP3    H127957   1.891   5.724   8.796 -1.9842  0.5816  0.0216
 1254TIP3    H227958   1.902   5.870   8.760  0.8463  0.5147  0.4240
 1255TIP3   OH227959   5.251   1.946   7.733  0.2545  0.5800 -0.4693
 1255TIP3    H127960   5.199   1.976   7.658 -1.8586  2.6418  1.6466
 1255TIP3    H227961   5.199   1.874   7.770  1.9861 -1.3999 -1.6482
 1256TIP3   OH227962   6.772   7.383   8.220  0.0744 -0.7573  0.7145
 1256TIP3    H127963   6.726   7.335   8.151  2.0074 -0.0300 -1.1976
 1256TIP3    H227964   6.716   7.373   8.297 -1.1944 -3.3131 -0.4096
 1257TIP3   OH227965   1.873   2.315   7.193 -0.0761  0.3294  0.2575
 1257TIP3    H127966   1.871   2.244   7.129  0.0890  0.3907  0.1858
 1257TIP3    H227967   1.917   2.278   7.269 -0.6844  0.1104  0.5083
 1258TIP3   OH227968   1.425   6.141   8.888  0.5082  0.0470  0.7114
 1258TIP3    H127969   1.415   6.234   8.911  1.9826  0.0061  1.6437
 1258TIP3    H227970   1.393   6.135   8.798 -0.1383  1.3484  0.8316
 1259TIP3   OH227971   2.424   5.948   7.199 -0.1531  0.1054 -0.0786
 1259TIP3    H127972   2.373   5.959   7.279  0.8064  2.9944  0.2706
 1259TIP3    H227973   2.363   5.971   7.128 -0.6429 -1.1921 -0.0918
 1260TIP3   OH227974   4.087   6.610   7.661  0.1024 -0.3926  0.3674
 1260TIP3    H127975   4.123   6.544   7.720 -0.2368 -1.0530 -0.1497
 1260TIP3    H227976   4.118   6.694   7.696 -0.0527 -0.7741  1.4463
 1261TIP3   OH227977   6.273   0.479   9.272 -0.0022 -0.1528 -0.2385
 1261TIP3    H127978   6.219   0.548   9.234 -1.4056 -0.5953  0.8709
 1261TIP3    H227979   6.229   0.456   9.353  0.8518 -1.8395 -0.2078
 1262TIP3   OH227980   0.324   3.220   7.334 -0.3092 -0.2976  0.2859
 1262TIP3    H127981   0.335   3.257   7.421  1.0907  1.4489 -0.5663
 1262TIP3    H227982   0.410   3.187   7.310 -1.0610 -2.3302  0.1812
 1263TIP3   OH227983   7.605   2.380   6.779  0.0945  0.0924  0.4524
 1263TIP3    H127984   7.530   2.331   6.745  0.2423 -0.6876  1.2080
 1263TIP3    H227985   7.583   2.398   6.870  0.6129  0.3036  0.5405
 1264TIP3   OH227986   3.744   5.805   9.233 -0.3394 -0.1438 -0.1339
 1264TIP3    H127987   3.770   5.888   9.192  1.2768 -0.3159  0.4876
 1264TIP3    H227988   3.653   5.819   9.259 -0.1500  1.3804 -0.1957
 1265TIP3   OH227989   2.763   2.856   6.830 -0.0760 -0.4310  0.1194
 1265TIP3    H127990   2.741   2.935   6.782  0.0334 -0.2754  0.3242
 1265TIP3    H227991   2.821   2.885   6.900  1.9244 -1.0028 -1.2044
 1266TIP3   OH227992   4.253   5.073   9.252 -0.1094  0.6457  0.0498
 1266TIP3    H127993   4.244   5.151   9.306  0.2332  0.3224  0.5899
 1266TIP3    H227994   4.213   5.096   9.168 -2.1626  0.5957  0.9801
 1267TIP3   OH227995   0.936   4.288   7.555 -0.2090  0.8382  0.1565
 1267TIP3    H127996   0.862   4.247   7.509 -0.6378  2.1671 -0.3817
 1267TIP3    H227997   0.951   4.370   7.508  1.5447  0.6625  0.3453
 1268TIP3   OH227998   5.436   3.350   8.956  0.2280 -0.5491  0.1078
 1268TIP3    H127999   5.511   3.306   8.995 -0.6672 -1.4355  0.8969
 1268TIP3    H228000   5.403   3.290   8.890 -0.3551 -0.6035  0.4375
 1269TIP3   OH228001   4.917   7.304   7.690 -0.5208 -0.3636  0.2198
 1269TIP3    H128002   4.921   7.279   7.598 -0.7103 -0.8393  0.3383
 1269TIP3    H228003   4.835   7.352   7.699  0.8188  2.2582 -0.4707
 1270TIP3   OH228004   6.331   7.517   7.043  0.6933  0.4680  0.2624
 1270TIP3    H128005   6.328   7.463   6.964  0.4799 -0.9688  1.2155
 1270TIP3    H228006   6.245   7.559   7.046  1.2309  1.7588 -1.0554
 1271TIP3   OH228007   1.497   4.016   7.686 -0.4284  0.0279 -0.5354
 1271TIP3    H128008   1.587   4.048   7.696 -0.6915  0.8911 -0.8503
 1271TIP3    H228009   1.505   3.942   7.625  0.5465 -2.2818  2.1791
 1272TIP3   OH228010   5.111   0.312   7.980  0.1551  0.3352 -0.2802
 1272TIP3    H128011   5.150   0.394   7.952  1.5307  0.5040  1.9025
 1272TIP3    H228012   5.172   0.245   7.949  0.4914  0.3584  0.3185
 1273TIP3   OH228013   5.027   3.285   8.725  0.2406  0.7312  0.2017
 1273TIP3    H128014   4.946   3.270   8.676  0.4895  1.5005 -0.4869
 1273TIP3    H228015   5.096   3.258   8.664  0.5396  1.2858  0.2884
 1274TIP3   OH228016   4.151   6.732   8.709 -0.0100 -0.8000 -0.6702
 1274TIP3    H128017   4.151   6.746   8.804 -1.5171  2.2971 -0.9783
 1274TIP3    H228018   4.241   6.709   8.688  0.1650 -2.5585  1.5594
 1275TIP3   OH228019   6.660   5.851   7.661  0.0329 -0.3733 -0.4282
 1275TIP3    H128020   6.701   5.775   7.621  0.2932  0.1500 -1.1899
 1275TIP3    H228021   6.571   5.823   7.682 -0.7079 -0.2124 -2.9571
 1276TIP3   OH228022   6.175   4.380   8.357 -0.2520  0.5063 -0.8970
 1276TIP3    H128023   6.170   4.461   8.306 -1.0396 -0.1367 -1.8804
 1276TIP3    H228024   6.148   4.312   8.296  1.1547 -0.6145 -0.3131
 1277TIP3   OH228025   0.431   6.209   8.807 -0.0574 -0.0094 -0.2377
 1277TIP3    H128026   0.362   6.248   8.753 -1.2088 -1.9037 -0.1896
 1277TIP3    H228027   0.437   6.118   8.779  2.4463  0.0613 -0.2213
 1278TIP3   OH228028   3.124   5.607   6.626  0.1376 -0.7430  0.3593
 1278TIP3    H128029   3.089   5.614   6.537 -0.3167 -0.4712  0.5517
 1278TIP3    H228030   3.084   5.681   6.673  2.2682  0.6065  0.1905
 1279TIP3   OH228031   6.905   4.057   7.712 -0.2724 -0.1636  0.6293
 1279TIP3    H128032   6.845   4.113   7.664 -0.7391  1.5489  3.0391
 1279TIP3    H228033   6.986   4.108   7.718 -0.5269  0.1074  2.3857
 1280TIP3   OH228034   4.504   5.976   9.526 -0.4501 -0.4239  0.6841
 1280TIP3    H128035   4.460   6.012   9.603  1.3358  1.2900  0.9796
 1280TIP3    H228036   4.573   6.039   9.505 -0.1771 -1.3734 -1.6932
 1281TIP3   OH228037   0.064   7.395   8.365 -0.0616  0.2953 -0.0575
 1281TIP3    H128038   0.064   7.483   8.402  1.3563  0.3899 -0.2427
 1281TIP3    H228039  -0.024   7.385   8.329 -0.4152  1.4269  0.4279
 1282TIP3   OH228040   5.859   0.833   7.644 -0.5429 -0.1419 -0.0759
 1282TIP3    H128041   5.903   0.749   7.632  0.0929 -0.0075  1.1077
 1282TIP3    H228042   5.876   0.881   7.563 -0.9668 -1.1700 -0.7816
 1283TIP3   OH228043   6.046   1.335   9.448  0.0685 -0.5585 -0.5078
 1283TIP3    H128044   5.962   1.301   9.479 -0.7312  0.9921 -0.8685
 1283TIP3    H228045   6.072   1.275   9.378 -0.1585 -1.7042  0.3591
 1284TIP3   OH228046   6.007   3.635   8.648 -0.3897 -0.2074  0.4123
 1284TIP3    H128047   5.949   3.604   8.578  0.0820 -0.7015  0.2282
 1284TIP3    H228048   5.979   3.725   8.664  1.3844  0.9902 -2.4614
 1285TIP3   OH228049   3.304   6.799   6.689 -0.8074 -0.5473  0.2127
 1285TIP3    H128050   3.362   6.727   6.665  1.0949  0.5681  1.2979
 1285TIP3    H228051   3.343   6.837   6.767 -2.1452  1.2435  0.0743
 1286TIP3   OH228052   3.645   6.045   8.345 -0.4277  0.2194  0.9714
 1286TIP3    H128053   3.660   6.128   8.388 -1.8218  1.7348 -1.2662
 1286TIP3    H228054   3.709   6.044   8.273 -0.7554 -0.3866  0.6755
 1287TIP3   OH228055   4.151   5.623   8.677  0.1658  0.0250 -0.1825
 1287TIP3    H128056   4.072   5.570   8.685  0.1462 -0.0690 -0.8844
 1287TIP3    H228057   4.203   5.601   8.754 -0.0847 -0.6157 -0.1872
 1288TIP3   OH228058   7.072   3.332   8.946 -0.3252 -0.4406 -0.1891
 1288TIP3    H128059   6.993   3.353   8.995  0.1278  0.5276  0.1512
 1288TIP3    H228060   7.059   3.242   8.916 -0.4896 -1.1785  1.9637
 1289TIP3   OH228061   2.496   5.007   8.424  0.1940 -0.0508 -0.6098
 1289TIP3    H128062   2.427   5.032   8.362 -0.1994 -3.8499 -1.9441
 1289TIP3    H228063   2.480   4.915   8.443  2.7025 -0.0885  2.1097
 1290TIP3   OH228064   1.113   5.225   7.392  0.5011  0.1970 -0.4529
 1290TIP3    H128065   1.203   5.243   7.418  0.4886  0.2595 -0.4536
 1290TIP3    H228066   1.117   5.219   7.296  0.3688  0.9543 -0.5127
 1291TIP3   OH228067   4.119   3.173   7.926 -0.3489  0.3114  0.3296
 1291TIP3    H128068   4.077   3.220   7.999 -2.1352 -0.6892  0.0053
 1291TIP3    H228069   4.103   3.228   7.850 -1.2874 -0.1478  0.1767
 1292TIP3   OH228070   5.471   6.518   9.209  0.0843 -0.1768  0.1707
 1292TIP3    H128071   5.411   6.497   9.137  0.3726 -0.3177 -0.0274
 1292TIP3    H228072   5.554   6.477   9.184  0.2956  0.1194  0.3912
 1293TIP3   OH228073   1.860   2.605   7.790  0.5132 -0.3560  0.6376
 1293TIP3    H128074   1.891   2.581   7.877  0.8751  1.7861  1.1418
 1293TIP3    H228075   1.852   2.700   7.792  0.7890 -0.2194 -1.7677
 1294TIP3   OH228076   1.961   6.007   8.611  0.2668 -0.1433  0.1024
 1294TIP3    H128077   1.923   6.016   8.524  1.2435  0.0953 -0.3140
 1294TIP3    H228078   1.914   6.072   8.664 -0.4176 -0.3757 -0.2125
 1295TIP3   OH228079   4.469   0.947   7.642  0.0955  0.9391 -0.4915
 1295TIP3    H128080   4.426   0.863   7.628 -1.8069  1.4834  1.5337
 1295TIP3    H228081   4.402   1.012   7.618 -0.6974  1.8189  3.3549
 1296TIP3   OH228082   2.844   2.286   7.372  0.2832 -0.3891 -0.5254
 1296TIP3    H128083   2.775   2.265   7.435 -0.3014  0.5993 -0.7990
 1296TIP3    H228084   2.852   2.208   7.318 -0.2134 -0.7276 -0.1194
 1297TIP3   OH228085   1.069   1.541   7.420 -0.5269  0.2821 -0.3375
 1297TIP3    H128086   1.144   1.585   7.460 -0.4450 -0.9793  1.0056
 1297TIP3    H228087   1.040   1.478   7.487 -0.8691 -1.4077 -1.9791
 1298TIP3   OH228088   7.052   4.686   9.172 -0.4171 -0.1378 -0.1303
 1298TIP3    H128089   7.129   4.743   9.162 -0.4234  0.0294  0.6845
 1298TIP3    H228090   7.087   4.597   9.164 -0.3376 -0.0401 -0.9688
 1299TIP3   OH228091   5.182   1.628   9.301 -0.5202 -0.5564  0.2678
 1299TIP3    H128092   5.143   1.576   9.372 -0.5315 -0.1958  0.5269
 1299TIP3    H228093   5.115   1.630   9.233 -0.3335 -1.3039  0.0445
 1300TIP3   OH228094   6.579   6.773   8.813 -0.4222 -0.5523 -0.1665
 1300TIP3    H128095   6.573   6.722   8.894  1.7487 -3.4897 -1.6946
 1300TIP3    H228096   6.647   6.838   8.830 -0.0087 -1.1206  0.3613
 1301TIP3   OH228097   4.499   3.172   8.457  0.0030 -0.2326  0.5694
 1301TIP3    H128098   4.509   3.265   8.475  1.0314 -0.4542  1.2269
 1301TIP3    H228099   4.573   3.150   8.401  0.6248 -0.9559  1.6481
 1302TIP3   OH228100   7.673   1.266   8.177 -0.1020 -0.2809 -0.1261
 1302TIP3    H128101   7.638   1.343   8.133 -0.1090  1.4728  2.6974
 1302TIP3    H228102   7.595   1.213   8.197 -0.4678  0.4972  0.5732
 1303TIP3   OH228103   7.450   4.318   9.120  0.1999 -0.6649  1.2198
 1303TIP3    H128104   7.466   4.407   9.152 -0.3800 -0.1693  0.1999
 1303TIP3    H228105   7.522   4.266   9.155  1.4676  0.5493  0.4900
 1304TIP3   OH228106   5.932   0.981   8.966  0.0456 -0.7756 -0.1172
 1304TIP3    H128107   5.972   1.067   8.979  0.1866 -0.8264 -0.2106
 1304TIP3    H228108   5.928   0.943   9.054 -0.1476 -0.6167 -0.0578
 1305TIP3   OH228109   2.044   5.551   7.399 -0.3234 -0.4603  0.3538
 1305TIP3    H128110   1.963   5.596   7.374  0.6360  1.9854  1.3770
 1305TIP3    H228111   2.060   5.579   7.489  2.0839 -0.1754 -0.1077
 1306TIP3   OH228112   4.507   3.751   7.769 -0.4783 -0.4616  0.3017
 1306TIP3    H128113   4.531   3.824   7.826  0.1126 -0.7225  0.4010
 1306TIP3    H228114   4.533   3.779   7.681 -1.5100 -0.0059  0.1242
 1307TIP3   OH228115   1.254   4.492   9.503  0.2489  0.2867  0.0116
 1307TIP3    H128116   1.333   4.502   9.556 -0.0420 -0.3786  0.6032
 1307TIP3    H228117   1.286   4.471   9.415  0.7354  0.1034  0.2278
 1308TIP3   OH228118   5.227   1.999   8.235 -0.4907  0.2628 -0.2755
 1308TIP3    H128119   5.197   1.913   8.264  0.8033  0.4118  1.7443
 1308TIP3    H228120   5.178   2.016   8.155 -3.4196 -0.8084  1.1564
 1309TIP3   OH228121   5.870   0.891   9.347 -0.0536  0.3290 -0.2820
 1309TIP3    H128122   5.865   0.967   9.404 -0.2285 -0.9649  1.5250
 1309TIP3    H228123   5.779   0.875   9.320  0.0921  1.2282 -1.3509
 1310TIP3   OH228124   2.286   7.205   7.263 -0.4295  0.4133  0.4699
 1310TIP3    H128125   2.336   7.139   7.311  1.1602  0.9649 -0.3741
 1310TIP3    H228126   2.294   7.284   7.317 -0.3934  0.5055  0.3272
 1311TIP3   OH228127   2.466   0.957   9.158 -0.2711  0.0658  0.4168
 1311TIP3    H128128   2.548   1.004   9.168  0.2236 -0.8265  0.6076
 1311TIP3    H228129   2.401   1.012   9.202  0.6825 -0.5281  2.6498
 1312TIP3   OH228130   0.166   0.510   8.254  0.1666  0.4604  0.0219
 1312TIP3    H128131   0.146   0.603   8.262 -0.5486  0.2430  0.9906
 1312TIP3    H228132   0.192   0.484   8.343  1.4068 -0.0388 -0.4706
 1313TIP3   OH228133   2.115   7.293   8.895  0.0490  0.6299 -0.0361
 1313TIP3    H128134   2.070   7.284   8.811 -0.5820 -0.1020  0.3597
 1313TIP3    H228135   2.128   7.387   8.906 -1.0004  0.8209 -0.3666
 1314TIP3   OH228136   5.990   6.471   7.568  0.0524  0.3048 -0.0454
 1314TIP3    H128137   5.951   6.522   7.498 -0.4654  2.4299  1.6749
 1314TIP3    H228138   5.920   6.461   7.632  1.2657  0.9910  1.4595
 1315TIP3   OH228139   4.909   3.354   7.787 -0.1274 -0.3629 -0.2144
 1315TIP3    H128140   4.868   3.433   7.823 -0.3387 -0.7216  0.3423
 1315TIP3    H228141   4.870   3.343   7.701  1.1086  1.0775 -1.0015
 1316TIP3   OH228142   1.157   3.916   8.244 -0.3517  0.1182  0.1796
 1316TIP3    H128143   1.149   3.930   8.339 -1.1836 -0.8428  0.2722
 1316TIP3    H228144   1.230   3.971   8.218 -1.6969  2.4300  0.9357
 1317TIP3   OH228145   6.867   2.948   8.216  0.5505 -0.5829 -0.2831
 1317TIP3    H128146   6.823   2.870   8.180 -1.1831  0.6430 -0.9946
 1317TIP3    H228147   6.803   2.983   8.278  1.0528  0.5974 -0.4280
 1318TIP3   OH228148   2.136   6.116   7.591  0.0481  0.2244  0.5608
 1318TIP3    H128149   2.051   6.145   7.625 -0.7302 -2.3270  1.0114
 1318TIP3    H228150   2.200   6.154   7.651 -0.9754  0.0234  1.8292
 1319TIP3   OH228151   5.001   7.014   9.062  0.2267 -0.1090 -0.5115
 1319TIP3    H128152   4.985   7.074   8.989  1.2654 -0.8837 -1.3973
 1319TIP3    H228153   4.976   6.928   9.029  2.0685 -0.6945 -0.4947
 1320TIP3   OH228154   1.432   4.231   9.392 -0.4337 -0.3098 -0.0874
 1320TIP3    H128155   1.501   4.276   9.440  1.1700 -1.4181 -1.2472
 1320TIP3    H228156   1.405   4.292   9.324  0.9163 -0.6210 -0.9346
 1321TIP3   OH228157   1.270   1.309   7.320  0.0510 -0.0930  0.4799
 1321TIP3    H128158   1.292   1.371   7.251 -0.7434 -0.3234 -0.0001
 1321TIP3    H228159   1.309   1.226   7.291 -0.7428 -0.3176  0.0207
 1322TIP3   OH228160   2.998   0.937   7.967 -0.6446  0.1904  0.6297
 1322TIP3    H128161   3.061   0.969   8.032 -0.5535  1.5742 -0.1096
 1322TIP3    H228162   2.930   0.895   8.019 -0.5032  1.1420  1.6322
 1323TIP3   OH228163   4.111   0.257   8.009 -0.0025 -0.4827  0.4236
 1323TIP3    H128164   4.040   0.198   8.032 -1.4366  1.3698  1.0085
 1323TIP3    H228165   4.092   0.282   7.918 -0.8947  1.0071  0.9848
 1324TIP3   OH228166   3.890   0.827   7.510  0.1563  0.1223 -0.7977
 1324TIP3    H128167   3.878   0.798   7.419 -0.1298 -0.1362 -0.6809
 1324TIP3    H228168   3.802   0.826   7.546  0.1224  1.2468 -0.8160
 1325TIP3   OH228169   0.571   3.124   8.250 -0.1772  0.2441  0.1140
 1325TIP3    H128170   0.549   3.164   8.166 -0.6526 -0.6614 -0.2065
 1325TIP3    H228171   0.657   3.083   8.234 -0.8436 -1.0251 -0.3355
 1326TIP3   OH228172   4.279   1.323   8.130 -0.1880 -0.8295 -0.1883
 1326TIP3    H128173   4.255   1.244   8.080 -2.3357 -1.2517  1.3636
 1326TIP3    H228174   4.263   1.298   8.221  3.0071  0.1184  0.7269
 1327TIP3   OH228175   4.289   2.975   9.400 -0.0321  0.1248  0.1928
 1327TIP3    H128176   4.303   3.062   9.362  0.0738 -0.2339 -0.6146
 1327TIP3    H228177   4.376   2.936   9.404  0.0381  0.3561  1.3434
 1328TIP3   OH228178   2.231   5.469   6.852 -0.1868 -0.1447  0.4381
 1328TIP3    H128179   2.234   5.413   6.775 -1.3943 -1.8471  1.5479
 1328TIP3    H228180   2.202   5.554   6.820  1.7919 -0.0592 -1.3245
 1329TIP3   OH228181   4.889   1.693   7.648  0.7154 -0.7005 -0.5060
 1329TIP3    H128182   4.960   1.697   7.711  0.5172 -0.9055 -0.2656
 1329TIP3    H228183   4.932   1.688   7.563  0.9878  0.4759 -0.4571
 1330TIP3   OH228184   1.574   4.329   7.844 -0.1927 -0.5075 -0.9021
 1330TIP3    H128185   1.480   4.339   7.858  0.0209 -0.0500  0.2887
 1330TIP3    H228186   1.599   4.406   7.794  0.1312  1.3244  1.8318
 1331TIP3   OH228187   0.300   7.517   7.940 -0.2069 -1.1518 -0.2390
 1331TIP3    H128188   0.382   7.533   7.893 -0.7066 -0.7223 -0.9928
 1331TIP3    H228189   0.277   7.427   7.918 -0.9087 -0.6700 -1.6090
 1332TIP3   OH228190   5.737   6.450   9.076 -0.2298  0.7238  0.1506
 1332TIP3    H128191   5.816   6.483   9.033 -0.6856 -1.6423 -2.7573
 1332TIP3    H228192   5.764   6.367   9.115 -0.8581  0.8562  0.8935
 1333TIP3   OH228193   6.490   3.257   9.012  0.8057  0.4139  0.3185
 1333TIP3    H128194   6.574   3.293   8.982  0.1007  0.4263 -1.7680
 1333TIP3    H228195   6.484   3.284   9.104  2.1419  2.1706 -0.0572
 1334TIP3   OH228196   0.534   7.048   7.416 -0.4213 -0.2875  0.3671
 1334TIP3    H128197   0.451   7.048   7.368 -1.5270 -1.7231  2.1333
 1334TIP3    H228198   0.512   7.086   7.501  0.9188 -0.0180  0.6115
 1335TIP3   OH228199   6.653   6.039   8.246  0.2021 -0.0375  0.6757
 1335TIP3    H128200   6.745   6.041   8.221 -0.1907  1.8785 -0.8802
 1335TIP3    H228201   6.631   5.947   8.255  1.0118 -0.9222 -3.9893
 1336TIP3   OH228202   2.335   3.945   6.731 -0.0564 -0.3967  0.4208
 1336TIP3    H128203   2.339   3.991   6.647  1.1868 -0.0095  0.6596
 1336TIP3    H228204   2.317   3.854   6.708 -1.0830 -0.0612 -0.1593
 1337TIP3   OH228205   1.400   1.450   7.116 -0.2273 -0.1439 -0.1967
 1337TIP3    H128206   1.483   1.432   7.071 -0.3498 -1.9813  0.2545
 1337TIP3    H228207   1.420   1.526   7.172  0.7226  0.3585 -1.1717
 1338TIP3   OH228208   7.597   1.181   8.684 -0.3022  0.1204  0.0957
 1338TIP3    H128209   7.656   1.235   8.632 -1.0378  0.5967 -0.2483
 1338TIP3    H228210   7.626   1.091   8.667  1.7202  0.3959  1.6223
 1339TIP3   OH228211   3.578   7.196   8.981 -0.3864 -0.8243  0.0709
 1339TIP3    H128212   3.617   7.240   8.905 -1.0442  0.3586  0.3936
 1339TIP3    H228213   3.489   7.231   8.986 -0.5338 -1.2993  1.0669
 1340TIP3   OH228214   6.245   0.717   7.003 -0.3241 -0.0819  0.2809
 1340TIP3    H128215   6.264   0.642   7.059 -0.7629  0.4173  1.1254
 1340TIP3    H228216   6.160   0.749   7.034 -0.6945  0.0714 -0.8347
 1341TIP3   OH228217   4.745   3.387   8.176  0.2101  0.0158 -0.0061
 1341TIP3    H128218   4.797   3.378   8.097  0.3070  1.6598 -0.1522
 1341TIP3    H228219   4.809   3.407   8.245 -0.2456  3.9260 -0.5088
 1342TIP3   OH228220   4.353   3.200   9.247  0.3775 -0.2943 -0.3867
 1342TIP3    H128221   4.395   3.272   9.293 -1.4286  0.9882 -0.6298
 1342TIP3    H228222   4.426   3.149   9.212  1.8237 -0.9166  3.1220
 1343TIP3   OH228223   1.896   3.206   7.367  0.2922 -0.0553  0.2613
 1343TIP3    H128224   1.924   3.295   7.389 -0.8833 -0.0238  1.8190
 1343TIP3    H228225   1.966   3.171   7.312  1.2372  1.4809  0.4354
 1344TIP3   OH228226   2.989   7.650   8.083  0.1436 -0.3628  0.4570
 1344TIP3    H128227   2.996   7.722   8.145  1.0011 -0.1997  0.1934
 1344TIP3    H228228   3.005   7.691   7.997  0.1790 -0.7833  0.2582
 1345TIP3   OH228229   1.423   5.006   7.190 -0.2328  0.0935 -0.4109
 1345TIP3    H128230   1.487   4.941   7.161  2.4422  1.0728  2.6541
 1345TIP3    H228231   1.468   5.090   7.179 -1.5137  0.9584  0.6706
 1346TIP3   OH228232   6.990   5.744   7.339 -0.9165 -0.0576 -0.3080
 1346TIP3    H128233   7.081   5.762   7.315 -0.4649  0.5215  1.6580
 1346TIP3    H228234   6.959   5.685   7.270  1.9612 -2.9819  0.5974
 1347TIP3   OH228235   4.387   6.879   7.824 -0.8734 -0.1737 -0.1482
 1347TIP3    H128236   4.411   6.794   7.860  1.5848  1.0388  1.3331
 1347TIP3    H228237   4.392   6.867   7.729 -0.0363 -1.5721  0.0500
 1348TIP3   OH228238   7.433   4.586   8.141 -0.1874 -0.3956  0.0092
 1348TIP3    H128239   7.338   4.587   8.138 -0.2162  1.4586  0.1279
 1348TIP3    H228240   7.460   4.572   8.050 -0.6121  0.8561 -0.3351
 1349TIP3   OH228241   4.620   4.969   8.622  0.3888  0.7048  0.6212
 1349TIP3    H128242   4.578   4.889   8.653  0.5888  0.0425 -0.7351
 1349TIP3    H228243   4.584   4.983   8.534  0.3652  2.1105  0.8245
 1350TIP3   OH228244   2.353   1.898   7.762  0.0336 -0.4864  0.1852
 1350TIP3    H128245   2.318   1.840   7.830 -1.5849 -0.2674 -0.4064
 1350TIP3    H228246   2.279   1.954   7.739  0.3192 -1.0431 -2.2806
 1351TIP3   OH228247   6.356   0.156   7.760  0.2272 -0.4620 -0.3714
 1351TIP3    H128248   6.358   0.089   7.829 -3.1963  0.3509  0.7230
 1351TIP3    H228249   6.401   0.115   7.686  0.9886 -2.7387  1.2162
 1352TIP3   OH228250   1.505   3.926   9.356 -0.2848  0.1154 -0.1395
 1352TIP3    H128251   1.597   3.951   9.351 -0.7752  2.0927  0.2376
 1352TIP3    H228252   1.459   3.993   9.306 -1.3423 -2.1907 -2.4878
 1353TIP3   OH228253   3.298   6.266   8.471  0.5157  0.1046 -0.2377
 1353TIP3    H128254   3.244   6.314   8.408 -2.0109 -0.7627  1.1051
 1353TIP3    H228255   3.249   6.185   8.487  1.7017 -0.2682  1.8455
 1354TIP3   OH228256   0.971   1.615   7.731  0.1823  0.3571  0.2476
 1354TIP3    H128257   0.953   1.523   7.712 -1.2778  0.3405  1.5245
 1354TIP3    H228258   0.886   1.658   7.723  0.7277  1.4826  0.2995
 1355TIP3   OH228259   4.319   1.699   7.674 -0.2464  0.2600  0.1845
 1355TIP3    H128260   4.316   1.654   7.758  0.5222 -0.7575 -0.3090
 1355TIP3    H228261   4.311   1.629   7.609 -1.1044  1.0505 -0.6001
 1356TIP3   OH228262   2.762   1.429   6.862  0.0693 -0.4400  0.2532
 1356TIP3    H128263   2.842   1.480   6.851  1.7753 -2.7857  0.8828
 1356TIP3    H228264   2.707   1.482   6.919 -0.7984  3.1779 -3.5004
 1357TIP3   OH228265   0.576   1.534   8.225  0.7704 -0.2101  0.8914
 1357TIP3    H128266   0.559   1.480   8.303 -0.9649 -0.4174  0.4127
 1357TIP3    H228267   0.638   1.483   8.174  1.6286 -0.2547  1.9469
 1358TIP3   OH228268   5.807   3.794   9.155  0.6794  0.0498  0.3657
 1358TIP3    H128269   5.889   3.745   9.164  0.3706 -0.5492 -0.0010
 1358TIP3    H228270   5.739   3.731   9.178  0.1981 -0.0488 -1.2395
 1359TIP3   OH228271   0.702   1.303   9.428 -0.3112 -0.1302  0.0302
 1359TIP3    H128272   0.697   1.209   9.414 -0.8142  0.0896 -1.4694
 1359TIP3    H228273   0.628   1.322   9.485  0.9530 -0.8789  2.0140
 1360TIP3   OH228274   7.146   7.665   8.066  0.2379 -0.1096 -0.1248
 1360TIP3    H128275   7.219   7.721   8.039 -0.1756  0.2590 -0.5096
 1360TIP3    H228276   7.169   7.578   8.035  1.2357 -0.3129  1.1318
 1361TIP3   OH228277   1.509   6.386   7.633  0.2168  0.1087  0.7094
 1361TIP3    H128278   1.523   6.339   7.715 -0.9980 -0.1427  0.7828
 1361TIP3    H228279   1.518   6.478   7.656 -1.6588  0.1346  1.4769
 1362TIP3   OH228280   0.766   7.608   7.749 -0.3376 -0.3066  0.4685
 1362TIP3    H128281   0.838   7.555   7.715 -0.4642 -0.9866  1.2263
 1362TIP3    H228282   0.808   7.683   7.791 -0.0048 -1.1122  1.6307
 1363TIP3   OH228283   3.808   6.503   7.250  0.6132 -0.5412 -0.2298
 1363TIP3    H128284   3.752   6.476   7.177 -0.7424  2.6142 -0.5078
 1363TIP3    H228285   3.751   6.499   7.327  0.7504  0.2503 -0.0837
 1364TIP3   OH228286   6.341   5.700   8.403 -0.0476  0.0542  0.4861
 1364TIP3    H128287   6.334   5.749   8.321  0.4782 -0.3282  0.2020
 1364TIP3    H228288   6.252   5.697   8.437  0.2092  3.1612  1.6995
 1365TIP3   OH228289   4.355   6.386   8.650  0.1637 -0.1495 -0.2498
 1365TIP3    H128290   4.421   6.353   8.710  0.6335  0.9666 -0.1287
 1365TIP3    H228291   4.400   6.453   8.599 -1.1120  1.3889  0.5500
 1366TIP3   OH228292   1.367   6.416   9.235  0.6791 -0.3763  0.2007
 1366TIP3    H128293   1.445   6.374   9.270  1.2422  0.4020 -0.0834
 1366TIP3    H228294   1.295   6.356   9.257  1.3667 -1.1675  0.3458
 1367TIP3   OH228295   4.042   4.160   7.307  0.1001  0.4187 -0.2175
 1367TIP3    H128296   4.118   4.206   7.272  0.8770 -1.9558 -1.8787
 1367TIP3    H228297   3.996   4.127   7.230 -0.6466 -1.1953  0.8756
 1368TIP3   OH228298   6.960   4.899   8.511 -0.0392  1.0883  0.3719
 1368TIP3    H128299   6.900   4.850   8.567  0.7951 -0.1168  0.2362
 1368TIP3    H228300   6.968   4.847   8.432  1.0022  1.3445  0.2903
 1369TIP3   OH228301   1.470   5.437   7.727 -0.5121 -0.0351  0.0546
 1369TIP3    H128302   1.488   5.486   7.807  0.0126  0.6825 -0.4874
 1369TIP3    H228303   1.375   5.445   7.715 -0.4924  0.4608  0.2225
 1370TIP3   OH228304   1.183   7.485   7.945  0.2372  0.2811  0.0371
 1370TIP3    H128305   1.167   7.405   7.995  2.7724 -0.0792  0.4051
 1370TIP3    H228306   1.128   7.551   7.987 -1.5665 -1.1418 -0.0048
 1371TIP3   OH228307   3.582   2.504   8.472  0.1817 -0.4021 -0.2078
 1371TIP3    H128308   3.592   2.422   8.519 -1.8049 -0.5925 -0.0300
 1371TIP3    H228309   3.520   2.485   8.403 -0.5681  1.0189  0.0336
 1372TIP3   OH228310   0.225   7.048   7.612 -0.1887 -0.1040 -0.9032
 1372TIP3    H128311   0.295   6.984   7.606  1.1652  1.0403  1.1523
 1372TIP3    H228312   0.146   6.997   7.631  1.0888 -1.1946  2.1467
 1373TIP3   OH228313   3.603   5.844   8.916  0.1008 -0.6764 -0.2685
 1373TIP3    H128314   3.674   5.808   8.863  0.2168 -0.8397 -0.0075
 1373TIP3    H228315   3.601   5.937   8.895 -0.5756 -0.9282 -1.3807
 1374TIP3   OH228316   1.546   4.658   7.459 -0.2199  0.0735  0.1253
 1374TIP3    H128317   1.612   4.700   7.404  0.0054 -0.8338 -0.3185
 1374TIP3    H228318   1.528   4.575   7.415  0.1778 -0.8043  1.5638
 1375TIP3   OH228319   7.205   7.404   7.975 -0.3541 -0.0044  0.2822
 1375TIP3    H128320   7.298   7.419   7.989 -0.3537  0.9888 -0.5987
 1375TIP3    H228321   7.178   7.348   8.048  0.6129  0.9349  1.4037
 1376TIP3   OH228322   3.829   5.788   8.735  0.6212 -0.2187  0.4311
 1376TIP3    H128323   3.887   5.717   8.708  1.0742  0.7667 -1.3487
 1376TIP3    H228324   3.783   5.813   8.655  1.0499  1.9793  0.7985
 1377TIP3   OH228325   4.875   6.143   7.686 -0.8590  0.0614  0.0466
 1377TIP3    H128326   4.795   6.110   7.643 -1.4773  3.3393 -1.6315
 1377TIP3    H228327   4.929   6.065   7.698 -2.8863 -1.8076 -1.9281
 1378TIP3   OH228328   1.466   2.253   9.399  0.0548 -0.0384 -0.6050
 1378TIP3    H128329   1.427   2.340   9.390 -0.4007 -0.0491  1.0253
 1378TIP3    H228330   1.391   2.194   9.412  0.4421 -0.4858 -0.3717
 1379TIP3   OH228331   1.018   2.118   9.715 -0.1062 -0.0998  0.2301
 1379TIP3    H128332   0.986   2.103   9.804  1.9589 -3.5096  0.5792
 1379TIP3    H228333   0.952   2.077   9.658 -0.9212  1.1848  0.2224
 1380TIP3   OH228334   6.260   3.779   7.769  0.2492 -0.3833  0.0875
 1380TIP3    H128335   6.312   3.770   7.689  1.5977  0.1658  0.8564
 1380TIP3    H228336   6.313   3.836   7.825 -2.9696  3.6820 -0.5720
 1381TIP3   OH228337   0.051   5.972   9.019 -0.3730  0.2921  0.0321
 1381TIP3    H128338   0.059   5.984   8.925  0.1659  1.0565  0.1737
 1381TIP3    H228339   0.119   5.909   9.041  1.3053  2.0995  0.2901
 1382TIP3   OH228340   3.279   1.970   8.483 -0.7540  0.4174 -0.2132
 1382TIP3    H128341   3.212   1.999   8.545 -0.2731  0.9943  0.0464
 1382TIP3    H228342   3.318   1.893   8.524 -0.4889  0.7529  0.1698
 1383TIP3   OH228343   0.835   4.523   6.838  0.8232 -0.1729  0.1236
 1383TIP3    H128344   0.881   4.503   6.757 -0.1389 -1.4262 -0.1372
 1383TIP3    H228345   0.803   4.438   6.869 -0.4513  0.5361  0.8168
 1384TIP3   OH228346   0.906   5.967   9.392 -0.5793 -0.7970 -0.7570
 1384TIP3    H128347   0.891   6.061   9.377 -1.6641 -0.7097  0.7022
 1384TIP3    H228348   1.001   5.958   9.389 -0.0886  1.0984  2.8250
 1385TIP3   OH228349   0.019   2.918   8.506  0.3560 -0.1745 -0.1798
 1385TIP3    H128350   0.064   2.861   8.568  0.3647 -2.3896 -2.0640
 1385TIP3    H228351   0.087   2.946   8.445  0.5142  2.6531  1.1709
 1386TIP3   OH228352   6.706   7.210   7.299 -0.1826  0.3003  0.1422
 1386TIP3    H128353   6.744   7.298   7.305  0.2645  0.1761 -0.7104
 1386TIP3    H228354   6.766   7.155   7.348 -0.2925  0.4134  0.4075
 1387TIP3   OH228355   3.469   6.042   8.587 -0.3421 -0.1446 -0.3360
 1387TIP3    H128356   3.505   6.012   8.504  1.0483 -1.7067  0.7783
 1387TIP3    H228357   3.394   6.095   8.562  0.9951  0.8085 -2.6463
 1388TIP3   OH228358   3.696   1.706   7.802 -0.2103  0.4478 -0.1186
 1388TIP3    H128359   3.696   1.625   7.751 -1.7022 -0.0373  0.5986
 1388TIP3    H228360   3.620   1.698   7.860  0.1556  1.9576  0.6196
 1389TIP3   OH228361   1.681   2.121   8.608 -0.0042  0.2516 -0.5884
 1389TIP3    H128362   1.678   2.158   8.521  0.2989  0.9465 -0.3054
 1389TIP3    H228363   1.597   2.075   8.617 -1.1482  2.2596 -0.3396
 1390TIP3   OH228364   2.563   0.132   7.008 -0.3494  0.1288 -0.6247
 1390TIP3    H128365   2.513   0.121   7.089  1.4239  0.7659  0.6406
 1390TIP3    H228366   2.512   0.086   6.941 -1.7615 -0.6260  0.8946
 1391TIP3   OH228367   6.216   4.155   8.488  0.0562  0.1404 -0.2296
 1391TIP3    H128368   6.212   4.241   8.446  0.8783 -0.1935 -1.0397
 1391TIP3    H228369   6.127   4.140   8.521  0.0625  1.5637  0.4930
 1392TIP3   OH228370   4.499   3.516   8.165  0.1736 -0.8734  0.1822
 1392TIP3    H128371   4.591   3.500   8.187  0.3103 -0.1880  0.1428
 1392TIP3    H228372   4.499   3.605   8.129 -0.3332 -1.2628 -0.8099
 1393TIP3   OH228373   3.806   0.278   7.571 -0.4806 -0.1262  0.0916
 1393TIP3    H128374   3.749   0.323   7.509 -2.1672 -3.1948 -0.7762
 1393TIP3    H228375   3.761   0.287   7.655 -0.4384  0.3601  0.0670
 1394TIP3   OH228376   0.246   2.224   9.222  0.3588  0.2164 -0.6143
 1394TIP3    H128377   0.263   2.197   9.132 -1.6142  1.7986 -1.5299
 1394TIP3    H228378   0.178   2.164   9.253  0.2769  0.3543 -0.5280
 1395TIP3   OH228379   1.838   0.274   7.294  0.4721 -0.4694 -0.1333
 1395TIP3    H128380   1.875   0.359   7.317 -0.2857 -0.4573  1.1506
 1395TIP3    H228381   1.746   0.293   7.275  0.7134 -0.7385 -1.6692
 1396TIP3   OH228382   2.975   0.134   8.368 -0.4533 -0.0856  0.4084
 1396TIP3    H128383   3.054   0.135   8.422 -0.5450  0.4196  0.5415
 1396TIP3    H228384   2.946   0.225   8.367 -0.8961 -0.2273  0.1553
 1397TIP3   OH228385   1.852   3.015   7.541 -0.1994  0.2526  0.8174
 1397TIP3    H128386   1.820   3.059   7.462  0.9092  1.2238  0.8858
 1397TIP3    H228387   1.946   3.033   7.542  0.2256 -1.7275  1.1254
 1398TIP3   OH228388   0.732   3.354   8.691 -0.1077 -0.2813 -0.0954
 1398TIP3    H128389   0.730   3.363   8.596 -0.2297 -1.1863 -0.1860
 1398TIP3    H228390   0.640   3.361   8.717 -0.3303 -2.0722 -0.2658
 1399TIP3   OH228391   6.129   7.245   8.291  0.1014  0.1038 -0.1580
 1399TIP3    H128392   6.225   7.241   8.295  0.0913 -1.5793 -0.8412
 1399TIP3    H228393   6.103   7.267   8.380  1.0414 -3.0714  1.0536
 1400TIP3   OH228394   7.142   4.102   8.996  0.8513 -0.5283  0.2810
 1400TIP3    H128395   7.216   4.069   9.047 -0.2923 -1.2226  1.5808
 1400TIP3    H228396   7.088   4.148   9.060  1.3507  2.1390 -1.1188
 1401TIP3   OH228397   4.523   0.778   9.136 -0.4906 -0.0639 -0.2715
 1401TIP3    H128398   4.471   0.700   9.156 -0.5463 -0.0482 -0.3553
 1401TIP3    H228399   4.589   0.747   9.073 -0.8146  0.0621 -0.6766
 1402TIP3   OH228400   7.512   7.038   7.883  0.0557  0.5001 -0.5187
 1402TIP3    H128401   7.541   7.128   7.871  0.2728  0.5378  0.2410
 1402TIP3    H228402   7.512   7.025   7.978  0.3926 -0.4185 -0.6327
 1403TIP3   OH228403   3.221   4.713   7.629  0.6856 -0.2400 -0.1010
 1403TIP3    H128404   3.237   4.731   7.536 -0.3962 -1.9751 -0.6625
 1403TIP3    H228405   3.271   4.634   7.648 -0.1188 -0.6340  0.4462
 1404TIP3   OH228406   3.095   2.486   6.916  0.0176  0.1627 -0.4993
 1404TIP3    H128407   3.020   2.515   6.864 -0.1603 -0.6921 -0.7502
 1404TIP3    H228408   3.087   2.390   6.917 -0.1687  0.1708  1.4037
 1405TIP3   OH228409   4.604   2.332   7.448 -0.6169 -0.5772  0.3547
 1405TIP3    H128410   4.689   2.306   7.412 -0.5682  0.6398 -0.4722
 1405TIP3    H228411   4.544   2.261   7.424 -0.4878 -0.0150 -1.7841
 1406TIP3   OH228412   1.514   3.999   9.633  0.5793 -0.5664  0.7451
 1406TIP3    H128413   1.492   3.966   9.546 -0.7344  4.1679 -1.0318
 1406TIP3    H228414   1.430   4.004   9.678  0.8323 -0.2472  1.1826
 1407TIP3   OH228415   1.956   3.072   7.076  0.1102  0.3454  0.2331
 1407TIP3    H128416   2.017   3.008   7.042  0.3031 -0.0090  1.2383
 1407TIP3    H228417   1.877   3.022   7.097 -0.7369  0.8712 -1.5189
 1408TIP3   OH228418   5.016   1.245   9.330 -0.6983  0.2258  0.1107
 1408TIP3    H128419   5.075   1.246   9.255 -1.6299  1.2085 -0.6383
 1408TIP3    H228420   5.063   1.196   9.397  0.4276 -0.1020 -0.8888
 1409TIP3   OH228421   4.484   2.173   8.473  0.3852 -0.4477  0.2737
 1409TIP3    H128422   4.567   2.160   8.519  1.4834  0.6579 -1.2566
 1409TIP3    H228423   4.471   2.267   8.474 -0.4774 -0.5568 -0.1428
 1410TIP3   OH228424   7.281   2.038   8.746  0.2244  0.3038 -0.5515
 1410TIP3    H128425   7.309   2.017   8.657  0.4051  1.3807 -0.7675
 1410TIP3    H228426   7.296   2.132   8.754 -2.3793  0.7901 -0.3467
 1411TIP3   OH228427   6.843   0.800   7.635  0.0580 -0.5813  0.2243
 1411TIP3    H128428   6.762   0.765   7.599  0.9524 -0.9553 -1.5180
 1411TIP3    H228429   6.875   0.862   7.569  0.8637  0.0786  1.1873
 1412TIP3   OH228430   2.605   0.918   9.496 -0.6569  0.0685 -0.2881
 1412TIP3    H128431   2.656   0.995   9.520 -0.7035  0.2926 -0.8750
 1412TIP3    H228432   2.654   0.844   9.532  0.2696  0.2507 -1.1249
 1413TIP3   OH228433   4.228   5.399   9.077  0.0673 -0.1955 -0.0878
 1413TIP3    H128434   4.151   5.451   9.099  0.3057  0.4726 -0.7803
 1413TIP3    H228435   4.299   5.441   9.125 -0.1906 -1.5710  1.5552
 1414TIP3   OH228436   2.404   4.381   9.719  0.0839  0.0418 -0.2179
 1414TIP3    H128437   2.488   4.359   9.679  0.0951  0.2435 -0.3018
 1414TIP3    H228438   2.394   4.316   9.789  0.4051  0.1508 -0.0713
 1415TIP3   OH228439   5.377   3.500   8.223  0.4472 -0.1904 -0.1337
 1415TIP3    H128440   5.404   3.590   8.205  1.0267 -0.3675 -0.1584
 1415TIP3    H228441   5.418   3.449   8.155  0.8580 -0.5906  0.4082
 1416TIP3   OH228442   3.768   5.062   8.487  0.3471  0.0547  0.1832
 1416TIP3    H128443   3.805   4.977   8.464 -1.2149 -0.8506  0.8556
 1416TIP3    H228444   3.674   5.045   8.499 -0.1698  2.0544 -0.5549
 1417TIP3   OH228445   1.118   0.907   7.787  0.1096  0.1886 -0.3826
 1417TIP3    H128446   1.141   0.953   7.706 -2.5303  0.8423 -0.8570
 1417TIP3    H228447   1.029   0.936   7.807 -0.8672 -2.9969  0.5666
 1418TIP3   OH228448   4.592   3.939   8.357 -0.1614 -0.0515 -0.3864
 1418TIP3    H128449   4.585   4.034   8.346 -0.4435  0.1662  1.2931
 1418TIP3    H228450   4.519   3.917   8.416  0.2049 -1.2210 -0.3541
 1419TIP3   OH228451   2.589   7.617   7.417  0.5109  0.3655  0.0313
 1419TIP3    H128452   2.573   7.567   7.496  1.0518  1.0809  0.6041
 1419TIP3    H228453   2.671   7.581   7.382  1.8799  1.9635  1.3989
 1420TIP3   OH228454   0.921   5.424   8.590  0.3566 -0.7540  0.0662
 1420TIP3    H128455   0.879   5.420   8.504  1.6302  2.8648 -0.9019
 1420TIP3    H228456   1.014   5.410   8.572  0.4124 -2.1278  1.2412
 1421TIP3   OH228457   2.639   0.040   9.470  0.8042  0.1296 -0.4227
 1421TIP3    H128458   2.545   0.051   9.458  0.9318  0.9779 -0.7236
 1421TIP3    H228459   2.667   0.121   9.514  1.0304 -1.0777  1.8072
 1422TIP3   OH228460   4.804   2.208   7.854  0.3393  0.0123 -0.0147
 1422TIP3    H128461   4.848   2.132   7.815  1.2255  0.6502 -0.2856
 1422TIP3    H228462   4.727   2.222   7.799  0.0043 -0.8552  0.2115
 1423TIP3   OH228463   1.233   1.002   9.048  0.6394  0.4665  0.3103
 1423TIP3    H128464   1.211   1.085   9.090 -1.4050  1.2434 -2.0343
 1423TIP3    H228465   1.282   1.027   8.970  2.4198 -0.7856  0.9651
 1424TIP3   OH228466   2.341   3.515   7.304 -0.1137  0.7715 -0.0820
 1424TIP3    H128467   2.373   3.590   7.255  1.9472 -0.0878 -0.1582
 1424TIP3    H228468   2.372   3.439   7.255 -0.2884 -0.1176  1.1260
 1425TIP3   OH228469   1.484   3.821   8.810  0.0297 -0.1351 -0.0910
 1425TIP3    H128470   1.411   3.869   8.770  2.8486  2.3766 -2.7212
 1425TIP3    H228471   1.501   3.867   8.892  1.8057  2.7565 -1.9353
 1426TIP3   OH228472   7.196   2.790   8.503  0.0739  0.8614  0.3745
 1426TIP3    H128473   7.289   2.807   8.514  0.4582 -0.1685 -1.0096
 1426TIP3    H228474   7.169   2.846   8.430  0.4493 -1.2541 -1.5239
 1427TIP3   OH228475   4.081   5.679   7.325 -0.1377 -0.1473 -0.1093
 1427TIP3    H128476   4.069   5.589   7.354  0.6440 -0.3201 -0.3058
 1427TIP3    H228477   4.005   5.725   7.359  0.6774 -0.3476  2.1556
 1428TIP3   OH228478   3.045   1.445   7.302  0.1444  0.3419 -0.1122
 1428TIP3    H128479   2.975   1.493   7.258  0.7136  0.6690 -0.6759
 1428TIP3    H228480   3.046   1.480   7.391 -0.5519  0.1741 -0.0330
 1429TIP3   OH228481   0.688   7.148   9.595 -0.3933 -0.2774  0.5256
 1429TIP3    H128482   0.751   7.214   9.567 -2.0944  1.0206 -0.4294
 1429TIP3    H228483   0.694   7.148   9.690  0.0005  0.8936  0.5164
 1430TIP3   OH228484   4.554   6.270   8.822  0.7893  0.2390  0.2167
 1430TIP3    H128485   4.479   6.212   8.807  1.4153 -0.5686  0.1689
 1430TIP3    H228486   4.592   6.240   8.905  1.9582 -0.3388 -0.5094
 1431TIP3   OH228487   2.229   5.942   7.406 -0.1087  0.1606  0.8846
 1431TIP3    H128488   2.199   6.001   7.476  0.5379 -0.4299  1.6803
 1431TIP3    H228489   2.153   5.934   7.348 -1.0483 -0.1826  2.0999
 1432TIP3   OH228490   6.681   0.983   8.137 -0.3928  0.6814  0.2877
 1432TIP3    H128491   6.745   1.044   8.173  1.1300 -1.0631  0.6607
 1432TIP3    H228492   6.729   0.934   8.071 -2.0576  1.0276 -1.2446
 1433TIP3   OH228493   3.197   2.629   8.405  0.3204 -0.2863 -0.3014
 1433TIP3    H128494   3.228   2.539   8.409 -0.4586 -0.5225  2.6776
 1433TIP3    H228495   3.274   2.680   8.380  1.1946 -1.5865 -0.3722
 1434TIP3   OH228496   1.721   0.551   6.870  0.0081  0.1320 -0.5812
 1434TIP3    H128497   1.794   0.581   6.815 -0.2532  0.6461 -0.6542
 1434TIP3    H228498   1.670   0.630   6.887 -0.1159 -0.0924  0.1008
 1435TIP3   OH228499   2.506   0.909   8.169 -0.4744 -0.1470  0.6378
 1435TIP3    H128500   2.485   0.913   8.075  2.1641 -1.2687 -0.0751
 1435TIP3    H228501   2.588   0.957   8.177  1.0519 -2.7538  1.7603
 1436TIP3   OH228502   5.649   1.105   7.258 -0.3026  0.2290  0.0548
 1436TIP3    H128503   5.740   1.077   7.251 -0.4212 -0.2767  0.4451
 1436TIP3    H228504   5.641   1.178   7.196  0.4645  0.5365  0.3017
 1437TIP3   OH228505   2.912   4.802   7.345 -0.6102  0.3397 -0.8069
 1437TIP3    H128506   2.831   4.837   7.309 -1.7440 -0.4336  0.8320
 1437TIP3    H228507   2.958   4.763   7.270 -1.5870  1.0735 -1.8116
 1438TIP3   OH228508   0.222   5.682   9.567  0.0581 -0.6795  0.3821
 1438TIP3    H128509   0.288   5.750   9.581 -0.5868  0.1665 -0.5619
 1438TIP3    H228510   0.143   5.730   9.541 -0.2357 -1.8111 -0.9374
 1439TIP3   OH228511   0.476   4.824   7.389 -0.3414  0.4232  0.2036
 1439TIP3    H128512   0.567   4.851   7.393 -0.0148 -0.7067  1.0899
 1439TIP3    H228513   0.459   4.807   7.297  0.3695  0.5670  0.0430
 1440TIP3   OH228514   7.390   0.478   9.028  0.4479  0.1903 -0.3780
 1440TIP3    H128515   7.442   0.406   9.064 -0.5736  0.5362  2.0161
 1440TIP3    H228516   7.444   0.555   9.041  0.0687  0.3186  0.5103
 1441TIP3   OH228517   1.997   0.398   9.376 -0.6962 -0.3303 -0.1554
 1441TIP3    H128518   2.025   0.471   9.321  0.6769  2.0919  3.4134
 1441TIP3    H228519   1.908   0.421   9.403 -0.2887  0.0650  0.9154
 1442TIP3   OH228520   4.369   4.355   9.339  0.3884 -0.2004 -0.1080
 1442TIP3    H128521   4.294   4.297   9.355 -1.3712  1.7523 -0.8582
 1442TIP3    H228522   4.355   4.389   9.251  1.2163  1.5790  0.4078
 1443TIP3   OH228523   7.619   2.573   7.950 -0.0345 -0.4127 -0.4629
 1443TIP3    H128524   7.675   2.630   7.898  0.3679 -0.6666 -0.3121
 1443TIP3    H228525   7.675   2.542   8.021 -0.6238  0.0664  0.2305
 1444TIP3   OH228526   5.550   2.480   9.093 -0.3917 -0.1546 -0.0527
 1444TIP3    H128527   5.592   2.418   9.152  0.6283  0.8920  0.3674
 1444TIP3    H228528   5.588   2.461   9.007  0.9376  0.7100  0.3037
 1445TIP3   OH228529   7.175   6.671   8.335  0.1000 -0.6495 -0.2160
 1445TIP3    H128530   7.119   6.742   8.368  0.6317 -0.1937 -0.2753
 1445TIP3    H228531   7.160   6.672   8.240 -0.0903 -0.7943 -0.1895
 1446TIP3   OH228532   7.589   5.869   6.831  0.4919  0.2855 -0.0603
 1446TIP3    H128533   7.514   5.928   6.830 -0.3539 -0.5971  2.5041
 1446TIP3    H228534   7.572   5.806   6.761 -0.7320  0.6106 -0.0662
 1447TIP3   OH228535   2.497   3.988   9.043 -0.0949  0.0047  0.4467
 1447TIP3    H128536   2.424   3.938   9.079 -0.4407 -1.5651 -2.1977
 1447TIP3    H228537   2.574   3.955   9.089 -0.4503 -2.3015 -0.4791
 1448TIP3   OH228538   3.259   6.498   7.312  0.4492 -0.1603 -0.2220
 1448TIP3    H128539   3.237   6.423   7.257  1.6404 -0.1659 -0.7198
 1448TIP3    H228540   3.251   6.573   7.254 -1.5199  0.2290  0.4751
 1449TIP3   OH228541   6.301   5.155   8.447  0.3875 -0.0453  0.8146
 1449TIP3    H128542   6.242   5.149   8.522  0.7988  1.5308  1.3041
 1449TIP3    H228543   6.321   5.248   8.439  0.1103 -0.1206 -1.4692
 1450TIP3   OH228544   0.184   4.974   9.397  0.7756  0.3369 -0.2530
 1450TIP3    H128545   0.254   4.917   9.430  0.3180  0.5843  1.1963
 1450TIP3    H228546   0.211   5.063   9.422  0.1262  0.4716 -0.0132
 1451TIP3   OH228547   0.426   6.082   8.414  0.5281  0.0781  0.0925
 1451TIP3    H128548   0.437   6.174   8.389  2.4399 -0.6053 -1.9548
 1451TIP3    H228549   0.450   6.079   8.506  0.5204  1.6150  0.1756
 1452TIP3   OH228550   3.581   6.697   8.559 -0.2315 -0.0627  0.2680
 1452TIP3    H128551   3.643   6.666   8.625 -0.1091  0.9900  0.6667
 1452TIP3    H228552   3.630   6.762   8.509 -0.7306  0.0981 -0.0191
 1453TIP3   OH228553   3.754   0.167   9.403 -0.4339  0.1009 -0.2131
 1453TIP3    H128554   3.674   0.211   9.432 -0.9754 -0.4437 -0.8546
 1453TIP3    H228555   3.811   0.237   9.375 -0.0367  0.6377  1.7636
 1454TIP3   OH228556   2.300   7.381   8.142 -0.2342 -0.5301 -0.2478
 1454TIP3    H128557   2.211   7.406   8.167 -1.4000 -2.7932 -1.7781
 1454TIP3    H228558   2.289   7.330   8.062  2.0114 -4.1764  1.4885
 1455TIP3   OH228559   2.527   2.136   8.207  0.6724  0.1560 -0.4284
 1455TIP3    H128560   2.578   2.143   8.126 -2.2320 -1.2435 -2.5784
 1455TIP3    H228561   2.515   2.042   8.220 -0.6874  0.4125  0.3974
 1456TIP3   OH228562   0.409   7.392   7.713  0.2481 -0.0676  0.6675
 1456TIP3    H128563   0.487   7.353   7.674 -0.1404  0.1796 -0.3718
 1456TIP3    H228564   0.339   7.331   7.693  0.1154 -0.1634  1.3862
 1457TIP3   OH228565   5.310   0.541   7.620  0.2514 -0.4104  0.7378
 1457TIP3    H128566   5.246   0.570   7.555  0.1101  1.6671  1.7199
 1457TIP3    H228567   5.372   0.488   7.570 -0.8087 -0.3624 -0.7240
 1458TIP3   OH228568   6.327   1.126   9.382  0.2706  0.1346  0.2728
 1458TIP3    H128569   6.350   1.098   9.471  0.2394 -0.5393  0.0810
 1458TIP3    H228570   6.345   1.220   9.381 -0.3410  0.2813  1.1826
 1459TIP3   OH228571   5.352   1.264   8.071  0.7786  0.1399 -0.2373
 1459TIP3    H128572   5.333   1.243   7.980 -2.0939 -0.6493  0.4367
 1459TIP3    H228573   5.390   1.185   8.108  1.0710  0.1480 -0.5227
 1460TIP3   OH228574   3.365   0.988   8.328 -0.1238 -0.3733 -0.1236
 1460TIP3    H128575   3.399   1.060   8.380 -1.1209  0.5524 -0.7128
 1460TIP3    H228576   3.409   0.910   8.362  1.0881  0.5267  0.4104
 1461TIP3   OH228577   2.306   0.069   9.424 -0.1497 -0.0608  0.7499
 1461TIP3    H128578   2.340   0.122   9.352 -1.3775  0.9342  0.8770
 1461TIP3    H228579   2.256  -0.000   9.381  2.1659 -1.7537  0.5428
 1462TIP3   OH228580   5.455   4.835   8.887 -0.1824  0.1817  0.2597
 1462TIP3    H128581   5.531   4.874   8.845 -0.2248  1.0692  0.9487
 1462TIP3    H228582   5.391   4.824   8.817  0.3590 -0.0053 -0.2104
 1463TIP3   OH228583   2.981   1.606   6.886  0.3605  0.2661 -0.1514
 1463TIP3    H128584   2.970   1.683   6.829 -0.0377  0.5249  0.2665
 1463TIP3    H228585   3.036   1.638   6.958  0.5473  0.0429 -0.1957
 1464TIP3   OH228586   6.154   6.472   6.649  0.5496 -0.2130 -0.5574
 1464TIP3    H128587   6.073   6.434   6.683  1.6886 -0.6099  1.9588
 1464TIP3    H228588   6.202   6.398   6.611  0.9483 -0.5638  0.5798
 1465TIP3   OH228589   7.072   6.152   8.755 -0.0456 -0.1942  0.5908
 1465TIP3    H128590   7.165   6.169   8.773 -0.1090  0.9012 -0.0274
 1465TIP3    H228591   7.031   6.238   8.758 -0.3490 -0.0651 -3.0610
 1466TIP3   OH228592   4.195   0.020   7.590 -0.2154  0.0727 -0.4985
 1466TIP3    H128593   4.240   0.099   7.622  0.9720 -0.1809 -1.4577
 1466TIP3    H228594   4.109   0.051   7.562 -0.6212  0.6135  1.2033
 1467TIP3   OH228595   5.974   7.128   9.404 -0.0074  0.3354 -0.3842
 1467TIP3    H128596   5.905   7.173   9.453 -2.7408 -1.4366 -2.3317
 1467TIP3    H228597   5.957   7.035   9.418  1.5504 -0.1700 -1.5406
 1468TIP3   OH228598   5.589   3.470   8.471 -0.0035 -0.2742  0.4207
 1468TIP3    H128599   5.530   3.539   8.440  0.7448  0.2329  0.0642
 1468TIP3    H228600   5.595   3.409   8.397  0.1720 -0.1475  0.3279
 1469TIP3   OH228601   0.298   3.697   9.700  0.4340 -0.3633  0.2722
 1469TIP3    H128602   0.217   3.715   9.652 -1.8336 -1.3883  3.4125
 1469TIP3    H228603   0.307   3.771   9.760  3.1529  0.8465 -1.4092
 1470TIP3   OH228604   2.506   1.355   7.852  0.3000 -0.0132 -0.4419
 1470TIP3    H128605   2.429   1.298   7.855  0.5135 -0.3472 -1.0573
 1470TIP3    H228606   2.579   1.297   7.871  0.3154  0.5142  1.2234
 1471TIP3   OH228607   2.070   0.014   8.348  0.4474  0.3987 -0.2255
 1471TIP3    H128608   2.036  -0.058   8.402  1.0903  0.1666 -0.1090
 1471TIP3    H228609   2.015   0.014   8.270  1.5177 -1.3920 -1.0484
 1472TIP3   OH228610   2.184   7.545   8.647  0.2200 -0.4897 -0.2783
 1472TIP3    H128611   2.161   7.564   8.738  2.3379  0.7515  0.0605
 1472TIP3    H228612   2.104   7.511   8.609 -0.9928 -0.1327  1.7985
 1473TIP3   OH228613   5.001   5.092   6.394 -0.4474  0.1256 -0.2925
 1473TIP3    H128614   4.949   5.047   6.328 -0.7156  1.1776 -0.8361
 1473TIP3    H228615   5.037   5.168   6.348  1.3923 -0.4313  0.1300
 1474TIP3   OH228616   0.597   6.306   7.537 -0.7319  0.4231  0.1654
 1474TIP3    H128617   0.528   6.365   7.505 -0.2339  0.6413 -0.5340
 1474TIP3    H228618   0.645   6.281   7.458  1.4571  2.1159  0.8457
 1475TIP3   OH228619   4.083   2.678   8.584  0.2436  0.1156  0.1703
 1475TIP3    H128620   4.140   2.740   8.630  0.4340  0.3736 -0.4065
 1475TIP3    H228621   4.049   2.621   8.653  0.9887  0.1297  0.5567
 1476TIP3   OH228622   7.465   5.927   9.216  0.2383  0.3137  0.2655
 1476TIP3    H128623   7.549   5.889   9.190  0.3624 -0.3684  1.5471
 1476TIP3    H228624   7.444   5.990   9.148  3.1983  2.6091  1.2865
 1477TIP3   OH228625   2.225   1.595   7.803 -0.2394  0.7857  0.1642
 1477TIP3    H128626   2.251   1.638   7.885  0.4909  1.0977 -0.2200
 1477TIP3    H228627   2.133   1.575   7.815  0.3590 -1.2438  1.9753
 1478TIP3   OH228628   3.659   3.351   7.528  0.2330  0.0586  0.1002
 1478TIP3    H128629   3.734   3.382   7.477 -1.2444  0.2661 -2.1020
 1478TIP3    H228630   3.672   3.387   7.615  1.7699  1.6217 -0.7212
 1479TIP3   OH228631   1.566   3.054   7.886 -0.0106  0.1205  0.5933
 1479TIP3    H128632   1.583   2.967   7.922  1.8418 -0.0602 -0.5958
 1479TIP3    H228633   1.653   3.088   7.865 -0.8867  0.8652 -2.1247
 1480TIP3   OH228634   5.268   6.725   8.908  0.2722 -0.4426 -0.2259
 1480TIP3    H128635   5.197   6.698   8.849  0.0267 -0.6598  0.1650
 1480TIP3    H228636   5.284   6.817   8.887 -1.0356 -0.0089  0.5952
 1481TIP3   OH228637   6.256   5.066   8.185  0.3245 -0.0634  0.1879
 1481TIP3    H128638   6.236   5.159   8.175 -4.3332 -0.9295 -1.2919
 1481TIP3    H228639   6.274   5.054   8.278 -0.4815  2.1102  0.6735
 1482TIP3   OH228640   1.008   3.436   8.700 -0.2433 -0.3756  0.1363
 1482TIP3    H128641   0.912   3.438   8.691 -0.5119  1.1963  2.5786
 1482TIP3    H228642   1.037   3.386   8.624 -2.8174  1.1039 -1.9945
 1483TIP3   OH228643   1.171   5.405   7.757  0.3975 -0.0298 -0.1575
 1483TIP3    H128644   1.092   5.438   7.800 -0.7213 -0.9921 -1.3872
 1483TIP3    H228645   1.181   5.316   7.789  1.3102  0.2488  0.3807
 1484TIP3   OH228646   7.639   1.073   9.612  0.1031  0.1225  0.4382
 1484TIP3    H128647   7.709   1.097   9.550 -1.0742  0.3725 -0.8351
 1484TIP3    H228648   7.618   1.155   9.657 -0.0849  0.2752  0.0756
 1485TIP3   OH228649   5.392   4.959   8.478 -0.8384  0.5080  0.4558
 1485TIP3    H128650   5.446   5.038   8.475 -0.5906  0.3309  0.1757
 1485TIP3    H228651   5.453   4.888   8.459 -0.7099  0.0559  2.3793
 1486TIP3   OH228652   7.612   6.426   9.410  0.2621  0.1199 -0.1987
 1486TIP3    H128653   7.545   6.467   9.356 -0.6384 -0.8331  0.1588
 1486TIP3    H228654   7.592   6.332   9.406  0.1291  0.0266  1.8194
 1487TIP3   OH228655   2.451   5.195   8.680 -0.2513 -0.5008  0.1705
 1487TIP3    H128656   2.459   5.102   8.659  0.0208 -0.2922 -0.7086
 1487TIP3    H228657   2.375   5.201   8.738 -1.2180 -1.0798 -1.0059
 1488TIP3   OH228658   5.451   4.180   8.463  0.3887 -0.1402 -0.6612
 1488TIP3    H128659   5.463   4.123   8.539 -1.9191 -0.1986 -0.2723
 1488TIP3    H228660   5.368   4.152   8.424  0.8822  0.7421 -2.4602
 1489TIP3   OH228661   3.005   1.177   9.224 -0.2720 -0.1439  0.1263
 1489TIP3    H128662   2.938   1.242   9.246 -0.6612 -0.1089 -1.0959
 1489TIP3    H228663   2.957   1.109   9.177  0.3139 -0.8126  0.4951
 1490TIP3   OH228664   7.235   5.483   9.174 -0.5024 -0.1573 -0.1500
 1490TIP3    H128665   7.290   5.497   9.097  0.4299 -0.8288  0.3707
 1490TIP3    H228666   7.148   5.466   9.139  0.0169 -1.0075 -1.0936
 1491TIP3   OH228667   1.104   1.137   9.314  0.3010 -0.4938 -0.1896
 1491TIP3    H128668   1.092   1.065   9.376  1.4601 -1.1053 -0.6448
 1491TIP3    H228669   1.043   1.119   9.243 -0.8376  0.0650  0.6110
 1492TIP3   OH228670   1.227   4.062   9.485  0.6007  0.5750  0.0001
 1492TIP3    H128671   1.305   4.098   9.443  0.7246 -0.3302 -0.5729
 1492TIP3    H228672   1.232   3.968   9.468 -0.1627  0.3945  0.7128
 1493TIP3   OH228673   0.761   1.294   8.718  0.0575  0.2495 -0.0724
 1493TIP3    H128674   0.838   1.350   8.732  0.6812 -0.3335 -1.0476
 1493TIP3    H228675   0.771   1.261   8.628  0.1799 -2.1095  0.7306
 1494TIP3   OH228676   3.661   6.454   7.519 -0.1186 -0.4331  0.0119
 1494TIP3    H128677   3.586   6.403   7.489 -0.2254 -1.4717  1.8572
 1494TIP3    H228678   3.648   6.463   7.613  0.7404  1.6927 -0.0147
 1495TIP3   OH228679   5.678   1.223   7.498  0.0950  0.4479 -0.0719
 1495TIP3    H128680   5.670   1.167   7.421 -2.5414  0.7085 -0.0833
 1495TIP3    H228681   5.674   1.162   7.572  0.1481  0.3932 -0.1135
 1496TIP3   OH228682   5.388   0.908   7.608  0.0987 -0.1400 -0.5351
 1496TIP3    H128683   5.362   0.910   7.516 -0.1956  1.8882 -0.4581
 1496TIP3    H228684   5.482   0.927   7.607 -0.3208  2.3709 -0.3774
 1497TIP3   OH228685   1.761   5.412   7.875 -0.0225  0.5108 -0.4437
 1497TIP3    H128686   1.790   5.365   7.796 -0.7843  0.9007 -0.9681
 1497TIP3    H228687   1.819   5.488   7.880  1.5856 -0.7245  0.7196
 1498TIP3   OH228688   7.409   5.485   7.819 -0.1176  0.5767 -0.2004
 1498TIP3    H128689   7.455   5.533   7.888  0.7417 -0.4275 -0.0461
 1498TIP3    H228690   7.400   5.396   7.854  0.3466  0.0484 -1.3643
 1499TIP3   OH228691   3.437   7.252   6.815  0.3512  0.3222 -0.6733
 1499TIP3    H128692   3.342   7.252   6.825  0.3423  0.6556 -0.7226
 1499TIP3    H228693   3.470   7.296   6.894  0.5967 -1.5781  0.3331
 1500TIP3   OH228694   2.655   6.549   7.821 -0.1930  0.1766  0.2177
 1500TIP3    H128695   2.584   6.586   7.768 -0.7747  0.3925  1.1276
 1500TIP3    H228696   2.625   6.460   7.840 -0.2937  0.3157  0.7213
 1501TIP3   OH228697   1.952   1.213   7.579 -0.3536 -0.3505 -0.5148
 1501TIP3    H128698   1.913   1.265   7.508 -0.2192 -1.0591 -1.1239
 1501TIP3    H228699   2.009   1.151   7.534  1.1828  0.4001  0.3399
 1502TIP3   OH228700   6.780   3.415   6.873  0.1026  0.5022 -0.6239
 1502TIP3    H128701   6.712   3.351   6.895  0.4975  0.0676 -0.6547
 1502TIP3    H228702   6.859   3.381   6.915  0.1630  1.3474 -0.0388
 1503TIP3   OH228703   7.633   0.867   8.768 -0.1137  0.5474 -0.2648
 1503TIP3    H128704   7.721   0.883   8.734  0.2406  0.4222  0.5723
 1503TIP3    H228705   7.586   0.829   8.694 -0.0655  2.4909 -1.3670
 1504TIP3   OH228706   1.560   0.109   9.772 -0.0779  0.2469 -0.3482
 1504TIP3    H128707   1.590   0.025   9.739  0.6795  0.1997  0.4221
 1504TIP3    H228708   1.533   0.092   9.862 -0.5930  0.6852 -0.4119
 1505TIP3   OH228709   6.787   2.611   9.021  0.3568  0.0704 -0.2028
 1505TIP3    H128710   6.835   2.536   9.058  1.4897  0.7876 -0.1516
 1505TIP3    H228711   6.720   2.631   9.087  0.9760 -0.0120  0.4739
 1506TIP3   OH228712   7.477   0.478   7.403 -0.3470  0.2221 -0.1547
 1506TIP3    H128713   7.450   0.523   7.482 -0.5345  1.7797 -1.0754
 1506TIP3    H228714   7.444   0.388   7.414 -1.1757  0.6631  1.1099
 1507TIP3   OH228715   2.394   4.980   7.114 -0.4111  0.3560 -0.4324
 1507TIP3    H128716   2.433   4.973   7.026  0.6156 -1.6038  0.1341
 1507TIP3    H228717   2.301   4.992   7.097 -0.2340  0.0010 -1.8041
 1508TIP3   OH228718   5.337   6.890   8.113 -0.0428  0.3248 -0.2857
 1508TIP3    H128719   5.340   6.883   8.209 -0.4770 -0.7850 -0.3481
 1508TIP3    H228720   5.283   6.967   8.097 -0.0606  0.4587  0.3653
 1509TIP3   OH228721   1.686   1.091   7.535 -0.2163 -0.0447 -0.4330
 1509TIP3    H128722   1.769   1.121   7.573 -0.3207 -1.5166  1.0531
 1509TIP3    H228723   1.695   0.996   7.532 -2.3397 -0.3386  0.9523
 1510TIP3   OH228724   7.653   1.375   8.899 -0.0687 -0.0740  0.5542
 1510TIP3    H128725   7.635   1.320   8.823 -0.7741 -0.2009  0.8079
 1510TIP3    H228726   7.598   1.452   8.886  1.2210  0.7871 -0.0121
 1511TIP3   OH228727   5.620   1.169   8.657  0.4373 -0.6131 -0.1681
 1511TIP3    H128728   5.547   1.148   8.716 -1.6626 -1.6740 -2.9448
 1511TIP3    H228729   5.685   1.101   8.674  1.0028  0.4424  2.4802
 1512TIP3   OH228730   4.982   7.244   7.427 -0.0873  0.1281  0.4900
 1512TIP3    H128731   5.067   7.257   7.384 -0.8227  0.6615 -0.8409
 1512TIP3    H228732   4.918   7.273   7.363 -1.2025  3.7348  2.9147
 1513TIP3   OH228733   3.217   0.756   7.879 -0.2408 -0.3200 -0.1656
 1513TIP3    H128734   3.136   0.806   7.874  0.6349  1.2027  0.2597
 1513TIP3    H228735   3.286   0.818   7.857  0.8825 -1.3813  0.2033
 1514TIP3   OH228736   0.470   3.676   7.398 -0.3179 -0.0498  0.5255
 1514TIP3    H128737   0.509   3.589   7.400 -0.4157 -0.0876  0.7513
 1514TIP3    H228738   0.409   3.677   7.472  0.0813  0.3958  0.8549
 1515TIP3   OH228739   2.966   1.782   7.986  0.1908  0.0971  0.3023
 1515TIP3    H128740   3.034   1.715   7.981 -0.2742 -0.6437  2.6103
 1515TIP3    H228741   2.888   1.734   8.014 -0.4569  1.4162  0.8113
 1516TIP3   OH228742   3.168   4.821   9.409  0.5295 -0.1425 -0.5617
 1516TIP3    H128743   3.233   4.870   9.460  0.1679  1.8641 -1.9410
 1516TIP3    H228744   3.210   4.805   9.325 -0.6833  1.1167 -1.4503
 1517TIP3   OH228745   6.968   2.072   8.853  0.2156  0.3699  0.4225
 1517TIP3    H128746   6.912   2.094   8.778  1.0057  0.4892 -0.1492
 1517TIP3    H228747   6.971   1.976   8.854 -0.8141  0.3378  1.0798
 1518TIP3   OH228748   6.788   6.583   7.724 -0.3053  0.1237 -0.9433
 1518TIP3    H128749   6.838   6.545   7.796 -1.4056 -2.3383 -1.3683
 1518TIP3    H228750   6.700   6.595   7.760 -0.4334  0.5144 -1.3807
 1519TIP3   OH228751   6.012   7.460   8.108 -0.1052  0.2375 -0.0280
 1519TIP3    H128752   5.949   7.398   8.145 -1.9967  2.6284  0.9810
 1519TIP3    H228753   6.071   7.481   8.180 -0.5606  0.9085  0.1616
 1520TIP3   OH228754   1.946   5.860   7.716  0.2055  0.0788 -0.3464
 1520TIP3    H128755   2.025   5.911   7.733  1.3261 -1.6634 -0.0774
 1520TIP3    H228756   1.944   5.847   7.622  2.5735 -3.2533 -0.1051
 1521TIP3   OH228757   5.022   1.874   8.792 -0.8191  0.2171 -0.1410
 1521TIP3    H128758   4.959   1.858   8.862 -1.2823 -0.2094 -0.6409
 1521TIP3    H228759   5.032   1.789   8.749 -0.2169  0.3764 -0.3300
 1522TIP3   OH228760   2.673   6.695   9.250  0.3558 -0.0083 -0.0358
 1522TIP3    H128761   2.734   6.745   9.304 -0.1062  0.4756  0.0498
 1522TIP3    H228762   2.656   6.615   9.300  0.3127  0.2113  0.3032
 1523TIP3   OH228763   4.102   2.706   8.320 -0.6372 -0.0499 -0.5765
 1523TIP3    H128764   4.081   2.725   8.411 -0.4273 -2.8272  0.1363
 1523TIP3    H228765   4.018   2.699   8.276 -0.8218 -0.5253 -0.1553
 1524TIP3   OH228766   4.589   5.562   7.117  0.4570 -0.0598 -0.2208
 1524TIP3    H128767   4.554   5.581   7.031  1.6979 -0.5596 -0.8720
 1524TIP3    H228768   4.672   5.517   7.100  1.3940  1.0021  1.2076
 1525TIP3   OH228769   7.150   3.088   7.584  0.0685  0.6190  0.9533
 1525TIP3    H128770   7.153   3.045   7.498 -0.5612 -1.0886  1.7348
 1525TIP3    H228771   7.062   3.070   7.617  0.8537 -0.3430  2.6980
 1526TIP3   OH228772   7.011   6.356   9.179 -0.0894  0.1146  0.2860
 1526TIP3    H128773   7.069   6.340   9.253  0.8788 -0.2663 -0.5214
 1526TIP3    H228774   7.033   6.288   9.116 -0.0804  1.0782 -0.7995
 1527TIP3   OH228775   4.034   7.517   7.316  0.0225  0.0467 -0.6657
 1527TIP3    H128776   4.110   7.488   7.266 -0.1425 -0.0296 -0.8759
 1527TIP3    H228777   4.053   7.608   7.339  0.0619  0.1106 -0.9465
 1528TIP3   OH228778   0.250   2.858   8.672 -0.1010  0.6675  0.0034
 1528TIP3    H128779   0.270   2.771   8.707 -2.5980  0.1193  0.2120
 1528TIP3    H228780   0.252   2.915   8.749 -1.0322  0.2886  0.3299
 1529TIP3   OH228781   7.672   3.182   8.930 -0.2245 -0.4792  0.2014
 1529TIP3    H128782   7.694   3.270   8.961 -1.7446 -0.2558  0.7239
 1529TIP3    H228783   7.641   3.195   8.840 -2.6778 -0.0929  1.0213
 1530TIP3   OH228784   2.714   0.617   7.897 -0.0663 -0.3468  0.2337
 1530TIP3    H128785   2.699   0.671   7.819  0.0016 -0.1316  0.3692
 1530TIP3    H228786   2.630   0.618   7.943 -0.0767 -0.3875  0.2146
 1531TIP3   OH228787   0.464   4.649   8.143 -0.4416  0.1510  0.0950
 1531TIP3    H128788   0.422   4.693   8.217  0.8659  1.6313  0.0071
 1531TIP3    H228789   0.490   4.720   8.085  1.2184 -0.7763 -0.3591
 1532TIP3   OH228790   5.638   6.715   8.700  0.1424  0.0836  0.0556
 1532TIP3    H128791   5.660   6.715   8.793 -0.8763 -0.2120  0.3050
 1532TIP3    H228792   5.578   6.789   8.689 -0.9881 -0.8197 -0.0460
 1533TIP3   OH228793   6.487   6.798   8.202  0.3630 -0.5855 -0.1927
 1533TIP3    H128794   6.488   6.706   8.175 -0.4537 -0.4456 -0.7537
 1533TIP3    H228795   6.415   6.837   8.152  0.7686  0.3870 -0.0525
 1534TIP3   OH228796   4.784   3.094   8.317  0.0690 -0.2909 -0.8983
 1534TIP3    H128797   4.800   3.001   8.335  0.0827 -0.5226 -2.0267
 1534TIP3    H228798   4.813   3.106   8.227 -2.1090  0.2832 -1.5735
 1535TIP3   OH228799   0.280   1.735   8.989 -0.1498  0.1856  1.1642
 1535TIP3    H128800   0.335   1.774   8.921  1.1382 -0.5534  1.7561
 1535TIP3    H228801   0.230   1.809   9.023  0.1537  0.7991  0.3282
 1536TIP3   OH228802   5.019   7.444   6.874 -0.2161  0.2518 -0.1911
 1536TIP3    H128803   5.012   7.367   6.931  1.1239  0.3823  0.1731
 1536TIP3    H228804   5.047   7.514   6.932  1.2634  0.3637 -1.0064
 1537TIP3   OH228805   7.115   4.635   8.057 -0.0982  0.1246 -0.5092
 1537TIP3    H128806   7.106   4.541   8.069 -0.3005 -0.1347 -2.3213
 1537TIP3    H228807   7.105   4.648   7.962  1.5421  1.7834 -0.5220
 1538TIP3   OH228808   7.198   1.376   9.268 -0.3468 -0.3609  0.3071
 1538TIP3    H128809   7.195   1.294   9.217  0.9583 -1.2025  1.5198
 1538TIP3    H228810   7.264   1.429   9.224 -1.7397  0.4111 -0.9432
 1539TIP3   OH228811   1.406   3.370   8.621  0.5519  0.0825  0.1240
 1539TIP3    H128812   1.342   3.436   8.647 -0.0794 -0.5401  0.1749
 1539TIP3    H228813   1.488   3.419   8.610  0.2258  0.7800  0.7079
 1540TIP3   OH228814   6.990   5.413   8.394 -0.1536 -0.1630 -0.0166
 1540TIP3    H128815   7.005   5.325   8.429  0.8548 -0.3381 -0.8192
 1540TIP3    H228816   6.995   5.402   8.299 -1.6625  0.4951 -0.1993
 1541TIP3   OH228817   1.604   1.735   8.825  0.1745 -0.0187  0.2791
 1541TIP3    H128818   1.566   1.771   8.906  0.4007 -1.3257  0.9988
 1541TIP3    H228819   1.550   1.773   8.755 -1.0796 -0.1258  1.1391
 1542TIP3   OH228820   2.656   2.301   8.542 -0.4852 -0.0586 -0.7456
 1542TIP3    H128821   2.636   2.209   8.554 -1.2708  0.2239  0.2780
 1542TIP3    H228822   2.726   2.319   8.605  0.3728 -0.1721 -1.6485
 1543TIP3   OH228823   2.817   0.546   9.475 -0.1649  0.1367 -0.2003
 1543TIP3    H128824   2.858   0.484   9.416 -0.7908 -0.4297 -0.0512
 1543TIP3    H228825   2.888   0.575   9.533  0.2784  0.0976 -0.7203
 1544TIP3   OH228826   6.936   6.870   6.737  0.0924 -0.1401 -0.4291
 1544TIP3    H128827   6.912   6.938   6.674 -1.3035  0.2046  0.4447
 1544TIP3    H228828   6.990   6.916   6.802  0.8647 -0.3246 -0.9295
 1545TIP3   OH228829   1.453   7.290   7.272 -0.5769  0.1545 -0.1959
 1545TIP3    H128830   1.439   7.343   7.351  2.1580 -0.8823  1.1153
 1545TIP3    H228831   1.467   7.355   7.203  1.6516  1.2593  1.1632
 1546TIP3   OH228832   2.796   1.784   8.849  0.3082  0.6020  0.2359
 1546TIP3    H128833   2.843   1.866   8.867  0.3904  1.0033 -1.5953
 1546TIP3    H228834   2.705   1.811   8.840 -0.0474  0.0941  1.9824
 1547TIP3   OH228835   4.210   3.809   7.460 -0.4150 -0.0505 -0.1807
 1547TIP3    H128836   4.155   3.764   7.524 -1.4608  2.6365  0.9943
 1547TIP3    H228837   4.149   3.848   7.398  0.3253  0.8203 -0.3900
 1548TIP3   OH228838   6.250   0.814   7.701 -0.1966  0.3826 -0.1530
 1548TIP3    H128839   6.200   0.889   7.670  0.0412  0.4429 -0.3979
 1548TIP3    H228840   6.185   0.755   7.739 -0.6366 -0.1522 -1.6477
 1549TIP3   OH228841   4.923   2.454   7.948 -0.4052 -0.1366  0.1410
 1549TIP3    H128842   4.885   2.373   7.914 -0.8812 -0.0596  0.4719
 1549TIP3    H228843   4.888   2.523   7.891 -0.8569 -0.0546  0.5071
 1550TIP3   OH228844   3.662   2.472   9.206 -0.1142 -0.0478  0.2143
 1550TIP3    H128845   3.730   2.533   9.233  0.8354 -1.1028  0.2673
 1550TIP3    H228846   3.622   2.443   9.288 -1.2518  1.2269  0.1466
 1551TIP3   OH228847   3.366   5.448   6.604  0.2116 -0.0594  0.6628
 1551TIP3    H128848   3.394   5.504   6.676  1.2883  0.3702 -0.0649
 1551TIP3    H228849   3.284   5.488   6.574  0.8539  1.0488  0.2897
 1552TIP3   OH228850   1.883   3.202   8.168 -0.4496 -0.4251 -0.4671
 1552TIP3    H128851   1.806   3.146   8.177  0.0864 -1.3113 -1.1329
 1552TIP3    H228852   1.931   3.164   8.093  1.8974 -1.4281  1.4083
 1553TIP3   OH228853   5.866   5.833   9.232  0.4563 -0.0194 -0.1959
 1553TIP3    H128854   5.931   5.896   9.262  0.8168  0.0018 -0.9954
 1553TIP3    H228855   5.805   5.885   9.179 -0.6525  0.1018  1.1447
 1554TIP3   OH228856   4.075   0.879   8.830 -0.1905  0.1600  1.0332
 1554TIP3    H128857   3.990   0.921   8.842 -0.1735  0.6633 -0.4032
 1554TIP3    H228858   4.117   0.885   8.915 -1.5374  0.0223  1.7342
 1555TIP3   OH228859   7.178   0.748   7.415 -0.3610  0.5109 -0.7119
 1555TIP3    H128860   7.150   0.834   7.382 -0.4778  0.1030 -1.7043
 1555TIP3    H228861   7.172   0.690   7.339  0.5716 -0.1877 -0.2715
 1556TIP3   OH228862   6.458   4.699   9.455 -0.5974 -0.2960  0.0329
 1556TIP3    H128863   6.522   4.763   9.425 -1.3371  0.1638 -0.5984
 1556TIP3    H228864   6.505   4.646   9.520  0.5654 -0.3031 -0.7977
 1557TIP3   OH228865   0.443   3.038   9.674 -0.0963  0.0053 -0.0646
 1557TIP3    H128866   0.503   3.100   9.715 -0.3943 -0.7290  1.5520
 1557TIP3    H228867   0.402   3.088   9.603 -0.2806  1.6665  1.1441
 1558TIP3   OH228868   6.448   4.271   8.940 -0.6515  0.5298  0.4584
 1558TIP3    H128869   6.482   4.197   8.991 -2.9018  0.1224  1.4659
 1558TIP3    H228870   6.450   4.241   8.849  0.1405 -0.0524  0.6524
 1559TIP3   OH228871   1.832   1.927   8.942  0.0345  0.1825  0.8140
 1559TIP3    H128872   1.743   1.942   8.909  0.3993 -1.0742 -0.8581
 1559TIP3    H228873   1.820   1.869   9.017 -0.4931 -1.6204 -0.5861
 1560TIP3   OH228874   5.317   6.285   7.726 -0.1905  0.0338  0.5053
 1560TIP3    H128875   5.303   6.228   7.651  1.5811  0.0572  0.1053
 1560TIP3    H228876   5.289   6.372   7.697  0.1443 -0.0293 -0.0120
 1561TIP3   OH228877   2.064   2.279   8.940 -0.2196  0.1552  0.3388
 1561TIP3    H128878   2.075   2.191   8.976  0.6652  0.1277  0.0418
 1561TIP3    H228879   2.036   2.265   8.850 -2.3196  0.2228  0.9338
 1562TIP3   OH228880   2.792   4.480   9.251  0.0297 -0.3082 -0.7648
 1562TIP3    H128881   2.767   4.521   9.333 -1.4086 -1.0732 -0.7817
 1562TIP3    H228882   2.832   4.550   9.200 -0.5564  0.5778 -0.0377
 1563TIP3   OH228883   1.297   1.726   7.465 -0.1341 -0.1460 -0.4471
 1563TIP3    H128884   1.369   1.724   7.402  0.5419  1.6157  0.1752
 1563TIP3    H228885   1.261   1.814   7.457 -3.9000 -1.6558 -2.4365
 1564TIP3   OH228886   0.609   3.991   8.400 -0.1852 -0.1735  0.0552
 1564TIP3    H128887   0.632   4.035   8.481  1.6390 -0.1033 -0.4557
 1564TIP3    H228888   0.576   4.060   8.343 -3.2220 -0.4817  1.2563
 1565TIP3   OH228889   1.667   1.434   6.980 -0.1967  0.2282  0.3430
 1565TIP3    H128890   1.665   1.454   6.887  0.1700  0.4435  0.3804
 1565TIP3    H228891   1.659   1.519   7.023 -2.1979  0.0030  0.5304
 1566TIP3   OH228892   2.218   0.567   7.747 -0.3461  0.1217 -0.4974
 1566TIP3    H128893   2.135   0.564   7.700  0.1865 -0.9863 -1.4200
 1566TIP3    H228894   2.232   0.476   7.775  0.9154  0.1533 -0.9983
 1567TIP3   OH228895   6.007   0.388   8.530  0.3384  0.4101 -0.2048
 1567TIP3    H128896   6.067   0.345   8.470  0.8502  1.2737 -0.3208
 1567TIP3    H228897   5.959   0.451   8.476 -1.1426 -0.6999 -0.2500
 1568TIP3   OH228898   4.692   0.795   9.339 -0.1221  0.5005 -0.0375
 1568TIP3    H128899   4.633   0.817   9.267  0.1843 -0.0994 -0.4827
 1568TIP3    H228900   4.750   0.871   9.346 -0.0645  0.5064 -0.5240
 1569TIP3   OH228901   2.650   1.264   7.539 -0.0925 -0.7331 -0.2369
 1569TIP3    H128902   2.611   1.342   7.500  0.1880 -1.5051 -2.1657
 1569TIP3    H228903   2.576   1.219   7.581 -0.9289 -1.0272 -1.9086
 1570TIP3   OH228904   7.404   0.719   8.287 -0.1817 -0.4258 -0.1039
 1570TIP3    H128905   7.407   0.627   8.316 -2.5402 -0.8627 -1.0363
 1570TIP3    H228906   7.352   0.763   8.354  1.3545  0.3963  0.6027
 1571TIP3   OH228907   1.114   3.616   7.324  0.1361  0.3312  0.3803
 1571TIP3    H128908   1.070   3.624   7.239  1.2845 -0.7591 -0.3601
 1571TIP3    H228909   1.092   3.697   7.370 -0.1427  1.1637 -1.1355
 1572TIP3   OH228910   4.705   4.929   7.950 -0.0384  0.2711  0.5343
 1572TIP3    H128911   4.619   4.967   7.931 -0.5243 -0.6644  0.8008
 1572TIP3    H228912   4.687   4.862   8.015  0.6213 -1.1521 -0.7033
 1573TIP3   OH228913   2.853   1.955   9.514 -0.3423  0.0506 -0.5929
 1573TIP3    H128914   2.768   2.001   9.511 -0.0919  0.5443 -0.2773
 1573TIP3    H228915   2.915   2.023   9.542  0.0739 -0.4323 -0.3456
 1574TIP3   OH228916   4.482   1.993   8.248  0.1527 -0.3429 -0.2279
 1574TIP3    H128917   4.554   1.946   8.208  0.9055 -0.5400  1.2903
 1574TIP3    H228918   4.523   2.067   8.293 -0.7561  0.3779 -0.5507
 1575TIP3   OH228919   6.733   3.077   8.007 -0.3301 -0.1945  0.3608
 1575TIP3    H128920   6.807   3.057   8.064  1.4102 -3.3753 -2.6276
 1575TIP3    H228921   6.759   3.157   7.961  0.4982 -0.3633  0.5265
 1576TIP3   OH228922   6.249   3.938   8.685 -0.1631  0.3456 -0.4982
 1576TIP3    H128923   6.216   3.853   8.658  0.3373  0.0876 -0.3030
 1576TIP3    H228924   6.246   3.991   8.605 -3.7341  1.2482  0.0232
 1577TIP3   OH228925   6.172   5.396   7.874 -0.2081 -0.2856  0.3444
 1577TIP3    H128926   6.221   5.350   7.806 -1.2909  0.4136 -0.9614
 1577TIP3    H228927   6.088   5.351   7.879 -0.6739  0.5392  0.1897
 1578TIP3   OH228928   3.965   0.563   8.211  0.0014  0.1963  0.3486
 1578TIP3    H128929   3.941   0.510   8.287  1.1532 -1.6057 -0.4967
 1578TIP3    H228930   3.944   0.508   8.135  0.4308  1.2867 -0.5963
 1579TIP3   OH228931   2.427   4.470   9.267  0.2647 -0.0985 -0.5314
 1579TIP3    H128932   2.513   4.509   9.252  0.8981 -1.2224  0.0067
 1579TIP3    H228933   2.376   4.539   9.310  1.9372 -0.3833  2.1251
 1580TIP3   OH228934   4.971   5.365   7.519 -0.6835  0.4372  0.2518
 1580TIP3    H128935   5.020   5.366   7.437  0.0233  0.6764  0.6631
 1580TIP3    H228936   5.026   5.414   7.580 -0.3786 -1.1411  1.3142
 1581TIP3   OH228937   7.039   6.694   7.040  0.3784  0.2516 -0.3603
 1581TIP3    H128938   6.995   6.744   7.108 -1.7447 -3.2795  1.1781
 1581TIP3    H228939   6.974   6.689   6.969  0.1767 -0.9366 -0.1164
 1582TIP3   OH228940   0.430   2.511   7.633  0.4175 -0.1698  0.4053
 1582TIP3    H128941   0.406   2.561   7.554 -2.4737 -0.5066  0.9429
 1582TIP3    H228942   0.362   2.444   7.640  0.8544 -0.4360  2.9382
 1583TIP3   OH228943   3.204   1.685   8.252  0.0943  0.4461 -0.1501
 1583TIP3    H128944   3.298   1.683   8.234 -0.2164  2.5939 -2.6164
 1583TIP3    H228945   3.178   1.592   8.253  2.1106 -0.1611 -0.0856
 1584TIP3   OH228946   4.136   2.156   8.711  0.1615  0.8745 -0.1340
 1584TIP3    H128947   4.040   2.162   8.712  0.1125  0.8077 -1.6197
 1584TIP3    H228948   4.166   2.246   8.717 -0.0400  0.9974 -0.8208
 1585TIP3   OH228949   7.368   7.336   8.397  0.0738  0.0791 -0.2862
 1585TIP3    H128950   7.356   7.241   8.397  1.9657 -0.2057  0.1673
 1585TIP3    H228951   7.428   7.352   8.470  0.4845  1.5139 -0.9111
 1586TIP3   OH228952   3.726   4.293   7.408 -0.1990  0.1422  0.3407
 1586TIP3    H128953   3.821   4.302   7.410 -0.2086  0.5288 -0.5462
 1586TIP3    H228954   3.710   4.227   7.340 -0.5789  0.3727  0.2016
 1587TIP3   OH228955   1.474   5.828   8.018 -0.2813  0.0016 -0.2491
 1587TIP3    H128956   1.566   5.847   7.998 -0.3733  0.1990 -0.5032
 1587TIP3    H228957   1.468   5.832   8.113  0.2498 -1.3181 -0.1442
 1588TIP3   OH228958   3.566   6.792   7.666 -0.3616  0.5523  0.1948
 1588TIP3    H128959   3.619   6.715   7.687 -1.3684  0.1727  1.4396
 1588TIP3    H228960   3.589   6.855   7.734 -0.8424  0.7063  0.2116
 1589TIP3   OH228961   3.907   3.395   8.485 -0.6415 -0.0914  0.4214
 1589TIP3    H128962   3.992   3.427   8.455 -1.1731  0.3157 -0.7008
 1589TIP3    H228963   3.900   3.307   8.446 -0.3132 -0.5425  1.3469
 1590TIP3   OH228964   5.146   7.558   7.351 -0.5331 -0.7185 -0.1307
 1590TIP3    H128965   5.208   7.485   7.355 -0.4945 -0.6257  2.1684
 1590TIP3    H228966   5.153   7.600   7.436 -2.6928  0.1927 -0.3423
 1591TIP3   OH228967   7.382   0.132   8.221 -0.6749 -0.3290 -0.5056
 1591TIP3    H128968   7.359   0.177   8.140  0.9187 -1.1791 -1.4919
 1591TIP3    H228969   7.330   0.175   8.289  0.1006  2.3682 -1.5071
 1592TIP3   OH228970   2.530   1.208   9.324  0.4965 -0.0484 -0.4670
 1592TIP3    H128971   2.606   1.176   9.372 -1.6548 -1.0958  2.5091
 1592TIP3    H228972   2.502   1.286   9.372 -0.5876  0.0593 -1.2292
 1593TIP3   OH228973   7.040   5.635   8.564 -0.1996 -0.5232 -0.0615
 1593TIP3    H128974   7.042   5.548   8.525  2.0326  0.2201 -1.8177
 1593TIP3    H228975   7.131   5.652   8.590 -0.7535  0.9356  1.0899
 1594TIP3   OH228976   3.838   4.399   8.422 -0.0145 -0.2551  0.7430
 1594TIP3    H128977   3.875   4.435   8.503 -1.7116  0.5512  1.1997
 1594TIP3    H228978   3.809   4.311   8.446 -0.7349  0.0713  1.0941
 1595TIP3   OH228979   5.701   6.251   7.618  0.7425 -0.0209 -0.2870
 1595TIP3    H128980   5.620   6.210   7.650  0.8659 -1.6290 -1.8645
 1595TIP3    H228981   5.704   6.336   7.662 -1.8302  0.1008 -0.1859
 1596TIP3   OH228982   7.457   2.136   9.545 -0.1168  0.2045  0.3183
 1596TIP3    H128983   7.393   2.076   9.584 -0.2322  1.8466  2.8269
 1596TIP3    H228984   7.537   2.120   9.594  0.2437  1.0853  0.0158
 1597TIP3   OH228985   0.813   5.545   8.874 -0.6328 -0.1854 -0.2494
 1597TIP3    H128986   0.907   5.528   8.881 -0.1293  1.7158 -1.4996
 1597TIP3    H228987   0.791   5.591   8.955 -0.0639  0.8516 -0.6477
 1598TIP3   OH228988   3.155   4.905   7.410 -0.5604  0.1616  0.0583
 1598TIP3    H128989   3.191   4.928   7.325  1.3239 -0.0524  0.7498
 1598TIP3    H228990   3.065   4.879   7.392 -0.0051 -0.5158 -1.9487
 1599TIP3   OH228991   6.204   4.864   8.939 -0.3258 -0.2738 -0.0479
 1599TIP3    H128992   6.242   4.783   8.905  2.7387  1.6221 -1.6683
 1599TIP3    H228993   6.154   4.900   8.865  1.8370  1.2226 -0.9008
 1600TIP3   OH228994   0.233   5.861   7.484 -0.3218 -0.4094  0.3476
 1600TIP3    H128995   0.265   5.771   7.483  1.4696  0.1439  1.9683
 1600TIP3    H228996   0.311   5.915   7.497 -1.2309  1.4767 -1.4138
 1601TIP3   OH228997   6.504   0.472   7.918  0.1087  0.2460 -0.1230
 1601TIP3    H128998   6.516   0.527   7.840  2.0636  0.8725  0.5568
 1601TIP3    H228999   6.410   0.456   7.921  0.0050 -0.3821 -2.9804
 1602TIP3   OH229000   4.951   5.657   7.104 -0.7317  0.1271  0.0435
 1602TIP3    H129001   4.945   5.589   7.038  0.1854 -0.1784  0.2645
 1602TIP3    H229002   5.040   5.691   7.096 -0.7983  0.4822  0.7286
 1603TIP3   OH229003   5.485   5.415   8.334  0.3259  0.5303 -0.0961
 1603TIP3    H129004   5.434   5.448   8.408  1.0279 -1.8126  1.5562
 1603TIP3    H229005   5.538   5.490   8.306  0.5681  1.3163  2.2625
 1604TIP3   OH229006   0.326   1.107   8.452  0.2313  0.3677 -0.2401
 1604TIP3    H129007   0.345   1.082   8.362  1.0075 -0.3479  0.1009
 1604TIP3    H229008   0.410   1.097   8.497 -0.0925  0.9538  0.5073
 1605TIP3   OH229009   7.056   7.021   7.580 -0.0287 -0.6367  0.0039
 1605TIP3    H129010   7.021   6.933   7.593 -0.9441 -0.2734  0.0913
 1605TIP3    H229011   7.134   7.024   7.635 -1.0057 -0.8081  1.4829
 1606TIP3   OH229012   0.368   5.147   8.412  0.4594  0.0999  0.0572
 1606TIP3    H129013   0.444   5.160   8.468  0.5448 -0.8669  0.1803
 1606TIP3    H229014   0.319   5.077   8.455  0.5272 -0.6596 -1.0779
 1607TIP3   OH229015   4.236   4.339   7.207 -0.1684 -0.1605  0.3105
 1607TIP3    H129016   4.196   4.408   7.154  0.3923 -0.0728 -0.0080
 1607TIP3    H229017   4.330   4.347   7.190 -0.1861 -1.9805 -0.9576
 1608TIP3   OH229018   7.664   6.373   6.846  0.3705 -0.5646  0.1730
 1608TIP3    H129019   7.696   6.440   6.786 -2.0174  0.5492  0.0507
 1608TIP3    H229020   7.688   6.290   6.804  1.7506  0.1777 -0.5791
 1609TIP3   OH229021   3.385   3.471   8.577 -0.0044  0.3047 -0.2385
 1609TIP3    H129022   3.427   3.386   8.568 -1.8939 -0.7852  0.8243
 1609TIP3    H229023   3.403   3.498   8.667  0.2237  0.8591 -0.4397
 1610TIP3   OH229024   2.124   4.724   9.129  0.1076  0.3298  0.3214
 1610TIP3    H129025   2.180   4.681   9.194 -0.1413  0.7000  0.7814
 1610TIP3    H229026   2.183   4.747   9.058  0.0281 -2.1377 -0.6513
 1611TIP3   OH229027   5.967   5.183   9.203 -0.3586 -0.3248 -0.1721
 1611TIP3    H129028   6.050   5.136   9.205  1.1607  2.1553  2.0516
 1611TIP3    H229029   5.914   5.141   9.270  0.7726  0.6063  1.3937
 1612TIP3   OH229030   3.660   5.305   9.142 -0.5908 -0.1869 -0.0731
 1612TIP3    H129031   3.731   5.311   9.078  0.9032  2.8805  1.6719
 1612TIP3    H229032   3.599   5.374   9.117 -1.1726 -0.4653  0.5265
 1613TIP3   OH229033   1.376   5.946   7.503 -0.3659  0.5809  0.4226
 1613TIP3    H129034   1.388   5.906   7.417  2.7844  0.5773  0.7469
 1613TIP3    H229035   1.465   5.958   7.536 -1.4425  1.7885  3.1467
 1614TIP3   OH229036   7.146   6.025   7.641 -0.1363  0.0224  0.1203
 1614TIP3    H129037   7.167   5.947   7.589  0.8812  0.1550  0.3070
 1614TIP3    H229038   7.120   6.090   7.576  3.1886  0.8760 -0.5594
 1615TIP3   OH229039   4.347   2.606   8.346 -0.2477 -0.4120 -0.1335
 1615TIP3    H129040   4.257   2.636   8.332 -0.3189  0.1357  1.2687
 1615TIP3    H229041   4.402   2.679   8.316 -0.3524  0.1498  0.9886
 1616TIP3   OH229042   4.905   5.049   7.778  0.3187 -0.4167 -0.5338
 1616TIP3    H129043   4.997   5.024   7.779  0.7240  0.9973 -0.1232
 1616TIP3    H229044   4.871   5.022   7.863  0.5722 -0.2144 -0.3672
 1617TIP3   OH229045   4.491   6.787   8.221 -0.3542 -0.0122 -0.1800
 1617TIP3    H129046   4.477   6.735   8.143 -1.3812 -0.6715  0.4230
 1617TIP3    H229047   4.583   6.814   8.216 -0.3038 -0.3698 -1.4007
 1618TIP3   OH229048   0.850   2.289   7.575 -0.1116 -0.3029  0.1573
 1618TIP3    H129049   0.841   2.275   7.670 -0.6170 -0.6691  0.0562
 1618TIP3    H229050   0.793   2.363   7.556  0.9997  0.6334  0.3497
 1619TIP3   OH229051   3.402   7.278   7.484  0.0019 -0.6668 -0.0507
 1619TIP3    H129052   3.480   7.332   7.494 -0.2765 -0.1293 -0.7107
 1619TIP3    H229053   3.435   7.188   7.480  0.8758 -0.3352 -2.8124
 1620TIP3   OH229054   0.970   7.030   8.125  0.2925 -0.1412  0.3033
 1620TIP3    H129055   0.886   7.048   8.082  1.1802 -0.2676 -1.5782
 1620TIP3    H229056   0.948   6.969   8.195 -1.2390  0.0853  0.0621
 1621TIP3   OH229057   0.480   7.573   6.959  0.7437  0.4151 -0.3654
 1621TIP3    H129058   0.552   7.554   7.019  0.2258  1.3318  0.5628
 1621TIP3    H229059   0.416   7.622   7.011 -0.7317 -0.6665 -1.0734
 1622TIP3   OH229060   2.336   3.789   9.184 -0.5849 -0.4402  0.3273
 1622TIP3    H129061   2.369   3.849   9.251  1.0729  0.3367 -1.1323
 1622TIP3    H229062   2.386   3.708   9.196  0.0120 -0.1598 -0.2053
 1623TIP3   OH229063   6.745   3.152   8.394  0.4984  0.2823  0.0017
 1623TIP3    H129064   6.797   3.122   8.469 -0.0286  1.2184  0.7667
 1623TIP3    H229065   6.778   3.240   8.375 -2.1493  1.8157  1.9001
 1624TIP3   OH229066   1.741   0.653   8.046 -0.1493 -0.3451  0.3067
 1624TIP3    H129067   1.732   0.645   8.141 -2.8253 -1.9444  0.0142
 1624TIP3    H229068   1.658   0.620   8.011  0.6783  0.3732 -2.5995
 1625TIP3   OH229069   0.912   3.284   8.040  0.1927 -0.3061 -0.0498
 1625TIP3    H129070   0.924   3.375   8.065  2.2892 -0.7368  0.7332
 1625TIP3    H229071   0.939   3.234   8.117  2.5681 -1.6137 -1.5908
 1626TIP3   OH229072   3.758   3.769   2.366  0.6236  0.8216  0.2423
 1626TIP3    H129073   3.758   3.854   2.410  2.0778  0.3337  1.2670
 1626TIP3    H229074   3.850   3.749   2.350  0.5591 -1.5341  2.0799
 1627TIP3   OH229075   1.918   4.728   8.447 -0.0148 -0.4781 -0.1072
 1627TIP3    H129076   1.824   4.734   8.468  0.3438  1.2193  1.2488
 1627TIP3    H229077   1.962   4.723   8.532  1.1737 -0.3751 -0.6962
 1628TIP3   OH229078   2.771   1.124   9.562  0.6412  0.2679  0.0909
 1628TIP3    H129079   2.798   1.180   9.489 -0.4842 -2.8707 -3.0397
 1628TIP3    H229080   2.852   1.091   9.599  1.3150 -0.7099 -2.0936
 1629TIP3   OH229081   4.046   4.140   9.086 -0.3335  0.1425  0.3637
 1629TIP3    H129082   4.131   4.158   9.126 -0.1551  0.0815  0.0179
 1629TIP3    H229083   4.029   4.048   9.106 -0.6328  0.3333  1.0063
 1630TIP3   OH229084   1.687   6.253   7.459 -0.1584 -0.4915 -0.2136
 1630TIP3    H129085   1.623   6.289   7.521 -0.4057 -0.6539 -0.3713
 1630TIP3    H229086   1.674   6.303   7.379  0.5692  0.1198  0.0438
 1631TIP3   OH229087   1.608   5.037   6.856  0.2420 -0.0635  0.2469
 1631TIP3    H129088   1.532   4.985   6.880  0.4021 -0.2323  0.3893
 1631TIP3    H229089   1.579   5.089   6.781  0.0916 -0.3871  0.0784
 1632TIP3   OH229090   2.633   0.196   9.010 -0.3068 -0.2244  0.1009
 1632TIP3    H129091   2.625   0.289   9.029  3.0819  0.3113 -0.3507
 1632TIP3    H229092   2.602   0.187   8.920 -1.6366  0.2438  0.4986
 1633TIP3   OH229093   2.362   1.165   7.530 -0.2633  0.1344  0.1023
 1633TIP3    H129094   2.375   1.074   7.555 -0.3867  0.2917  0.7556
 1633TIP3    H229095   2.340   1.162   7.437  1.5063 -0.3712 -0.3423
 1634TIP3   OH229096   2.357   0.174   9.176 -0.1061 -0.0526  0.0967
 1634TIP3    H129097   2.415   0.159   9.101 -2.0637  0.2522 -1.5644
 1634TIP3    H229098   2.320   0.261   9.162 -1.3084 -0.4120  0.8513
 1635TIP3   OH229099   4.730   6.921   8.240 -0.6526 -0.6148  0.6597
 1635TIP3    H129100   4.785   6.895   8.167  1.1615  2.2724  0.8132
 1635TIP3    H229101   4.775   6.887   8.318 -0.1458 -0.0153  0.6451
 1636TIP3   OH229102   1.287   0.046   8.414 -0.1307  0.7750 -0.4823
 1636TIP3    H129103   1.267   0.089   8.330 -0.2043 -0.3831 -1.0825
 1636TIP3    H229104   1.204   0.009   8.442  0.4563 -1.3568 -1.3980
 1637TIP3   OH229105   7.076   6.215   7.444 -0.1724  0.3592 -0.0521
 1637TIP3    H129106   7.010   6.219   7.376  0.3763 -0.5161 -0.6495
 1637TIP3    H229107   7.138   6.284   7.421  0.1980 -0.1633 -0.6495
 1638TIP3   OH229108   7.556   6.646   8.918 -0.2046  0.0775  0.1870
 1638TIP3    H129109   7.466   6.628   8.890 -0.4687  0.2707  0.8846
 1638TIP3    H229110   7.550   6.729   8.965  0.7190  1.2355 -1.6202
 1639TIP3   OH229111   0.489   0.328   9.537  0.4793  0.3756  0.4848
 1639TIP3    H129112   0.582   0.318   9.554  0.7209  1.3874 -0.1095
 1639TIP3    H229113   0.469   0.260   9.472  1.6783  2.3720 -2.1955
 1640TIP3   OH229114   4.855   6.928   7.066 -0.6936  0.2445  0.2421
 1640TIP3    H129115   4.767   6.933   7.104 -1.1964 -1.2801 -0.6573
 1640TIP3    H229116   4.907   6.881   7.132 -0.6679  0.7152  0.5609
 1641TIP3   OH229117   5.277   3.850   8.052  0.1019 -0.0418  0.4099
 1641TIP3    H129118   5.235   3.854   8.138 -0.7455 -1.8753  0.1282
 1641TIP3    H229119   5.225   3.786   8.003  0.9531  0.4872 -1.2584
 1642TIP3   OH229120   1.983   7.005   8.102 -0.2303  0.0706 -0.1402
 1642TIP3    H129121   1.949   7.044   8.022  0.0085  0.2361 -0.1628
 1642TIP3    H229122   2.078   7.016   8.096 -0.2519  0.6502  0.4558
 1643TIP3   OH229123   0.970   1.593   8.154 -0.4910  0.4526 -0.1283
 1643TIP3    H129124   1.034   1.552   8.212 -0.5980  0.1990 -0.1866
 1643TIP3    H229125   1.021   1.629   8.082 -0.0810  2.7288  1.1815
 1644TIP3   OH229126   0.632   4.563   9.445  0.7429 -0.1454 -0.2775
 1644TIP3    H129127   0.641   4.638   9.503  0.4331  0.5144 -1.0571
 1644TIP3    H229128   0.721   4.544   9.415  1.0746 -1.2129  1.2587
 1645TIP3   OH229129   1.068   0.371   7.965 -0.3572 -0.4063  0.0754
 1645TIP3    H129130   0.998   0.432   7.941 -0.8117 -0.1927  1.7823
 1645TIP3    H229131   1.063   0.301   7.900 -0.7258  0.6882 -1.1042
 1646TIP3   OH229132   0.781   3.802   8.947  0.3463 -1.0763  0.4999
 1646TIP3    H129133   0.717   3.837   8.885 -1.2883 -2.7087  1.1801
 1646TIP3    H229134   0.826   3.879   8.980  0.0433 -0.0143 -1.3715
 1647TIP3   OH229135   6.829   4.012   8.987 -0.1197 -0.2799 -0.1278
 1647TIP3    H129136   6.879   4.028   9.066  2.2909  0.1615 -1.6221
 1647TIP3    H229137   6.760   3.952   9.013 -0.9675  1.7472  2.7720
 1648TIP3   OH229138   0.500   1.675   7.190  0.3773 -0.1133  0.4124
 1648TIP3    H129139   0.513   1.608   7.123  1.5113 -0.9908  1.4471
 1648TIP3    H229140   0.589   1.693   7.223  0.0432  1.5448  0.5155
 1649TIP3   OH229141   4.166   5.766   6.817 -0.1382 -0.2452 -0.0546
 1649TIP3    H129142   4.096   5.747   6.756 -0.5939  1.3909 -0.0740
 1649TIP3    H229143   4.210   5.681   6.830 -0.6007 -0.8013 -1.8938
 1650TIP3   OH229144   4.769   4.964   6.339 -0.0075  0.5085  0.3084
 1650TIP3    H129145   4.684   5.006   6.329 -2.1033 -3.4275 -0.9079
 1650TIP3    H229146   4.783   4.959   6.433  0.0868  3.1702  0.4976
 1651TIP3   OH229147   1.020   2.947   8.770 -0.1523 -0.6344  0.0634
 1651TIP3    H129148   0.976   3.013   8.825 -1.1613 -0.9923 -0.2996
 1651TIP3    H229149   1.010   2.865   8.818  1.9962 -0.4054  1.0235
 1652TIP3   OH229150   1.813   6.170   9.579  0.0670 -0.0196 -0.3660
 1652TIP3    H129151   1.881   6.113   9.615  1.7032  1.1594 -1.4582
 1652TIP3    H229152   1.859   6.226   9.517 -1.6731  1.7467 -0.1654
 1653TIP3   OH229153   0.817   3.782   8.489 -0.5337  0.5758  0.5193
 1653TIP3    H129154   0.892   3.757   8.435 -2.0991 -0.4746 -1.3275
 1653TIP3    H229155   0.787   3.865   8.450 -1.0323  0.3653  0.4446
 1654TIP3   OH229156   4.851   5.925   7.034 -0.2306 -0.0264  0.1264
 1654TIP3    H129157   4.869   5.831   7.044 -1.6251 -0.6000 -2.0148
 1654TIP3    H229158   4.930   5.960   6.992  1.0391  0.1900  2.5448
 1655TIP3   OH229159   5.808   6.746   7.663 -0.3974  0.2320  0.1791
 1655TIP3    H129160   5.889   6.780   7.626 -0.1912 -1.7973 -1.3731
 1655TIP3    H229161   5.820   6.753   7.758  1.4939  0.1590 -0.0213
 1656TIP3   OH229162   6.775   6.220   9.268  0.2131 -0.2564  0.3230
 1656TIP3    H129163   6.860   6.253   9.239 -0.1844 -0.6550 -1.4566
 1656TIP3    H229164   6.730   6.296   9.303  1.2742 -0.0407  1.2862
 1657TIP3   OH229165   0.198   4.825   7.281 -0.0805  0.1972 -0.1336
 1657TIP3    H129166   0.196   4.861   7.370 -2.2532 -0.2113  0.0448
 1657TIP3    H229167   0.133   4.755   7.283 -0.6274  0.6011 -2.2407
 1658TIP3   OH229168   5.295   0.031   8.491 -0.3575  0.2942  0.0446
 1658TIP3    H129169   5.317   0.118   8.459  0.8580  0.6052  1.6093
 1658TIP3    H229170   5.254  -0.012   8.416  3.6214  0.4418 -2.5373
 1659TIP3   OH229171   4.955   0.067   8.531 -0.2401 -0.1973  0.5005
 1659TIP3    H129172   4.935   0.119   8.452  2.3129 -0.3967 -0.3544
 1659TIP3    H229173   5.002   0.127   8.588 -0.7537 -0.4861  1.2384
 1660TIP3   OH229174   1.373   5.002   7.463  0.2671  0.2553  0.2704
 1660TIP3    H129175   1.406   4.992   7.374  0.9111  1.3790  0.3649
 1660TIP3    H229176   1.382   5.095   7.482 -1.9873  0.4478  0.6845
 1661TIP3   OH229177   5.056   1.628   9.037 -0.3158 -0.1513 -0.7176
 1661TIP3    H129178   4.970   1.657   9.006 -0.7670 -0.1305  0.5149
 1661TIP3    H229179   5.100   1.709   9.064 -0.9556 -0.3808  1.1795
 1662TIP3   OH229180   1.481   4.482   8.679  0.3038  0.8424 -0.1687
 1662TIP3    H129181   1.394   4.499   8.714  0.0761  1.1352 -0.8510
 1662TIP3    H229182   1.539   4.540   8.728  0.0223  1.0966 -0.1386
 1663TIP3   OH229183   2.502   1.383   9.551 -0.7734  0.0836  0.0378
 1663TIP3    H129184   2.477   1.471   9.579  1.3798  0.7167  0.1420
 1663TIP3    H229185   2.503   1.332   9.632  0.6729  0.7016  0.4543
 1664TIP3   OH229186   4.550   4.710   7.527  0.2787  0.1677 -0.7961
 1664TIP3    H129187   4.477   4.698   7.587 -0.4419  1.4104 -1.3652
 1664TIP3    H229188   4.534   4.646   7.457  0.2464 -0.1980 -0.4547
 1665TIP3   OH229189   5.369   6.018   7.860  0.7108 -0.0777 -0.0559
 1665TIP3    H129190   5.379   5.966   7.780 -0.5122  0.2942 -0.4834
 1665TIP3    H229191   5.336   6.103   7.828  1.5761  0.5745  0.7250
 1666TIP3   OH229192   4.302   4.608   7.630  0.2879 -0.3336  0.2561
 1666TIP3    H129193   4.248   4.687   7.641  1.4540  0.4919  0.2790
 1666TIP3    H229194   4.255   4.555   7.566 -1.2060 -0.2615  1.2566
 1667TIP3   OH229195   2.101   3.311   9.553 -0.6703  0.6333  0.0872
 1667TIP3    H129196   2.040   3.253   9.598  0.0471  0.1348  0.4384
 1667TIP3    H229197   2.054   3.339   9.474 -1.6924  1.0116  0.8166
 1668TIP3   OH229198   5.624   4.556   7.982  0.6153 -0.9139 -0.3142
 1668TIP3    H129199   5.551   4.618   7.975  0.6667 -0.3971  2.5437
 1668TIP3    H229200   5.624   4.510   7.898 -2.6052 -0.5282 -0.6677
 1669TIP3   OH229201   2.776   1.159   8.637  0.0287  0.2638  0.6375
 1669TIP3    H129202   2.836   1.233   8.632  0.8510 -0.4304 -0.0335
 1669TIP3    H229203   2.734   1.169   8.722 -1.2362  2.5113 -0.1492
 1670TIP3   OH229204   6.672   1.811   9.240  0.2982 -0.1444  0.6093
 1670TIP3    H129205   6.688   1.806   9.146 -0.9547  0.6203  0.3242
 1670TIP3    H229206   6.608   1.882   9.250  0.9990  0.3134  2.1208
 1671TIP3   OH229207   4.595   1.360   9.377 -0.5755  0.4520  0.1159
 1671TIP3    H129208   4.523   1.393   9.430 -0.3936 -0.4579  0.9589
 1671TIP3    H229209   4.654   1.435   9.367 -1.2384  0.9723  0.1150
 1672TIP3   OH229210   5.185   3.990   9.186 -0.5093 -0.1377 -0.3194
 1672TIP3    H129211   5.190   4.080   9.216  0.8207 -0.9559  2.1944
 1672TIP3    H229212   5.100   3.983   9.143 -0.5247  2.3467 -0.8221
 1673TIP3   OH229213   0.297   2.167   8.962  0.7213 -0.6141  0.2038
 1673TIP3    H129214   0.237   2.193   8.893  0.6359 -0.0534  0.4796
 1673TIP3    H229215   0.319   2.075   8.943  1.2030 -0.2820 -0.9183
 1674TIP3   OH229216   2.439   6.226   8.371 -0.4768 -0.2255  0.2076
 1674TIP3    H129217   2.382   6.194   8.441 -1.6793  0.7852 -0.2719
 1674TIP3    H229218   2.457   6.149   8.317 -0.2852 -0.8213  1.0960
 1675TIP3   OH229219   5.492   6.018   7.557  0.1090  0.1027  0.4780
 1675TIP3    H129220   5.397   6.017   7.549  0.2265 -1.0715 -1.1112
 1675TIP3    H229221   5.523   6.048   7.471  1.2036 -0.7981  0.5449
 1676TIP3   OH229222   3.582   4.331   6.808 -0.0102  0.0706 -0.2855
 1676TIP3    H129223   3.658   4.389   6.801  0.5010 -0.3755  1.2503
 1676TIP3    H229224   3.617   4.249   6.843 -1.1956 -0.1641  0.3895
 1677TIP3   OH229225   2.950   4.993   9.281 -0.3547 -0.2896 -0.1121
 1677TIP3    H129226   3.032   4.986   9.331  0.9404  0.7518 -1.9789
 1677TIP3    H229227   2.969   4.949   9.198 -1.2503  1.0601 -1.0707
 1678TIP3   OH229228   1.080   0.123   7.519  0.2802 -0.1341 -0.2495
 1678TIP3    H129229   1.124   0.044   7.487  1.3846  0.3573  0.0167
 1678TIP3    H229230   1.146   0.168   7.572 -0.8749  0.0955  1.0664
 1679TIP3   OH229231   3.980   2.374   8.885 -0.0661  0.4506 -0.1106
 1679TIP3    H129232   3.938   2.391   8.801 -0.2884  0.7649  0.0613
 1679TIP3    H229233   3.989   2.460   8.925 -1.8896  0.1389  1.1080
 1680TIP3   OH229234   1.587   5.908   8.760  0.7602 -0.1706  0.4013
 1680TIP3    H129235   1.598   5.993   8.717 -0.8231  0.2901  0.8422
 1680TIP3    H229236   1.631   5.919   8.845  2.0503 -0.3820 -0.2200
 1681TIP3   OH229237   1.018   1.223   8.185  0.3846  0.2125 -0.4895
 1681TIP3    H129238   1.057   1.136   8.196  0.6529  0.5458  1.4717
 1681TIP3    H229239   1.076   1.268   8.124  0.0060 -1.0955 -1.8843
 1682TIP3   OH229240   3.272   3.753   7.625 -0.5507  0.5029  0.4200
 1682TIP3    H129241   3.300   3.773   7.715  0.2077  0.2022  0.2583
 1682TIP3    H229242   3.335   3.688   7.594 -0.0824  1.4777 -0.7494
 1683TIP3   OH229243   4.741   4.887   8.249 -0.5376 -0.3233  0.2573
 1683TIP3    H129244   4.651   4.893   8.281 -0.3045  1.2957  0.7058
 1683TIP3    H229245   4.775   4.976   8.256  0.1920 -0.2733 -2.6048
 1684TIP3   OH229246   3.573   1.122   8.064 -0.5638 -0.5776  0.1699
 1684TIP3    H129247   3.645   1.109   8.002  1.2028  0.4997  1.8909
 1684TIP3    H229248   3.508   1.172   8.015 -0.2315 -1.6612 -1.4621
 1685TIP3   OH229249   5.847   0.557   7.101  0.0572 -0.2851 -0.0708
 1685TIP3    H129250   5.906   0.482   7.104 -1.0104 -1.1731 -0.5984
 1685TIP3    H229251   5.861   0.602   7.184  0.9566 -0.8666  0.1092
 1686TIP3   OH229252   2.856   5.100   6.451 -0.2453 -0.6931 -0.4509
 1686TIP3    H129253   2.771   5.101   6.408 -0.3146 -0.8701 -0.3184
 1686TIP3    H229254   2.888   5.190   6.441 -0.7045 -0.4699  0.0056
 1687TIP3   OH229255   5.766   2.433   7.404 -0.4629 -0.1952 -0.4596
 1687TIP3    H129256   5.756   2.514   7.355 -1.3090  0.1741  0.3009
 1687TIP3    H229257   5.718   2.367   7.354  1.6729 -0.6732 -2.0189
 1688TIP3   OH229258   3.513   4.788   7.791  0.2218  0.1516 -0.0769
 1688TIP3    H129259   3.541   4.844   7.719 -1.6333  0.6381 -0.4554
 1688TIP3    H229260   3.573   4.713   7.787  0.7094  0.5768 -1.5600
 1689TIP3   OH229261   3.622   3.470   8.324  0.5315  0.0970  0.1286
 1689TIP3    H129262   3.715   3.480   8.343  0.3805  1.5346  0.2332
 1689TIP3    H229263   3.583   3.553   8.352 -0.4887  0.2507 -1.5879
 1690TIP3   OH229264   3.656   7.557   7.525 -0.8935  0.4265  0.2464
 1690TIP3    H129265   3.665   7.619   7.453 -1.1083 -0.8937 -0.9363
 1690TIP3    H229266   3.697   7.602   7.599 -0.0985  1.5590 -0.8357
 1691TIP3   OH229267   1.950   0.855   7.390 -0.1862  0.6327 -0.3326
 1691TIP3    H129268   1.864   0.845   7.432 -0.4377  0.0532 -0.9713
 1691TIP3    H229269   1.962   0.949   7.384 -1.2121  0.7328 -1.0972
 1692TIP3   OH229270   3.271   1.540   7.840 -0.4458 -0.7161 -0.6476
 1692TIP3    H129271   3.218   1.612   7.807 -0.4344 -0.4317 -0.0485
 1692TIP3    H229272   3.211   1.466   7.846 -0.3246 -0.9326 -1.8392
 1693TIP3   OH229273   6.323   6.655   7.412  0.4385 -0.1176  0.4083
 1693TIP3    H129274   6.334   6.693   7.324 -0.3580  0.2350  0.4569
 1693TIP3    H229275   6.300   6.729   7.467 -1.8054 -0.7248  0.3767
 1694TIP3   OH229276   0.644   2.641   8.055  0.2551 -0.0762  0.4141
 1694TIP3    H129277   0.705   2.606   8.121  0.1286 -1.9854 -0.4094
 1694TIP3    H229278   0.661   2.589   7.977 -2.9096 -1.2190  0.3577
 1695TIP3   OH229279   0.375   2.589   9.426  0.3013 -0.2294  0.2253
 1695TIP3    H129280   0.356   2.665   9.480  0.6046  0.8696 -1.1751
 1695TIP3    H229281   0.290   2.563   9.390 -0.0254 -1.4093  1.7244
 1696TIP3   OH229282   5.422   4.228   7.681  0.4617 -0.4792 -0.2821
 1696TIP3    H129283   5.454   4.195   7.597  2.0507  1.7708 -0.6473
 1696TIP3    H229284   5.447   4.161   7.744  0.8057 -1.3978 -1.3550
 1697TIP3   OH229285   0.422   5.872   9.581 -0.6767 -0.3907 -0.1293
 1697TIP3    H129286   0.484   5.869   9.654 -1.3100 -0.7180  0.4118
 1697TIP3    H229287   0.476   5.861   9.503 -0.0784 -0.9420  0.3456
 1698TIP3   OH229288   3.415   7.360   6.492 -0.1443  0.1614  0.1807
 1698TIP3    H129289   3.376   7.430   6.440 -0.7099  0.9527  1.6076
 1698TIP3    H229290   3.457   7.406   6.565  2.9048 -0.6883 -0.8970
 1699TIP3   OH229291   6.911   4.693   8.937 -0.2578  0.5739  0.3882
 1699TIP3    H129292   6.907   4.782   8.901 -0.5216  0.6548  0.6123
 1699TIP3    H229293   6.952   4.703   9.022 -1.2655  0.6397  0.8825
 1700TIP3   OH229294   7.440   0.177   7.669 -0.4442  0.0583 -0.2745
 1700TIP3    H129295   7.522   0.221   7.692 -0.9061  0.4412  0.7104
 1700TIP3    H229296   7.424   0.201   7.578  1.0228 -0.8167 -0.7958
 1701TIP3   OH229297   0.943   4.925   8.261 -0.2515 -0.2558 -1.0230
 1701TIP3    H129298   0.849   4.906   8.260 -0.3712  0.3154 -1.2324
 1701TIP3    H229299   0.972   4.903   8.172 -0.6740  1.8198 -1.7308
 1702TIP3   OH229300   0.002   3.157   8.625  0.1860 -0.1836  0.5827
 1702TIP3    H129301  -0.025   3.069   8.600  0.6542 -0.3361  0.5942
 1702TIP3    H229302  -0.047   3.215   8.567  1.2944 -0.5257 -0.7519
 1703TIP3   OH229303   4.851   1.344   8.933  0.6391 -0.0266 -0.2497
 1703TIP3    H129304   4.883   1.302   9.013  0.9748  0.1794 -0.2764
 1703TIP3    H229305   4.778   1.399   8.963  0.6366 -0.1015 -0.1168
 1704TIP3   OH229306   2.376   0.565   7.358  0.0868  0.2399  0.2629
 1704TIP3    H129307   2.294   0.615   7.353  0.2293  0.7288  2.0613
 1704TIP3    H229308   2.354   0.489   7.412  0.2256 -0.9608 -1.3044
 1705TIP3   OH229309   4.068   0.561   7.600 -0.4748 -0.1720 -0.3277
 1705TIP3    H129310   4.012   0.551   7.523 -1.4697  0.4720  0.2852
 1705TIP3    H229311   4.150   0.520   7.575 -1.7253 -2.6464 -0.7029
 1706TIP3   OH229312   3.972   5.034   9.558 -0.0790  0.5301  0.0628
 1706TIP3    H129313   4.022   5.015   9.637 -0.6925 -0.9909  0.1196
 1706TIP3    H229314   3.986   4.959   9.501 -1.9568  0.2280 -0.0729
 1707TIP3   OH229315   2.777   4.613   8.855  0.5395  0.0433 -0.3335
 1707TIP3    H129316   2.757   4.634   8.763 -0.5654  1.2666  0.1435
 1707TIP3    H229317   2.840   4.542   8.850  0.1505 -0.2391 -2.0449
 1708TIP3   OH229318   0.218   3.031   8.880  0.3939  0.7124 -0.2705
 1708TIP3    H129319   0.145   3.049   8.940  0.1642  0.4578 -0.4680
 1708TIP3    H229320   0.230   3.112   8.831  0.1252  0.7006 -0.3582
 1709TIP3   OH229321   2.619   3.383   8.339  0.0306 -0.1839 -0.1549
 1709TIP3    H129322   2.637   3.303   8.388  0.2044 -0.1546 -0.1705
 1709TIP3    H229323   2.640   3.360   8.248 -0.7086 -0.3734 -0.2840
 1710TIP3   OH229324   6.430   5.531   8.720 -0.0383  0.3105 -0.1970
 1710TIP3    H129325   6.412   5.520   8.627  1.7659  0.9932 -0.6658
 1710TIP3    H229326   6.485   5.456   8.743 -0.0861  0.3921  0.1880
 1711TIP3   OH229327   2.603   5.180   7.920  0.8014 -0.0051 -0.5195
 1711TIP3    H129328   2.602   5.117   7.847 -2.3998 -2.0383  1.0507
 1711TIP3    H229329   2.635   5.129   7.995 -0.8190  0.4761  0.5516
 1712TIP3   OH229330   3.298   0.500   7.492 -0.0623 -0.5486 -0.0569
 1712TIP3    H129331   3.307   0.585   7.536 -1.0356 -1.8592  2.9445
 1712TIP3    H229332   3.356   0.506   7.417 -0.6825  3.0443 -0.4660
 1713TIP3   OH229333   7.661   3.940   8.666 -0.4804  0.5679  0.2118
 1713TIP3    H129334   7.690   4.031   8.660 -0.6354  0.5299 -1.4230
 1713TIP3    H229335   7.600   3.928   8.594 -1.4096 -0.5202  1.1253
 1714TIP3   OH229336   4.107   4.592   9.289 -0.1182 -0.0017  0.2811
 1714TIP3    H129337   4.038   4.559   9.232 -0.7764  2.7530 -0.6659
 1714TIP3    H229338   4.176   4.620   9.229 -0.3275  1.8519  0.8517
 1715TIP3   OH229339   1.389   3.906   6.721 -0.4037 -0.1647 -0.5110
 1715TIP3    H129340   1.342   3.934   6.799 -1.1608 -0.6069 -0.7959
 1715TIP3    H229341   1.453   3.843   6.753  0.1105  0.5518 -0.1013
 1716TIP3   OH229342   0.643   0.836   8.409 -0.3636 -0.3352 -0.5644
 1716TIP3    H129343   0.574   0.891   8.448 -1.3789 -0.3019 -2.3397
 1716TIP3    H229344   0.721   0.856   8.462 -0.9114  2.1203 -0.5549
 1717TIP3   OH229345   5.547   2.008   8.762 -0.0701  0.2259 -0.4352
 1717TIP3    H129346   5.453   2.003   8.780 -0.3493  1.1535 -1.5402
 1717TIP3    H229347   5.564   2.101   8.745  0.7675 -0.1116 -1.6016
 1718TIP3   OH229348   4.385   0.218   9.300 -0.2387 -0.2805  0.1784
 1718TIP3    H129349   4.303   0.246   9.342 -0.1119  0.0470  0.2107
 1718TIP3    H229350   4.359   0.148   9.240 -0.4529 -0.5909  0.6372
 1719TIP3   OH229351   0.622   3.244   6.724  0.0335  0.5870 -0.6013
 1719TIP3    H129352   0.707   3.282   6.701  0.4883 -0.3165 -0.4242
 1719TIP3    H229353   0.589   3.207   6.642  0.7556 -0.8756 -0.2601
 1720TIP3   OH229354   4.925   5.342   8.431 -0.2700 -0.5312 -0.4588
 1720TIP3    H129355   4.983   5.294   8.489 -0.6505  0.1271  0.4802
 1720TIP3    H229356   4.976   5.418   8.404 -0.4119 -0.3702 -0.2733
 1721TIP3   OH229357   1.037   4.998   8.937  0.0902  0.9629 -0.4232
 1721TIP3    H129358   1.085   5.013   8.856  0.6016 -0.6674 -0.4529
 1721TIP3    H229359   0.981   4.923   8.918 -0.1170  0.8485  0.5885
 1722TIP3   OH229360   3.577   6.916   7.899  0.6935 -0.3342 -0.5012
 1722TIP3    H129361   3.619   7.001   7.887  0.2410 -0.2695 -1.7391
 1722TIP3    H229362   3.540   6.920   7.987  4.0640 -0.7760  1.1159
 1723TIP3   OH229363   2.711   4.506   8.436 -0.0519  0.1147  0.3780
 1723TIP3    H129364   2.741   4.584   8.483 -0.0958 -0.6087  1.6490
 1723TIP3    H229365   2.689   4.443   8.505 -1.3446 -0.5480 -0.5914
 1724TIP3   OH229366   1.610   4.966   7.990 -0.4754  0.1620  0.1761
 1724TIP3    H129367   1.673   4.954   8.061 -0.1014  0.6895 -0.0580
 1724TIP3    H229368   1.635   5.049   7.950 -0.9471  0.0778 -0.3043
 1725TIP3   OH229369   3.548   5.821   8.106  0.2076  0.1155 -0.5144
 1725TIP3    H129370   3.466   5.800   8.060  0.2113  0.4501 -0.6731
 1725TIP3    H229371   3.587   5.891   8.054  0.7698 -0.2856 -0.6379
 1726TIP3   OH229372   5.921   1.945   9.099 -0.3713 -0.0977  0.1031
 1726TIP3    H129373   5.860   2.005   9.057  0.8335  1.7474  0.8732
 1726TIP3    H229374   5.980   2.001   9.149  0.5150 -1.9712  1.2815
 1727TIP3   OH229375   2.857   2.049   7.247 -0.0102 -0.2293  0.1415
 1727TIP3    H129376   2.766   2.022   7.240 -0.4846  1.2265  0.3168
 1727TIP3    H229377   2.889   2.004   7.325 -0.5909 -0.7322  0.0954
 1728TIP3   OH229378   4.471   1.555   8.440 -0.1665 -0.3917 -0.3762
 1728TIP3    H129379   4.445   1.600   8.520 -1.0380 -0.0383 -0.8457
 1728TIP3    H229380   4.393   1.506   8.414  0.7875 -2.2685  0.1650
 1729TIP3   OH229381   7.501   1.473   6.934 -0.1657  0.3550  0.7106
 1729TIP3    H129382   7.576   1.506   6.984 -0.7438  0.9442  1.1944
 1729TIP3    H229383   7.528   1.384   6.909 -0.2628 -0.3725  2.9737
 1730TIP3   OH229384   1.363   6.405   7.084 -0.4123 -0.0848 -0.5404
 1730TIP3    H129385   1.323   6.433   7.166 -0.3071 -1.2652 -0.0609
 1730TIP3    H229386   1.441   6.357   7.111  0.4280  0.7689 -1.4007
 1731TIP3   OH229387   1.525   5.634   8.686  0.2029  0.2054  0.0575
 1731TIP3    H129388   1.527   5.725   8.715  2.0762  0.5162 -0.9284
 1731TIP3    H229389   1.462   5.633   8.613 -1.1831  0.2981  1.2087
 1732TIP3   OH229390   5.829   4.728   8.238 -0.1790 -0.9616 -0.3605
 1732TIP3    H129391   5.818   4.634   8.227  1.2364 -0.9904 -2.0965
 1732TIP3    H229392   5.762   4.767   8.182 -2.4418 -0.8014  2.2399
 1733TIP3   OH229393   3.871   3.627   8.818 -0.2469  0.1787  0.5184
 1733TIP3    H129394   3.861   3.713   8.859  1.3016  1.2128 -1.1759
 1733TIP3    H229395   3.862   3.643   8.724  1.3548 -1.2776  0.0702
 1734TIP3   OH229396   5.226   7.449   9.060  0.2025  0.3389 -0.5765
 1734TIP3    H129397   5.193   7.360   9.074  1.4228  0.0719  0.8278
 1734TIP3    H229398   5.314   7.436   9.024  0.7125  0.9427  0.4067
 1735TIP3   OH229399   0.220   4.256   8.907  0.2599  0.1053  1.2138
 1735TIP3    H129400   0.311   4.279   8.927  0.1424  1.2558  0.4983
 1735TIP3    H229401   0.168   4.312   8.965 -0.0215  1.2823 -0.1325
 1736TIP3   OH229402   4.135   6.713   8.056 -0.3801  0.3512 -0.4100
 1736TIP3    H129403   4.221   6.716   8.016 -0.4191  0.4853 -0.4835
 1736TIP3    H229404   4.139   6.777   8.127 -0.0551 -0.4433  0.3134
 1737TIP3   OH229405   6.767   4.882   8.149 -0.3856  0.1919 -0.1771
 1737TIP3    H129406   6.719   4.813   8.103  0.8323  0.4889 -1.9949
 1737TIP3    H229407   6.847   4.840   8.179 -0.9010  0.1540  1.2102
 1738TIP3   OH229408   2.157   0.937   9.332 -0.8160  0.4464  0.5184
 1738TIP3    H129409   2.206   1.005   9.287  0.1375  0.5904  1.7173
 1738TIP3    H229410   2.074   0.979   9.356 -1.0616  0.5569 -0.5154
 1739TIP3   OH229411   0.955   2.426   9.681 -0.7194  0.1586 -0.1645
 1739TIP3    H129412   0.953   2.345   9.629  0.9267  1.6521 -2.8077
 1739TIP3    H229413   0.878   2.420   9.737 -1.3027 -2.7023 -1.0754
 1740TIP3   OH229414   2.341   6.527   7.378  0.0635  0.0635 -0.5720
 1740TIP3    H129415   2.370   6.455   7.322 -0.1757 -0.0892 -0.5021
 1740TIP3    H229416   2.404   6.598   7.362  1.5654 -0.8664  0.9370
 1741TIP3   OH229417   2.825   3.511   8.869 -0.1543  0.1158  0.3974
 1741TIP3    H129418   2.806   3.462   8.789  1.7845 -0.1392  0.0481
 1741TIP3    H229419   2.918   3.533   8.863 -0.4993  2.2158  1.4405
 1742TIP3   OH229420   3.984   6.807   6.583  0.1858 -0.1200 -0.1534
 1742TIP3    H129421   3.913   6.774   6.638 -0.8135  1.7431 -0.2515
 1742TIP3    H229422   3.965   6.769   6.496  0.2241 -0.8819  0.1600
 1743TIP3   OH229423   0.032   2.126   9.330 -0.3957  0.0186  0.0183
 1743TIP3    H129424  -0.038   2.183   9.297 -0.6256  0.8517  1.8033
 1743TIP3    H229425  -0.014   2.055   9.374 -0.1081 -1.7638 -2.3627
 1744TIP3   OH229426   0.153   0.871   7.904 -0.3667 -1.3635 -0.3953
 1744TIP3    H129427   0.158   0.785   7.947 -1.3208  0.0875  3.0289
 1744TIP3    H229428   0.121   0.930   7.973 -1.2393  1.4802 -3.0008
 1745TIP3   OH229429   5.259   7.119   8.311  0.0300 -0.2244  0.0174
 1745TIP3    H129430   5.223   7.185   8.370 -1.3852  1.4228 -2.4895
 1745TIP3    H229431   5.317   7.168   8.253 -0.1414 -1.3680 -1.1819
 1746TIP3   OH229432   5.225   0.705   7.375  0.5959  0.5897 -0.0569
 1746TIP3    H129433   5.142   0.748   7.396 -0.3693 -1.1080 -0.2009
 1746TIP3    H229434   5.287   0.776   7.365 -1.0012  1.9685 -0.6181
 1747TIP3   OH229435   7.538   3.584   7.669  0.1660  0.2057  0.4534
 1747TIP3    H129436   7.545   3.602   7.763 -0.7522 -2.9735  1.2538
 1747TIP3    H229437   7.618   3.534   7.649 -1.2734 -2.3059  0.5130
 1748TIP3   OH229438   6.577   5.245   8.392 -0.1480  0.0902 -0.1862
 1748TIP3    H129439   6.544   5.189   8.462 -0.8395 -0.8076 -1.2003
 1748TIP3    H229440   6.602   5.185   8.322  0.0952  0.9846 -0.8871
 1749TIP3   OH229441   2.556   4.769   9.269  0.4724 -0.2070  0.3995
 1749TIP3    H129442   2.556   4.729   9.182  0.4253 -0.4034  0.4894
 1749TIP3    H229443   2.604   4.851   9.258 -0.2411  0.1676  0.0017
 1750TIP3   OH229444   4.511   1.186   8.515 -0.1926  0.3560  0.3932
 1750TIP3    H129445   4.493   1.239   8.438  2.1816  0.7579  0.0213
 1750TIP3    H229446   4.530   1.099   8.480 -3.2221 -0.6477  0.9345
 1751TIP3   OH229447   3.165   3.709   8.621 -0.1672  0.3705 -0.0552
 1751TIP3    H129448   3.094   3.768   8.596 -0.2252  0.3554  0.0708
 1751TIP3    H229449   3.142   3.679   8.709  0.0546  0.4572  0.0338
 1752TIP3   OH229450   3.320   3.383   7.785 -0.1678  0.1820 -0.2079
 1752TIP3    H129451   3.351   3.326   7.855 -1.0292  1.1419  1.0108
 1752TIP3    H229452   3.398   3.403   7.734  0.3386 -1.1886 -0.0246
 1753TIP3   OH229453   5.648   7.119   9.278  0.5863  0.3913  0.2565
 1753TIP3    H129454   5.685   7.048   9.331  1.1369  1.8692  1.9512
 1753TIP3    H229455   5.607   7.177   9.342 -0.4247  1.2735 -1.1509
 1754TIP3   OH229456   3.506   5.402   8.539 -0.0371 -0.4016 -0.0813
 1754TIP3    H129457   3.543   5.373   8.622  0.4019  0.6464  0.0928
 1754TIP3    H229458   3.432   5.456   8.563 -1.1591 -1.7223 -0.4214
 1755TIP3   OH229459   3.903   2.889   9.107  0.4379  0.1054 -0.1620
 1755TIP3    H129460   3.880   2.981   9.123  1.2966  0.3339 -0.1757
 1755TIP3    H229461   3.867   2.871   9.020  1.3149  0.8127 -0.6896
 1756TIP3   OH229462   1.852   0.318   8.376  0.3735 -0.5907  0.7261
 1756TIP3    H129463   1.914   0.300   8.306 -0.9571  1.2434 -1.0327
 1756TIP3    H229464   1.889   0.392   8.424 -1.1711  1.8274 -1.5253
 1757TIP3   OH229465   1.294   0.328   7.290 -0.2718  0.3411 -0.3186
 1757TIP3    H129466   1.220   0.269   7.275  0.6146 -0.8178 -0.2813
 1757TIP3    H229467   1.299   0.335   7.385  0.4027 -0.5789 -0.2718
 1758TIP3   OH229468   1.936   3.400   9.282 -0.9138  0.4773 -0.3983
 1758TIP3    H129469   1.867   3.351   9.237 -0.5601  1.2228 -1.8193
 1758TIP3    H229470   1.976   3.453   9.213 -0.3888  1.7240  0.8277
 1759TIP3   OH229471   0.601   2.709   8.872 -0.4503  0.2711  0.3661
 1759TIP3    H129472   0.662   2.689   8.944 -2.7921  1.8556  3.0345
 1759TIP3    H229473   0.553   2.628   8.858  0.5340 -0.2692  0.0153
 1760TIP3   OH229474   2.141   6.701   9.304 -0.6636 -0.0736 -0.1274
 1760TIP3    H129475   2.064   6.756   9.291 -0.6724 -0.4005 -1.7046
 1760TIP3    H229476   2.209   6.743   9.252  0.4157  0.5003  1.6478
 1761TIP3   OH229477   4.033   0.547   8.906 -0.0472 -0.5872 -0.1657
 1761TIP3    H129478   4.116   0.582   8.872  0.2849 -1.0909  0.1168
 1761TIP3    H229479   4.059   0.490   8.978 -0.5039 -2.1182 -1.1754
 1762TIP3   OH229480   3.419   4.928   9.488  0.1944  0.6771  0.3504
 1762TIP3    H129481   3.508   4.910   9.458 -0.2304 -1.4329  0.2253
 1762TIP3    H229482   3.420   5.021   9.510  2.0984  0.9741 -0.7429
 1763TIP3   OH229483   0.496   0.315   7.672 -0.3471  0.7223 -0.6023
 1763TIP3    H129484   0.568   0.276   7.720  0.2079  2.2088 -0.1953
 1763TIP3    H229485   0.426   0.326   7.737 -0.2632  1.0275 -0.5644
 1764TIP3   OH229486   3.027   1.006   7.161 -0.5184  0.2771  0.1474
 1764TIP3    H129487   3.107   0.987   7.209 -0.3291 -0.4763 -0.4398
 1764TIP3    H229488   2.967   1.042   7.227  0.1473  0.4343  0.6783
 1765TIP3   OH229489   4.984   4.262   8.828  0.1952 -0.2895  0.7776
 1765TIP3    H129490   4.914   4.275   8.892 -1.0451 -1.9727 -0.1437
 1765TIP3    H229491   5.016   4.173   8.845  0.6404 -0.3220 -0.1641
 1766TIP3   OH229492   3.447   1.976   7.787 -0.7389 -0.0809 -0.4651
 1766TIP3    H129493   3.477   2.007   7.872  0.5417 -2.6929  0.1421
 1766TIP3    H229494   3.514   1.914   7.759 -2.9287 -2.0711 -1.6318
 1767TIP3   OH229495   3.130   4.809   7.974  0.2055 -0.2090  0.5178
 1767TIP3    H129496   3.145   4.714   7.971 -1.4625 -0.5169  1.0107
 1767TIP3    H229497   3.093   4.830   7.889  0.0840 -0.0989  0.5975
 1768TIP3   OH229498   2.322   7.052   7.748 -0.3458 -0.3284  0.6736
 1768TIP3    H129499   2.399   7.046   7.805 -1.4575  0.0195  2.2740
 1768TIP3    H229500   2.271   6.974   7.769 -0.4835 -0.5102 -0.3160
 1769TIP3   OH229501   1.271   0.714   7.895 -0.2857  0.0691 -0.0147
 1769TIP3    H129502   1.218   0.791   7.875 -1.1460  0.0485  1.8953
 1769TIP3    H229503   1.232   0.679   7.976  0.5076 -1.9712 -0.4472
 1770TIP3   OH229504   2.867   5.749   6.553  0.2799 -0.4633 -0.0845
 1770TIP3    H129505   2.836   5.683   6.492 -0.9199 -0.0301  0.0119
 1770TIP3    H229506   2.849   5.712   6.640  1.9086 -1.0458  0.0279
 1771TIP3   OH229507   3.941   7.515   7.921  0.7480 -0.7874  0.3583
 1771TIP3    H129508   3.999   7.467   7.862 -0.4586 -2.6851  0.6116
 1771TIP3    H229509   3.970   7.489   8.009  0.0062 -1.1529  0.5001
 1772TIP3   OH229510   7.213   6.022   8.246 -0.5067 -0.2841 -0.5531
 1772TIP3    H129511   7.136   6.077   8.231 -0.2384  1.0718  2.4541
 1772TIP3    H229512   7.278   6.055   8.184 -1.4731  0.3347 -1.2670
 1773TIP3   OH229513   0.887   2.217   8.630 -0.4499 -0.0866  0.0509
 1773TIP3    H129514   0.908   2.125   8.611  1.4520  0.2652  0.2749
 1773TIP3    H229515   0.799   2.214   8.668 -0.3004 -1.8602  0.3413
 1774TIP3   OH229516   1.023   5.929   6.864  0.6569 -0.3092  0.1353
 1774TIP3    H129517   1.079   5.852   6.852  1.2118  0.3422 -1.7910
 1774TIP3    H229518   1.035   5.953   6.956  1.8545 -1.4723  0.3185
 1775TIP3   OH229519   6.194   6.009   7.470  0.1781  0.2826  0.1020
 1775TIP3    H129520   6.148   5.929   7.444 -0.3375  0.8743 -0.8446
 1775TIP3    H229521   6.168   6.023   7.562 -0.9101  0.1723 -0.1791
 1776TIP3   OH229522   4.579   6.933   9.283 -0.5605  0.0174 -0.2440
 1776TIP3    H129523   4.672   6.936   9.260 -0.3198  0.0907  0.6665
 1776TIP3    H229524   4.540   7.007   9.238  0.1219  0.8855  0.5536
 1777TIP3   OH229525   0.447   0.560   9.347 -0.2715  0.1049 -0.4445
 1777TIP3    H129526   0.408   0.637   9.388  2.4466  1.1202  0.4955
 1777TIP3    H229527   0.476   0.506   9.421  0.6888 -0.2347 -1.0430
 1778TIP3   OH229528   4.750   1.118   8.677 -0.4163 -0.2675  0.2210
 1778TIP3    H129529   4.666   1.152   8.644 -0.4342 -1.0696 -0.6104
 1778TIP3    H229530   4.774   1.178   8.747 -0.6206  1.2515 -0.9563
 1779TIP3   OH229531   0.203   7.002   8.491 -0.0087 -0.1230  0.3468
 1779TIP3    H129532   0.111   6.997   8.518 -0.7760 -0.7824 -2.1201
 1779TIP3    H229533   0.239   6.916   8.510 -0.3522 -0.3642 -0.0721
 1780TIP3   OH229534   4.428   6.550   8.383  0.6739  0.4213  0.5919
 1780TIP3    H129535   4.427   6.614   8.312 -0.4092  0.3961  0.5650
 1780TIP3    H229536   4.390   6.471   8.345 -0.7830  0.6813  1.4198
 1781TIP3   OH229537   6.199   3.780   6.680  0.0403 -0.2139  0.2464
 1781TIP3    H129538   6.257   3.703   6.684  1.6467  0.9709  0.8689
 1781TIP3    H229539   6.162   3.787   6.768  0.2687 -0.0042  0.3263
 1782TIP3   OH229540   0.296   3.987   9.196 -0.2852 -0.2244 -0.0675
 1782TIP3    H129541   0.384   4.022   9.186  0.2705 -1.2105  1.1146
 1782TIP3    H229542   0.266   3.972   9.107  0.9233 -0.2788 -0.4851
 1783TIP3   OH229543   4.328   7.271   7.415 -0.3784  0.4177  0.1326
 1783TIP3    H129544   4.304   7.360   7.389  0.1195  0.8122  0.9558
 1783TIP3    H229545   4.414   7.256   7.375 -0.5365  0.2425 -0.1428
 1784TIP3   OH229546   2.826   4.770   8.293  0.7440  0.2581 -0.2507
 1784TIP3    H129547   2.823   4.687   8.247 -0.9739  0.1941 -0.0739
 1784TIP3    H229548   2.826   4.747   8.386  0.8138  0.4525 -0.2003
 1785TIP3   OH229549   3.103   3.849   8.979 -0.1339 -0.0007  0.0423
 1785TIP3    H129550   3.186   3.893   8.963 -0.0506 -0.3990 -0.6924
 1785TIP3    H229551   3.048   3.914   9.022  0.5263  0.2913  0.4398
 1786TIP3   OH229552   4.100   0.832   8.518 -0.0249  0.3273  0.2613
 1786TIP3    H129553   4.076   0.741   8.499  2.6259 -0.0446 -2.0126
 1786TIP3    H229554   4.101   0.837   8.614 -0.3432 -2.0194  0.4529
 1787TIP3   OH229555   5.938   5.576   7.804 -0.2407  0.1147  0.2506
 1787TIP3    H129556   6.018   5.606   7.760 -0.7454 -0.3943 -1.0522
 1787TIP3    H229557   5.959   5.581   7.897  0.6439  1.8639  0.0067
 1788TIP3   OH229558   2.785   3.855   7.438 -0.2711 -0.3405  0.2251
 1788TIP3    H129559   2.720   3.846   7.508 -0.2724  0.2441  0.3012
 1788TIP3    H229560   2.869   3.855   7.484 -0.3343  1.9172  0.4330
 1789TIP3   OH229561   4.810   5.649   8.636 -0.3152 -0.2090  0.1474
 1789TIP3    H129562   4.903   5.651   8.613 -0.2716 -1.0070  0.2375
 1789TIP3    H229563   4.777   5.569   8.595 -1.1246  0.4350 -0.4692
 1790TIP3   OH229564   3.541   3.912   8.935 -0.4834  0.2663  0.0993
 1790TIP3    H129565   3.513   3.873   9.018  1.0447  0.9017  0.9698
 1790TIP3    H229566   3.627   3.950   8.955 -0.9439  2.1624 -1.2633
 1791TIP3   OH229567   2.344   2.575   9.701 -0.3726 -0.0499 -0.0467
 1791TIP3    H129568   2.330   2.506   9.637 -1.2890  0.0210  0.0559
 1791TIP3    H229569   2.256   2.609   9.718  0.0237  0.9023  0.1626
 1792TIP3   OH229570   0.134   7.449   8.773 -0.0808  0.1922 -0.1662
 1792TIP3    H129571   0.221   7.454   8.813 -0.0950 -1.2986  0.1182
 1792TIP3    H229572   0.093   7.533   8.794  1.1483  0.7765  0.0014
 1793TIP3   OH229573   0.374   5.498   9.366  0.1008  0.1700  0.2830
 1793TIP3    H129574   0.410   5.526   9.281  2.4209  2.4086  1.8289
 1793TIP3    H229575   0.326   5.574   9.398  2.1385  0.7134  2.3608
 1794TIP3   OH229576   4.851   4.262   9.068  0.5680 -0.2999 -0.3056
 1794TIP3    H129577   4.905   4.190   9.102 -1.5146 -0.9840  1.8246
 1794TIP3    H229578   4.885   4.340   9.111 -0.2741 -0.7668  1.2572
 1795TIP3   OH229579   4.864   6.013   7.389  0.1358 -0.6430 -0.0499
 1795TIP3    H129580   4.810   5.994   7.466 -0.1076 -0.8625 -0.2776
 1795TIP3    H229581   4.826   5.961   7.319 -0.1170  0.1436 -0.5051
 1796TIP3   OH229582   1.011   0.030   8.603  0.2830  0.3327 -0.1200
 1796TIP3    H129583   1.020   0.037   8.698 -0.5850  1.8463 -0.1113
 1796TIP3    H229584   1.000  -0.064   8.587  1.6351 -0.0822  1.1315
 1797TIP3   OH229585   5.643   2.296   9.292 -0.3310 -0.5840 -0.0282
 1797TIP3    H129586   5.626   2.213   9.337  1.3228  0.2208  2.2298
 1797TIP3    H229587   5.738   2.298   9.281 -0.2062  1.5261  1.0949
 1798TIP3   OH229588   7.085   3.311   8.352 -0.2949  0.0683  0.2055
 1798TIP3    H129589   7.145   3.382   8.331  1.3413 -0.9697  1.1491
 1798TIP3    H229590   7.047   3.336   8.437  1.1925 -0.7015  1.1300
 1799TIP3   OH229591   6.941   1.141   9.251  0.3195 -0.0888  0.4118
 1799TIP3    H129592   6.927   1.185   9.168  0.5725 -0.1829  0.3185
 1799TIP3    H229593   6.966   1.052   9.227 -2.2009 -0.9476  0.5880
 1800TIP3   OH229594   6.323   2.343   8.838 -0.2201  0.4677  0.2054
 1800TIP3    H129595   6.302   2.353   8.745  2.6753 -0.4354 -0.6527
 1800TIP3    H229596   6.331   2.433   8.870  0.2119  0.8045 -0.8076
 1801TIP3   OH229597   7.070   7.518   7.747 -0.3634 -0.4822 -0.1364
 1801TIP3    H129598   7.059   7.483   7.835 -1.9930 -1.0642 -0.5294
 1801TIP3    H229599   7.163   7.510   7.729  0.0902  0.1633  1.7311
 1802TIP3   OH229600   1.251   3.655   8.191  0.5347  0.3319 -0.2497
 1802TIP3    H129601   1.194   3.732   8.191  0.7756  0.5114 -0.6314
 1802TIP3    H229602   1.314   3.671   8.121  0.5988 -0.2048 -0.3195
 1803TIP3   OH229603   1.275   0.310   9.096 -0.1038  0.3044  0.2651
 1803TIP3    H129604   1.314   0.350   9.173  1.9444  0.1575 -0.6391
 1803TIP3    H229605   1.261   0.383   9.035 -0.3074  0.2076  0.1926
 1804TIP3   OH229606   5.501   5.737   9.155  0.7664  0.8196  0.1789
 1804TIP3    H129607   5.493   5.828   9.128 -0.4733  0.7081  0.1245
 1804TIP3    H229608   5.508   5.688   9.073 -3.1130  0.4686 -0.1058
 1805TIP3   OH229609   4.547   6.901   7.378 -0.2688  0.1925  0.6237
 1805TIP3    H129610   4.492   6.865   7.448  0.1720 -0.6616  0.5441
 1805TIP3    H229611   4.582   6.982   7.414 -1.4018  0.6407  0.7568
 1806TIP3   OH229612   5.384   4.737   7.960  0.5491 -0.3508  0.1416
 1806TIP3    H129613   5.302   4.687   7.962 -0.2504  0.7923 -1.7238
 1806TIP3    H229614   5.375   4.802   8.029  0.0970 -0.5208  0.2436
 1807TIP3   OH229615   5.208   3.236   8.526  0.6191  0.1573  0.0637
 1807TIP3    H129616   5.247   3.186   8.454  1.6627  1.3164 -0.2053
 1807TIP3    H229617   5.211   3.327   8.497 -0.6627  0.4551  0.8116
 1808TIP3   OH229618   4.982   6.139   6.604 -0.1266  0.3015 -0.0460
 1808TIP3    H129619   4.901   6.185   6.578 -0.5477 -0.5347 -0.2668
 1808TIP3    H229620   4.952   6.051   6.629  0.8623 -0.5413 -1.6116
 1809TIP3   OH229621   4.745   6.966   7.701 -0.1369  0.2828 -0.5892
 1809TIP3    H129622   4.707   7.048   7.733 -0.1201 -0.2646  0.9128
 1809TIP3    H229623   4.692   6.943   7.624 -0.6560  1.2770 -0.5453
 1810TIP3   OH229624   3.572   6.407   8.238 -0.5051 -0.5031  0.3395
 1810TIP3    H129625   3.639   6.360   8.289  0.5674  0.5333 -0.0665
 1810TIP3    H229626   3.536   6.471   8.299  0.1298  0.1127  0.0922
 1811TIP3   OH229627   1.607   1.538   7.488  0.1164  0.1198 -0.3536
 1811TIP3    H129628   1.538   1.481   7.520  1.5812 -0.3409  2.2750
 1811TIP3    H229629   1.570   1.580   7.410 -2.6566 -0.9195  0.3059
 1812TIP3   OH229630   7.415   3.257   9.343  0.4881  0.1563 -0.4099
 1812TIP3    H129631   7.424   3.182   9.401 -0.9100  1.2031  1.2241
 1812TIP3    H229632   7.410   3.218   9.255  1.0556 -1.5505  0.2655
 1813TIP3   OH229633   5.082   4.695   7.991 -0.1558 -0.0133  0.3709
 1813TIP3    H129634   5.040   4.655   7.915  1.4884 -0.3114 -0.4346
 1813TIP3    H229635   5.070   4.631   8.061 -2.2016  0.5242  0.5832
 1814TIP3   OH229636   3.059   2.866   8.445 -0.1859 -0.2006 -0.3516
 1814TIP3    H129637   3.089   2.776   8.443 -2.0817 -0.8706 -1.6067
 1814TIP3    H229638   2.970   2.861   8.481  0.4212  1.4536  1.5638
 1815TIP3   OH229639   3.702   6.608   8.767 -0.7170  0.6520  1.1552
 1815TIP3    H129640   3.780   6.569   8.806 -1.2504 -0.3649  1.2515
 1815TIP3    H229641   3.636   6.601   8.836 -0.7025  2.2033  1.3477
 1816TIP3   OH229642   4.215   5.830   8.043  0.7867  0.2854 -0.2069
 1816TIP3    H129643   4.177   5.914   8.071  2.7151  0.8064  1.1289
 1816TIP3    H229644   4.216   5.777   8.123 -1.5273 -1.5539 -1.2900
 1817TIP3   OH229645   5.208   6.155   8.689 -0.1311 -0.6437  0.5750
 1817TIP3    H129646   5.256   6.215   8.633  0.6979 -2.7581 -1.0984
 1817TIP3    H229647   5.228   6.184   8.778 -1.7523  3.0210 -0.0855
 1818TIP3   OH229648   5.242   4.160   7.406 -0.1159  0.1637  0.1379
 1818TIP3    H129649   5.210   4.101   7.337 -2.2497 -0.6452  1.7173
 1818TIP3    H229650   5.245   4.246   7.364  1.4231 -0.7398 -1.7395
 1819TIP3   OH229651   1.319   3.962   7.339 -0.5886  0.6494  0.4338
 1819TIP3    H129652   1.237   4.005   7.314 -0.2394  0.5202 -1.0131
 1819TIP3    H229653   1.293   3.897   7.403 -1.8769 -0.4616 -1.1458
 1820TIP3   OH229654   2.117   4.395   7.591 -0.2902 -0.0840 -0.3807
 1820TIP3    H129655   2.045   4.456   7.606  0.6829  1.5241 -1.8661
 1820TIP3    H229656   2.129   4.395   7.496 -0.3495 -2.7683 -0.4640
 1821TIP3   OH229657   0.898   3.204   8.306 -0.5471  0.3307 -0.4758
 1821TIP3    H129658   0.895   3.110   8.292  2.3719 -0.5639  3.1274
 1821TIP3    H229659   0.978   3.218   8.357 -1.4580  4.6321  0.1904
 1822TIP3   OH229660   4.311   4.117   9.179 -0.4083 -0.2253  0.3379
 1822TIP3    H129661   4.396   4.137   9.219 -0.0700  0.9002 -0.8716
 1822TIP3    H229662   4.318   4.026   9.151  0.4763 -0.0866  0.0773
 1823TIP3   OH229663   0.982   1.898   8.078  0.1601  0.0843  0.0468
 1823TIP3    H129664   0.896   1.874   8.044  0.3901 -0.5155 -0.1221
 1823TIP3    H229665   1.044   1.844   8.029  0.8055  1.7348 -1.0846
 1824TIP3   OH229666   3.304   7.611   8.581  0.5643 -0.5157 -0.4343
 1824TIP3    H129667   3.263   7.536   8.624 -1.4927 -0.7300 -2.5947
 1824TIP3    H229668   3.313   7.677   8.650  0.3603 -1.9400  0.9968
 1825TIP3   OH229669   6.794   3.505   8.631  1.1869 -0.8166  0.1521
 1825TIP3    H129670   6.875   3.456   8.622  0.5234 -1.6890 -1.6760
 1825TIP3    H229671   6.737   3.449   8.683  1.8389 -0.0219  1.7994
 1826TIP3   OH229672   2.361   0.944   8.897 -0.1293  0.3576  0.1322
 1826TIP3    H129673   2.391   0.937   8.988  1.7328 -2.1321 -0.5577
 1826TIP3    H229674   2.296   0.875   8.888 -2.0654  2.0761  0.0814
 1827TIP3   OH229675   3.139   0.192   8.676  0.1363 -0.0015 -0.5401
 1827TIP3    H129676   3.148   0.287   8.663 -0.1769  0.1199  0.0991
 1827TIP3    H229677   3.046   0.179   8.696  0.3267 -0.3450  0.1543
 1828TIP3   OH229678   5.250   5.163   7.401  0.6252  0.1097  0.3486
 1828TIP3    H129679   5.285   5.087   7.354  0.4613 -0.5162  1.2121
 1828TIP3    H229680   5.240   5.230   7.334  1.4572 -0.3973 -0.3050
 1829TIP3   OH229681   4.770   6.631   7.521  0.1042  0.0787  0.2416
 1829TIP3    H129682   4.845   6.665   7.570  1.3653 -0.9394 -0.9049
 1829TIP3    H229683   4.710   6.598   7.588  0.7246  0.7869  1.1761
 1830TIP3   OH229684   4.171   5.845   9.355 -0.3011  0.6405 -0.6945
 1830TIP3    H129685   4.225   5.860   9.432 -0.0394 -0.7333 -0.5892
 1830TIP3    H229686   4.092   5.898   9.370 -0.3496  0.2182  0.6186
 1831TIP3   OH229687   2.407   3.915   7.845 -0.3907 -0.0946 -0.0802
 1831TIP3    H129688   2.419   3.886   7.935  0.5395 -0.2423 -0.2461
 1831TIP3    H229689   2.420   4.010   7.849 -3.5282  0.4324  0.4800
 1832TIP3   OH229690   4.218   2.027   7.034  0.5549  0.3146  0.2432
 1832TIP3    H129691   4.172   2.078   6.968  0.6312 -1.1544 -1.0127
 1832TIP3    H229692   4.218   1.938   7.000  0.6264 -0.5016  2.2398
 1833TIP3   OH229693   3.504   0.933   8.741 -0.1801 -0.7191  0.5814
 1833TIP3    H129694   3.510   1.004   8.678 -0.5272 -1.5303 -0.3880
 1833TIP3    H229695   3.410   0.918   8.751 -0.1100 -0.9598  0.8830
 1834TIP3   OH229696   1.377   5.275   7.442  0.0981  0.1290 -0.1650
 1834TIP3    H129697   1.376   5.337   7.515  2.3736 -0.0493  0.1072
 1834TIP3    H229698   1.429   5.319   7.374  0.2988 -0.7853 -0.6196
 1835TIP3   OH229699   7.200   4.306   8.207 -0.2541 -0.2424 -0.2859
 1835TIP3    H129700   7.244   4.368   8.265 -0.1132 -0.5543 -0.0562
 1835TIP3    H229701   7.108   4.331   8.209  0.0283  0.9765 -1.4717
 1836TIP3   OH229702   4.661   2.654   8.133 -0.2137 -0.0977  0.1996
 1836TIP3    H129703   4.756   2.666   8.131 -0.0252 -1.5235 -0.5010
 1836TIP3    H229704   4.649   2.573   8.182 -0.9064 -1.1717 -1.6711
 1837TIP3   OH229705   0.140   1.992   7.592 -0.3412  0.4103  0.1225
 1837TIP3    H129706   0.087   2.027   7.521 -0.6657  0.0035  0.1629
 1837TIP3    H229707   0.163   1.903   7.564 -1.6802 -0.2884  1.1585
 1838TIP3   OH229708   3.796   0.655   8.500 -0.5066  0.1806 -0.1322
 1838TIP3    H129709   3.818   0.730   8.555 -3.1692 -0.2143  1.6678
 1838TIP3    H229710   3.787   0.582   8.561 -1.1218 -0.8747 -1.4180
 1839TIP3   OH229711   0.484   1.846   8.176 -0.2651 -0.4751  0.2060
 1839TIP3    H129712   0.456   1.760   8.208 -0.9158 -0.3225  0.0713
 1839TIP3    H229713   0.418   1.870   8.111 -0.7987  0.6695  1.1262
 1840TIP3   OH229714   4.292   7.576   8.531  0.1867  0.4646 -0.2194
 1840TIP3    H129715   4.240   7.570   8.451  1.7906  1.0798 -1.3819
 1840TIP3    H229716   4.317   7.668   8.537  0.3771  0.3593  0.8047
 1841TIP3   OH229717   7.490   5.819   7.745  0.2375 -0.2269 -0.1153
 1841TIP3    H129718   7.405   5.780   7.761 -0.4562  1.3264  0.1893
 1841TIP3    H229719   7.535   5.757   7.686 -0.3146 -2.0190  1.2722
 1842TIP3   OH229720   3.554   6.282   7.254  1.0092  0.1102  0.3303
 1842TIP3    H129721   3.466   6.252   7.233  0.4529  1.6364  0.3249
 1842TIP3    H229722   3.591   6.308   7.170  1.4912 -0.5900  0.3259
 1843TIP3   OH229723   0.367   5.257   9.120  0.0438 -0.1828  0.4257
 1843TIP3    H129724   0.311   5.266   9.197 -0.0218 -1.6914  0.5815
 1843TIP3    H229725   0.455   5.242   9.155 -0.0677 -1.3828  0.2521
 1844TIP3   OH229726   1.732   5.049   8.227 -0.2061 -0.1959  0.1495
 1844TIP3    H129727   1.760   5.140   8.217 -3.0402  0.8328  0.7363
 1844TIP3    H229728   1.717   5.038   8.321  0.4939 -1.4371  0.1414
 1845TIP3   OH229729   4.354   2.531   7.947 -0.5751 -0.0057 -0.3784
 1845TIP3    H129730   4.382   2.497   8.031 -0.6839 -0.2329 -0.4310
 1845TIP3    H229731   4.362   2.626   7.955 -1.6792  0.0504  0.2926
 1846TIP3   OH229732   6.298   7.138   8.013  0.1619 -0.3247  0.4127
 1846TIP3    H129733   6.345   7.166   8.092  0.9553  0.2253 -0.2375
 1846TIP3    H229734   6.263   7.219   7.976  0.3245 -0.5024 -0.1359
 1847TIP3   OH229735   5.112   5.131   8.193 -0.7556  0.1494 -0.1378
 1847TIP3    H129736   5.105   5.200   8.127 -1.8730 -0.1242 -0.3151
 1847TIP3    H229737   5.022   5.106   8.212 -0.4772  0.3066  1.5945
 1848TIP3   OH229738   7.389   2.709   9.031 -0.0126 -0.3046  0.2735
 1848TIP3    H129739   7.477   2.737   9.004  0.1113  1.0258  1.8862
 1848TIP3    H229740   7.401   2.676   9.120 -1.0073 -1.0024  0.1600
 1849TIP3   OH229741   2.449   5.440   7.409  0.2420 -0.3576  0.0952
 1849TIP3    H129742   2.409   5.412   7.491  1.2235 -0.2904  0.6163
 1849TIP3    H229743   2.445   5.536   7.411 -0.4565 -0.3727 -0.3163
 1850TIP3   OH229744   3.049   5.918   7.455 -0.3123 -0.1705  0.5694
 1850TIP3    H129745   2.976   5.926   7.516 -1.9220 -1.8968 -0.9799
 1850TIP3    H229746   3.091   5.836   7.479 -0.4419 -0.4358 -0.0960
 1851TIP3   OH229747   1.398   6.393   8.587 -0.4959  0.3914 -0.2520
 1851TIP3    H129748   1.475   6.449   8.594 -0.8894  0.9186 -0.1254
 1851TIP3    H229749   1.325   6.448   8.615 -0.5851 -0.9322  2.4585
 1852TIP3   OH229750   2.908   7.205   9.027  0.3792 -0.2442 -0.0118
 1852TIP3    H129751   2.847   7.216   9.100 -0.7879  0.4740 -1.0439
 1852TIP3    H229752   2.855   7.168   8.957  1.9083 -2.7520  0.0543
 1853TIP3   OH229753   6.526   7.185   8.837  0.3179 -0.4452 -0.9761
 1853TIP3    H129754   6.550   7.153   8.924 -1.2307  0.9046 -0.0039
 1853TIP3    H229755   6.437   7.152   8.823  0.2911 -0.0579 -1.7529
 1854TIP3   OH229756   7.260   0.401   9.697 -0.5150 -0.3554 -0.4093
 1854TIP3    H129757   7.274   0.310   9.672  2.6991 -0.4367  1.1574
 1854TIP3    H229758   7.206   0.396   9.776  0.8814 -1.0753  0.5385
 1855TIP3   OH229759   3.153   2.717   9.632 -0.2909 -0.0137  0.3482
 1855TIP3    H129760   3.177   2.775   9.560 -1.2961  0.0370  0.0382
 1855TIP3    H229761   3.090   2.655   9.594 -2.5071  1.3205  1.6108
 1856TIP3   OH229762   4.335   2.713   7.667  0.5214 -0.0687 -0.4520
 1856TIP3    H129763   4.316   2.801   7.634  2.7726  0.5933 -0.1146
 1856TIP3    H229764   4.316   2.718   7.761 -0.3440 -0.2865 -0.5992
 1857TIP3   OH229765   2.506   6.970   7.947 -0.1051 -0.3577  0.2519
 1857TIP3    H129766   2.575   6.909   7.918  1.1445  0.0788  2.0773
 1857TIP3    H229767   2.544   7.013   8.024 -1.9161  0.9405  0.4773
 1858TIP3   OH229768   1.292   7.630   7.106  0.1048  0.0465 -0.6782
 1858TIP3    H129769   1.371   7.595   7.065 -0.8079  0.3208 -2.7825
 1858TIP3    H229770   1.270   7.708   7.055 -1.7032 -0.1880 -0.3406
 1859TIP3   OH229771   7.212   6.940   9.111 -0.1612  0.4605 -0.0462
 1859TIP3    H129772   7.206   6.966   9.020  1.2985  0.3480 -0.1993
 1859TIP3    H229773   7.189   7.018   9.161  0.5501  0.9656 -0.5062
 1860TIP3   OH229774   0.516   1.744   9.589  0.1391  0.4780  0.4592
 1860TIP3    H129775   0.553   1.658   9.608 -1.0079 -0.0556  0.3926
 1860TIP3    H229776   0.561   1.774   9.510 -0.2640 -0.5861 -0.1910
 1861TIP3   OH229777   2.672   2.461   7.082 -0.3328  0.7244 -0.6845
 1861TIP3    H129778   2.601   2.484   7.021 -2.1885 -0.2328  0.9925
 1861TIP3    H229779   2.730   2.403   7.031 -3.1066 -2.0550 -1.0064
 1862TIP3   OH229780   2.112   5.988   7.954  0.1522  0.4261  0.3244
 1862TIP3    H129781   2.139   6.065   8.004  0.2461  0.9642 -0.5255
 1862TIP3    H229782   2.093   5.922   8.020  2.2302  0.4476  1.0084
 1863TIP3   OH229783   3.913   6.555   8.940  0.2017  0.1117 -0.2528
 1863TIP3    H129784   4.007   6.558   8.923  0.7781 -1.0888  2.2120
 1863TIP3    H229785   3.897   6.629   8.998 -0.5470  0.7650 -1.2791
 1864TIP3   OH229786   3.018   4.224   8.482 -0.1632  0.4614  0.2256
 1864TIP3    H129787   3.038   4.171   8.558 -0.1880  0.6879  0.3906
 1864TIP3    H229788   3.099   4.225   8.431 -0.2604  0.0023  0.0627
 1865TIP3   OH229789   4.695   5.249   8.708  0.1503 -0.0861 -0.1658
 1865TIP3    H129790   4.658   5.165   8.681 -0.0157  0.0787 -0.4521
 1865TIP3    H229791   4.622   5.311   8.704  0.2288  0.0347  0.2242
 1866TIP3   OH229792   4.335   2.475   7.406  0.0291 -0.4900 -0.7627
 1866TIP3    H129793   4.378   2.494   7.490 -1.1389 -0.9122 -0.0323
 1866TIP3    H229794   4.381   2.398   7.373  1.7797  0.8159 -1.4973
 1867TIP3   OH229795   4.560   2.815   9.023 -0.0208  0.3783 -0.2377
 1867TIP3    H129796   4.645   2.782   8.993  0.2780  0.7746  0.1636
 1867TIP3    H229797   4.498   2.782   8.958 -0.1456 -3.1361  1.4484
 1868TIP3   OH229798   1.354   2.013   7.990  0.1679 -0.3637 -0.3434
 1868TIP3    H129799   1.444   2.023   8.022 -0.5290  2.3778  1.0886
 1868TIP3    H229800   1.364   1.977   7.902  2.5596 -1.5867  0.3462
 1869TIP3   OH229801   6.585   4.463   8.783 -0.6216  0.0044 -0.1122
 1869TIP3    H129802   6.494   4.436   8.796 -1.2623  1.6075 -0.9979
 1869TIP3    H229803   6.600   4.529   8.852  0.7944 -2.1636  1.7883
 1870TIP3   OH229804   3.790   0.886   9.581 -0.8752  0.2008 -0.1053
 1870TIP3    H129805   3.769   0.859   9.671 -1.8392  1.4556  0.0704
 1870TIP3    H229806   3.752   0.817   9.527 -1.5634  0.1689  0.4054
 1871TIP3   OH229807   3.252   1.559   8.784 -0.2548  0.2993 -0.0484
 1871TIP3    H129808   3.199   1.481   8.768  0.5763 -0.2941  0.0208
 1871TIP3    H229809   3.234   1.581   8.875 -0.0244 -0.1950  0.1253
 1872TIP3   OH229810   2.706   2.799   9.067  0.1026  0.1319 -0.1687
 1872TIP3    H129811   2.720   2.719   9.118  0.3621 -0.3944 -1.0346
 1872TIP3    H229812   2.648   2.853   9.121  0.9504 -0.0893  1.0013
 1873TIP3   OH229813   1.241   1.692   9.380 -0.0177  0.0773  0.1059
 1873TIP3    H129814   1.261   1.656   9.466 -0.1354 -0.6657 -0.1681
 1873TIP3    H229815   1.197   1.775   9.398  1.7398  0.8969  0.7268
 1874TIP3   OH229816   3.997   1.472   8.547 -0.6016  0.0402  0.0017
 1874TIP3    H129817   3.964   1.458   8.636 -0.8499 -0.7934 -0.2078
 1874TIP3    H229818   3.923   1.448   8.490 -0.1947 -0.1993 -0.4369
 1875TIP3   OH229819   2.241   3.748   7.729  0.4206  0.0838 -0.0960
 1875TIP3    H129820   2.214   3.689   7.799  1.9158 -0.9973 -0.3706
 1875TIP3    H229821   2.304   3.807   7.771 -0.1179  0.6744 -0.1116
 1876TIP3   OH229822   1.710   3.807   8.656 -0.2867  0.3432 -0.7884
 1876TIP3    H129823   1.716   3.892   8.613 -0.3287  0.9827  0.4497
 1876TIP3    H229824   1.632   3.812   8.711  0.2359 -0.1550  0.0205
 1877TIP3   OH229825   2.859   2.621   7.287  0.3081 -0.1068 -0.3128
 1877TIP3    H129826   2.853   2.553   7.220 -2.7071  0.0407 -0.3272
 1877TIP3    H229827   2.782   2.607   7.342  1.2262  1.4770  1.5088
 1878TIP3   OH229828   6.287   0.217   7.089 -0.4223  0.5155  0.7167
 1878TIP3    H129829   6.263   0.133   7.049  0.1376  0.1000  1.2286
 1878TIP3    H229830   6.229   0.225   7.165  0.1566  0.1303  1.2103
 1879TIP3   OH229831   6.406   3.674   8.523  0.3739 -0.4181  0.1256
 1879TIP3    H129832   6.365   3.704   8.442  1.1740 -0.3755 -0.2734
 1879TIP3    H229833   6.348   3.605   8.556  1.2172 -2.1370 -1.7427
 1880TIP3   OH229834   2.317   3.307   9.382 -0.7907  0.8132 -0.0629
 1880TIP3    H129835   2.282   3.281   9.467 -0.3441  0.8782  0.1399
 1880TIP3    H229836   2.245   3.291   9.321 -1.3062  1.3183  0.4083
 1881TIP3   OH229837   4.061   1.722   7.805  0.2379  0.5537 -0.0465
 1881TIP3    H129838   3.998   1.788   7.776 -1.0888 -1.0231 -0.9314
 1881TIP3    H229839   4.134   1.730   7.744  0.2571  1.4253  0.0786
 1882TIP3   OH229840   6.433   2.987   8.947  0.6538 -0.3551  0.0024
 1882TIP3    H129841   6.459   3.079   8.953 -0.6817  0.1104 -0.6753
 1882TIP3    H229842   6.435   2.968   8.853 -2.8602  0.2440 -0.3407
 1883TIP3   OH229843   1.288   5.240   8.051  0.1702  0.0552  0.5325
 1883TIP3    H129844   1.371   5.244   8.097  0.3097  3.4007  0.2166
 1883TIP3    H229845   1.308   5.196   7.968  1.4351  0.1298  0.7869
 1884TIP3   OH229846   2.016   1.376   8.954 -0.7189 -0.5480 -0.6417
 1884TIP3    H129847   1.942   1.392   9.013 -1.5421 -1.0795 -1.5027
 1884TIP3    H229848   2.042   1.286   8.973 -0.4302 -0.4331 -0.4941
 1885TIP3   OH229849   0.656   1.027   9.363 -0.0590  0.1192 -0.4481
 1885TIP3    H129850   0.566   1.049   9.386  0.3013  0.0216  1.1658
 1885TIP3    H229851   0.649   0.945   9.314 -0.6423 -2.2210  3.1737
 1886TIP3   OH229852   0.464   5.207   7.581  0.5731  0.2261 -0.1428
 1886TIP3    H129853   0.539   5.202   7.521  0.5141 -2.3527 -0.1195
 1886TIP3    H229854   0.485   5.144   7.650 -1.4338 -0.2617  0.0730
 1887TIP3   OH229855   4.476   2.544   9.392 -0.3174  0.3725  0.4999
 1887TIP3    H129856   4.469   2.632   9.431  0.5720  0.0850  1.3367
 1887TIP3    H229857   4.396   2.500   9.421 -0.9797  1.0341 -0.2810
 1888TIP3   OH229858   6.617   3.567   9.050 -0.4409  0.0800 -0.3840
 1888TIP3    H129859   6.682   3.502   9.076 -0.6355 -0.6344 -1.6123
 1888TIP3    H229860   6.640   3.591   8.961 -0.3793  1.7284  0.0257
 1889TIP3   OH229861   0.233   3.694   9.141  0.1546  0.1426  0.3946
 1889TIP3    H129862   0.281   3.763   9.186  0.6802  1.5922 -2.1781
 1889TIP3    H229863   0.150   3.687   9.188  0.3910  2.0483  1.1537
 1890TIP3   OH229864   3.368   1.131   9.189 -0.2744 -0.1616  0.3610
 1890TIP3    H129865   3.452   1.176   9.178  0.9286 -2.3088  0.0569
 1890TIP3    H229866   3.360   1.075   9.111 -2.0131 -0.0074  0.3871
 1891TIP3   OH229867   5.710   4.949   8.030 -0.1727  0.0151 -0.2777
 1891TIP3    H129868   5.698   4.994   8.113 -0.6890  1.0748 -0.8936
 1891TIP3    H229869   5.633   4.893   8.021 -0.6612  0.7035 -0.5113
 1892TIP3   OH229870   5.748   2.155   9.033  1.0591 -0.4985 -0.1217
 1892TIP3    H129871   5.747   2.230   8.972  3.1321 -1.4914 -1.5009
 1892TIP3    H229872   5.661   2.116   9.025 -0.0033  1.5980  0.4770
 1893TIP3   OH229873   1.913   7.235   8.418 -0.3062 -0.0978  0.0585
 1893TIP3    H129874   1.939   7.262   8.330  0.8696 -0.2621  0.3374
 1893TIP3    H229875   1.817   7.230   8.415 -0.3310  0.7516 -0.9556
 1894TIP3   OH229876   2.419   4.529   8.646  0.3600 -0.0204 -0.1468
 1894TIP3    H129877   2.352   4.496   8.585 -0.1004 -0.6445  0.6655
 1894TIP3    H229878   2.493   4.469   8.634  0.1788 -0.2946  0.0636
 1895TIP3   OH229879   1.067   1.698   6.974  0.4610 -0.3306 -0.3551
 1895TIP3    H129880   1.148   1.749   6.968 -0.0981  0.7272  0.6732
 1895TIP3    H229881   1.009   1.751   7.030  0.0431 -2.3286  1.2415
 1896TIP3   OH229882   3.353   3.930   8.479  0.2991 -0.6963  0.0230
 1896TIP3    H129883   3.338   3.957   8.388 -1.3274 -2.1019 -0.1808
 1896TIP3    H229884   3.338   4.010   8.529 -1.3233 -0.4426 -0.7821
 1897TIP3   OH229885   3.070   3.471   8.482  0.1733 -0.3752  0.3330
 1897TIP3    H129886   3.026   3.518   8.412  0.3489 -0.0022  0.4689
 1897TIP3    H229887   3.095   3.539   8.545  1.2542 -0.5320  0.0938
 1898TIP3   OH229888   2.855   6.021   6.614 -0.1790  0.0935 -0.3019
 1898TIP3    H129889   2.769   6.007   6.654 -0.5276  1.9131 -0.3373
 1898TIP3    H229890   2.891   5.933   6.604 -1.0337 -0.5668  1.8934
 1899TIP3   OH229891   5.482   0.876   7.273 -0.1752  0.4719 -0.1188
 1899TIP3    H129892   5.393   0.909   7.285  0.0856  1.1286  0.0573
 1899TIP3    H229893   5.528   0.946   7.226  0.1991  0.0634 -0.3727
 1900TIP3   OH229894   1.279   6.838   8.516 -0.0491 -0.7289 -0.0923
 1900TIP3    H129895   1.261   6.799   8.430 -0.0520 -0.2590 -0.3099
 1900TIP3    H229896   1.253   6.930   8.506 -0.5350 -0.7906  0.5706
 1901TIP3   OH229897   6.867   2.598   7.045  0.3933 -0.0154  0.4519
 1901TIP3    H129898   6.850   2.574   6.954 -0.1056  1.0139  0.2547
 1901TIP3    H229899   6.818   2.534   7.097 -1.5502  0.9578 -0.0654
 1902TIP3   OH229900   2.264   2.661   9.078  0.1640  0.1058  0.1825
 1902TIP3    H129901   2.261   2.753   9.049 -1.9589  0.2430  0.6350
 1902TIP3    H229902   2.333   2.659   9.144 -0.3825  1.6251  0.8553
 1903TIP3   OH229903   1.313   5.227   9.027  0.1106  0.1289  0.1340
 1903TIP3    H129904   1.237   5.277   8.999  0.6814  1.3925  0.7566
 1903TIP3    H229905   1.373   5.229   8.952  0.3672  0.8921  0.3487
 1904TIP3   OH229906   6.006   6.320   8.280 -0.1549  0.1987  0.3610
 1904TIP3    H129907   6.061   6.278   8.347 -0.1932  0.4431  0.5473
 1904TIP3    H229908   6.068   6.371   8.227 -0.3969  1.9482  1.6741
 1905TIP3   OH229909   0.374   0.599   7.285 -0.3635 -0.2788 -0.3616
 1905TIP3    H129910   0.369   0.507   7.311 -0.5305 -0.8333 -2.2082
 1905TIP3    H229911   0.336   0.647   7.358  2.4837 -1.3640  2.0559
 1906TIP3   OH229912   1.056   7.045   7.695 -0.0282 -0.3527 -0.0965
 1906TIP3    H129913   1.039   7.086   7.610  0.1678 -0.8995 -0.4087
 1906TIP3    H229914   1.121   7.102   7.736 -0.2837  0.0347 -0.2184
 1907TIP3   OH229915   1.640   7.435   8.252  0.2438 -0.1372 -0.3446
 1907TIP3    H129916   1.567   7.496   8.253 -1.1496 -1.7013 -1.1418
 1907TIP3    H229917   1.628   7.382   8.332 -0.4669 -1.4187 -1.2600
 1908TIP3   OH229918   0.670   4.137   8.621  0.5883  0.4659 -0.4099
 1908TIP3    H129919   0.755   4.121   8.664  1.4826  2.0532 -1.4859
 1908TIP3    H229920   0.636   4.215   8.665 -0.6170 -0.4533  0.3710
 1909TIP3   OH229921   3.757   6.586   7.763  0.1973 -0.5399 -0.1761
 1909TIP3    H129922   3.783   6.624   7.847 -0.8542 -0.2324  0.0358
 1909TIP3    H229923   3.678   6.535   7.784 -0.6531  0.3311 -1.1286
 1910TIP3   OH229924   4.404   0.652   7.636  0.1746 -0.4717 -0.0720
 1910TIP3    H129925   4.351   0.671   7.713 -0.6673 -0.2573 -0.6927
 1910TIP3    H229926   4.450   0.571   7.658 -0.9918 -1.0835  0.1950
 1911TIP3   OH229927   4.110   3.233   9.111 -0.4937  0.0422 -0.6378
 1911TIP3    H129928   4.154   3.214   9.027  2.1230  0.2958  0.5795
 1911TIP3    H229929   4.178   3.219   9.177 -2.3794  0.2361  1.4468
 1912TIP3   OH229930   5.642   6.934   8.492  0.2621 -0.1370  0.7010
 1912TIP3    H129931   5.713   6.895   8.543  0.6949  0.0777  0.2719
 1912TIP3    H229932   5.685   6.968   8.413 -0.1558  0.8705  0.8943
 1913TIP3   OH229933   0.378   1.683   8.472  0.0419  0.2787  0.5405
 1913TIP3    H129934   0.342   1.632   8.545  0.8842  0.4790  1.1127
 1913TIP3    H229935   0.470   1.696   8.496  0.4371  0.0019 -0.7489
 1914TIP3   OH229936   4.172   0.395   9.365  0.2279  0.4322 -0.4683
 1914TIP3    H129937   4.190   0.469   9.424  0.8301 -1.1387  1.4491
 1914TIP3    H229938   4.087   0.363   9.394  0.2538 -0.0003 -0.8722
 1915TIP3   OH229939   4.088   1.709   9.455  0.0476 -0.1924  0.0945
 1915TIP3    H129940   4.047   1.622   9.449  0.9597 -0.5664 -1.5520
 1915TIP3    H229941   4.030   1.766   9.406  0.1227 -0.1553  0.0487
 1916TIP3   OH229942   2.246   5.761   7.840 -0.0604 -0.2457 -0.6111
 1916TIP3    H129943   2.340   5.773   7.826 -0.0368  0.2106 -0.1173
 1916TIP3    H229944   2.215   5.847   7.869 -0.7445 -0.2265 -1.3527
 1917TIP3   OH229945   2.080   0.592   7.063 -0.2282 -0.2712 -0.1090
 1917TIP3    H129946   2.045   0.648   6.994 -1.3274 -0.3413  0.3768
 1917TIP3    H229947   2.133   0.650   7.117 -0.5846  0.0958 -0.1532
 1918TIP3   OH229948   7.307   4.815   7.215 -0.3195 -0.2678 -0.0063
 1918TIP3    H129949   7.273   4.800   7.126 -1.4790 -0.4948  0.4490
 1918TIP3    H229950   7.333   4.728   7.245 -0.4856 -0.2840  0.0915
 1919TIP3   OH229951   2.526   7.435   7.959  0.3534  0.1299 -0.1267
 1919TIP3    H129952   2.566   7.490   8.026  3.4646 -0.8319 -1.0193
 1919TIP3    H229953   2.487   7.362   8.008  1.1449  0.2733  0.7422
 1920TIP3   OH229954   2.121   4.450   8.788 -0.4461 -0.0636 -0.2545
 1920TIP3    H129955   2.090   4.537   8.763 -0.7206 -0.2280 -0.4922
 1920TIP3    H229956   2.201   4.467   8.838 -0.3905  0.3144 -0.4669
 1921TIP3   OH229957   6.879   3.572   8.075 -0.0225  0.6148 -0.0136
 1921TIP3    H129958   6.841   3.504   8.132  0.8526  0.7984  0.8099
 1921TIP3    H229959   6.839   3.556   7.990  0.2243 -1.0129  0.1380
 1922TIP3   OH229960   2.277   7.085   8.825  0.2992  0.0978  0.2245
 1922TIP3    H129961   2.208   7.031   8.787  0.9117  0.5900 -1.6969
 1922TIP3    H229962   2.234   7.166   8.852  0.0531  0.2199 -0.5359
 1923TIP3   OH229963   4.694   0.009   7.934 -0.0062 -0.3768  0.2018
 1923TIP3    H129964   4.625  -0.055   7.913 -1.4455  1.1945 -0.1085
 1923TIP3    H229965   4.695   0.012   8.030  1.2637 -2.0402  0.2870
 1924TIP3   OH229966   7.538   7.384   8.595 -0.1509  0.0494 -0.1019
 1924TIP3    H129967   7.507   7.424   8.676 -1.4792 -0.9456 -0.0720
 1924TIP3    H229968   7.620   7.429   8.575  0.1121  0.4368  1.6817
 1925TIP3   OH229969   5.784   5.732   7.483 -0.5300  0.2407  0.1680
 1925TIP3    H129970   5.738   5.778   7.553  0.3158 -1.2088  1.7276
 1925TIP3    H229971   5.787   5.641   7.511  1.3926 -0.0807 -0.8992
 1926TIP3   OH229972   3.780   0.015   7.755  0.4626 -0.0002 -0.0661
 1926TIP3    H129973   3.858   0.069   7.745 -0.1814  0.9230 -0.2435
 1926TIP3    H229974   3.807  -0.057   7.812  1.0802  1.0284  0.9673
 1927TIP3   OH229975   3.598   0.864   8.130 -0.4908  0.5417 -0.1073
 1927TIP3    H129976   3.570   0.954   8.113  1.5804  0.9471 -1.7441
 1927TIP3    H229977   3.531   0.810   8.088 -0.4018  1.4002 -1.4094
 1928TIP3   OH229978   5.361   0.918   9.377  0.4183 -0.5822  0.0028
 1928TIP3    H129979   5.359   0.992   9.317  0.8772 -1.6878 -1.4304
 1928TIP3    H229980   5.304   0.852   9.337  0.6944 -1.3310  0.7970
 1929TIP3   OH229981   5.324   3.751   8.478 -0.4144  0.5287 -0.1624
 1929TIP3    H129982   5.407   3.725   8.437  0.1662  0.9478  0.7190
 1929TIP3    H229983   5.343   3.835   8.518 -0.9412  0.0984  1.0199
 1930TIP3   OH229984   7.221   5.044   7.678  0.1358  0.5755  0.1618
 1930TIP3    H129985   7.178   5.028   7.761  0.5335  0.7315  0.4023
 1930TIP3    H229986   7.315   5.046   7.699  0.2585  0.3333 -0.3313
 1931TIP3   OH229987   4.776   1.100   6.951 -0.0820 -0.3421 -0.0330
 1931TIP3    H129988   4.774   1.009   6.921 -0.1699 -0.6261  0.8155
 1931TIP3    H229989   4.859   1.134   6.918  0.8364 -1.2878  1.1897
 1932TIP3   OH229990   3.744   1.097   7.814 -0.3921 -0.1472  0.1990
 1932TIP3    H129991   3.717   1.132   7.729 -0.8264  0.3226  0.5323
 1932TIP3    H229992   3.799   1.165   7.853 -0.2528 -0.3322  0.3335
 1933TIP3   OH229993   1.544   7.199   7.854 -0.0016 -0.1386 -0.3445
 1933TIP3    H129994   1.520   7.291   7.838  0.9494  0.2409  0.3453
 1933TIP3    H229995   1.630   7.189   7.814  0.3320 -0.4538  0.4378
 1934TIP3   OH229996   5.904   1.958   8.497  0.2713 -0.3599  0.1009
 1934TIP3    H129997   5.815   1.922   8.497  0.2852 -0.4725  1.9868
 1934TIP3    H229998   5.956   1.891   8.452 -0.3132 -1.0518  0.4364
 1935TIP3   OH229999   2.829   1.951   8.362 -0.0029 -0.0157 -0.0976
 1935TIP3    H130000   2.780   1.994   8.432 -0.9986 -0.0046 -0.7886
 1935TIP3    H230001   2.885   1.888   8.408 -1.0768 -0.4346  0.6745
 1936TIP3   OH230002   5.998   1.162   7.871  0.0073  0.1350 -0.3904
 1936TIP3    H130003   6.035   1.080   7.903  0.0119  0.2893  0.0037
 1936TIP3    H230004   6.014   1.160   7.776  0.2557 -0.1883 -0.3434
 1937TIP3   OH230005   4.167   5.972   7.242 -0.6100 -0.7175 -0.1841
 1937TIP3    H130006   4.181   5.892   7.292  0.3364 -0.3256  0.1973
 1937TIP3    H230007   4.201   5.952   7.154  0.0910 -0.5758  0.0509
 1938TIP3   OH230008   3.075   5.451   7.727  0.5662 -0.0225 -0.1415
 1938TIP3    H130009   3.074   5.450   7.823  0.9626  1.2885 -0.1034
 1938TIP3    H230010   3.159   5.412   7.703 -0.3375 -2.2113 -0.0553
 1939TIP3   OH230011   3.724   5.245   7.434 -0.6468  0.7841 -0.2093
 1939TIP3    H130012   3.683   5.206   7.512  0.3503 -1.0654 -0.5522
 1939TIP3    H230013   3.667   5.219   7.362 -0.0984  0.1353 -0.4137
 1940TIP3   OH230014   1.639   5.734   8.439  0.6983  0.0599 -0.6090
 1940TIP3    H130015   1.615   5.680   8.515  0.3665  1.3334  0.2122
 1940TIP3    H230016   1.558   5.743   8.389  0.5324  0.5441 -0.2609
 1941TIP3   OH230017   2.263   2.960   9.254  0.2416  0.0102  0.2425
 1941TIP3    H130018   2.199   3.024   9.284  1.7537  0.8430  1.8812
 1941TIP3    H230019   2.279   2.905   9.331  0.9486 -0.6362 -0.3464
 1942TIP3   OH230020   6.247   7.652   7.366  0.0921  0.0806  0.2693
 1942TIP3    H130021   6.203   7.617   7.289  1.0067  0.0733 -0.2688
 1942TIP3    H230022   6.177   7.682   7.423 -0.5948  0.1160 -0.5854
 1943TIP3   OH230023   0.834   4.408   9.340 -0.3468 -0.0900  0.0446
 1943TIP3    H130024   0.876   4.384   9.258  0.7460 -0.7315  0.7610
 1943TIP3    H230025   0.895   4.378   9.408 -0.5268  1.7214  1.0794
 1944TIP3   OH230026   5.135   7.656   9.512 -0.1172 -0.1356 -0.1955
 1944TIP3    H130027   5.061   7.658   9.572  1.2488  0.1196  1.5630
 1944TIP3    H230028   5.119   7.727   9.450 -1.0635  0.2508  0.4800
 1945TIP3   OH230029   3.224   1.005   7.363 -0.3454  0.5097 -0.3579
 1945TIP3    H130030   3.190   0.932   7.415 -1.4643  0.3848 -1.2301
 1945TIP3    H230031   3.200   1.083   7.413  1.1296  0.3035  0.7369
 1946TIP3   OH230032   2.758   5.075   8.576  0.5973 -0.6869  0.2500
 1946TIP3    H130033   2.791   5.155   8.535  0.7453 -0.6303  0.4730
 1946TIP3    H230034   2.665   5.072   8.554  0.3783  0.0348  1.0075
 1947TIP3   OH230035   6.264   1.936   7.852  0.2531 -0.5871 -0.4317
 1947TIP3    H130036   6.189   1.995   7.853 -0.0882 -1.0108 -0.3530
 1947TIP3    H230037   6.323   1.972   7.786  1.0195  1.0066  1.0533
 1948TIP3   OH230038   4.745   0.441   7.394 -0.0903  0.8410 -0.3071
 1948TIP3    H130039   4.835   0.469   7.379  0.2107 -0.4691 -1.0472
 1948TIP3    H230040   4.712   0.416   7.308  0.0999 -2.2417  0.3970
 1949TIP3   OH230041   7.648   7.147   9.216  0.1009  0.9129 -0.3846
 1949TIP3    H130042   7.558   7.178   9.213  0.0563  1.1731  1.8130
 1949TIP3    H230043   7.700   7.218   9.179 -0.2476  2.6716  2.2596
 1950TIP3   OH230044   2.377   5.285   6.981  0.4278 -0.2615  0.1867
 1950TIP3    H130045   2.319   5.355   7.009  1.3276  0.2341  0.8830
 1950TIP3    H230046   2.319   5.215   6.951 -0.5310  1.4510 -2.3179
 1951TIP3   OH230047   3.316   4.023   8.850  0.3177 -0.3155  0.1061
 1951TIP3    H130048   3.358   4.076   8.783  0.2564 -1.4477 -0.8686
 1951TIP3    H230049   3.386   3.970   8.886  0.2126 -0.2557  0.4000
 1952TIP3   OH230050   1.608   1.486   9.124 -0.1086 -0.7042  0.0559
 1952TIP3    H130051   1.562   1.472   9.207 -0.7557 -1.4154 -0.4080
 1952TIP3    H230052   1.646   1.573   9.132 -0.5353 -0.5879  0.9301
 1953TIP3   OH230053   6.161   6.856   7.063  0.1887 -0.0076  0.5553
 1953TIP3    H130054   6.161   6.806   6.981  0.2867  1.3554 -0.3029
 1953TIP3    H230055   6.235   6.822   7.112 -1.0830 -2.3057  1.0359
 1954TIP3   OH230056   1.449   4.477   8.406 -0.2000  0.0066  0.3054
 1954TIP3    H130057   1.358   4.498   8.428  0.0099 -0.4679  1.7334
 1954TIP3    H230058   1.489   4.456   8.490  1.6695  1.8279 -0.0418
 1955TIP3   OH230059   5.386   4.993   8.135 -0.2273  0.1136 -0.3639
 1955TIP3    H130060   5.391   5.038   8.050  0.2505  1.2971  0.2615
 1955TIP3    H230061   5.307   5.027   8.176 -1.5795 -1.9446 -1.1001
 1956TIP3   OH230062   0.255   5.341   8.211 -0.1028  0.1656 -0.3755
 1956TIP3    H130063   0.260   5.436   8.211  0.1137  0.1554 -0.6082
 1956TIP3    H230064   0.163   5.321   8.198 -0.5358  0.3571  1.9610
 1957TIP3   OH230065   2.516   1.159   8.819  0.5482  0.5277 -0.4169
 1957TIP3    H130066   2.448   1.220   8.846  0.5136  0.3171 -0.0319
 1957TIP3    H230067   2.491   1.075   8.856  1.7425  0.7356  0.9594
 1958TIP3   OH230068   7.264   6.253   8.015  0.0320  0.1465 -0.3090
 1958TIP3    H130069   7.216   6.176   7.987  1.0162 -0.6840  0.1913
 1958TIP3    H230070   7.329   6.267   7.946  1.3618 -0.8948  0.6769
 1959TIP3   OH230071   2.435   2.247   8.773  0.2219  0.0346  0.2562
 1959TIP3    H130072   2.377   2.279   8.843 -2.4635 -2.5935 -0.5812
 1959TIP3    H230073   2.482   2.174   8.813  0.1560 -0.2125 -0.1212
 1960TIP3   OH230074   5.783   0.300   8.978 -0.3449  0.6063 -0.3772
 1960TIP3    H130075   5.803   0.355   9.054  1.2636  1.1744 -1.1642
 1960TIP3    H230076   5.858   0.312   8.920 -1.2375 -0.3257 -1.7726
 1961TIP3   OH230077   7.021   2.007   8.583 -0.3254  0.1358 -0.0373
 1961TIP3    H130078   7.067   1.999   8.667 -0.7063 -1.4315  0.0637
 1961TIP3    H230079   6.929   2.014   8.607 -0.4851 -0.8209 -0.3098
 1962TIP3   OH230080   7.392   6.145   7.632  0.1000  0.1013 -0.2482
 1962TIP3    H130081   7.329   6.082   7.665  1.3765  0.3813  3.1519
 1962TIP3    H230082   7.398   6.127   7.538 -1.6335 -2.9042  0.1010
 1963TIP3   OH230083   1.241   6.981   8.084 -0.3380  0.3292 -0.2091
 1963TIP3    H130084   1.150   7.004   8.100 -0.5073 -0.5789  0.1778
 1963TIP3    H230085   1.254   6.899   8.132  0.7791  0.6293  0.0232
 1964TIP3   OH230086   0.363   0.832   8.167  0.1317 -0.6072 -0.6104
 1964TIP3    H130087   0.415   0.756   8.193  0.3976  0.3239  1.8756
 1964TIP3    H230088   0.273   0.808   8.188  0.1235 -0.5527 -0.5812
 1965TIP3   OH230089   7.484   2.138   8.194  0.2705  0.0936 -0.0179
 1965TIP3    H130090   7.417   2.083   8.153 -0.3329 -1.2114  2.5364
 1965TIP3    H230091   7.434   2.203   8.244  0.9551  0.5758  0.0463
 1966TIP3   OH230092   3.943   6.230   6.918 -0.5110 -0.6757  0.5509
 1966TIP3    H130093   3.981   6.292   6.981 -1.1395  0.0096  0.2690
 1966TIP3    H230094   3.993   6.242   6.838  0.3007 -1.5614  0.9137
 1967TIP3   OH230095   3.129   6.044   7.978  0.5496 -0.1380 -0.3265
 1967TIP3    H130096   3.073   6.020   7.904 -1.4311 -0.7952  1.2950
 1967TIP3    H230097   3.079   6.018   8.055  1.6777  2.2907  1.3332
 1968TIP3   OH230098   4.346   4.441   8.210  0.4125  0.2685  0.2577
 1968TIP3    H130099   4.412   4.372   8.205 -1.0771 -1.3327  1.3730
 1968TIP3    H230100   4.294   4.431   8.131 -0.9153 -1.1534  1.2554
 1969TIP3   OH230101   5.939   2.902   9.075  0.2509  0.3097  0.0834
 1969TIP3    H130102   6.012   2.862   9.027  0.7559  0.6065  0.5891
 1969TIP3    H230103   5.944   2.995   9.052 -1.1257  0.0680 -1.3586
 1970TIP3   OH230104   5.061   6.538   8.843 -0.4784  0.0517 -0.0490
 1970TIP3    H130105   5.094   6.522   8.931  0.4500 -0.5584 -0.4851
 1970TIP3    H230106   4.986   6.479   8.834  0.4790 -1.1923 -0.2412
 1971TIP3   OH230107   0.641   4.668   8.580 -0.0319 -0.0035  0.3294
 1971TIP3    H130108   0.733   4.671   8.552  0.0367  0.3588  0.5938
 1971TIP3    H230109   0.597   4.618   8.511  0.6207 -1.4396  0.8929
 1972TIP3   OH230110   1.021   2.049   7.120  0.2024 -0.6851  0.3963
 1972TIP3    H130111   1.109   2.012   7.134 -0.2733 -1.2704  2.1783
 1972TIP3    H230112   1.034   2.144   7.122  1.1501 -0.6815 -2.1824
 1973TIP3   OH230113   5.106   4.846   9.175 -0.0366 -0.4061 -0.4782
 1973TIP3    H130114   5.126   4.940   9.171 -0.9096 -0.1826  0.0520
 1973TIP3    H230115   5.183   4.807   9.215  0.6925 -0.0367 -1.5071
 1974TIP3   OH230116   1.282   6.320   8.346 -0.8028 -0.7733 -0.2818
 1974TIP3    H130117   1.190   6.325   8.320 -0.3573  1.6338 -1.6607
 1974TIP3    H230118   1.286   6.367   8.429 -0.6455  0.1691 -0.8143
 1975TIP3   OH230119   5.959   6.959   9.154  0.0897  0.5943  0.2141
 1975TIP3    H130120   6.003   6.894   9.100 -0.7631  0.4332 -0.3026
 1975TIP3    H230121   6.027   7.024   9.174  0.5329  0.4008 -0.6420
 1976TIP3   OH230122   5.596   0.934   9.267 -0.4634  0.3121 -0.0129
 1976TIP3    H130123   5.567   1.013   9.221  1.5274  0.6584 -0.7972
 1976TIP3    H230124   5.525   0.914   9.328 -1.9168  1.5148 -1.2226
 1977TIP3   OH230125   6.479   1.949   8.035  0.1777 -0.6533 -0.4123
 1977TIP3    H130126   6.406   1.932   7.977 -1.3514  0.4537  1.0916
 1977TIP3    H230127   6.555   1.956   7.977 -1.4292  1.4798 -2.4279
 1978TIP3   OH230128   0.066   3.812   9.627 -0.1903 -0.0085 -0.7290
 1978TIP3    H130129   0.100   3.896   9.596  0.7699 -0.2253 -0.3123
 1978TIP3    H230130   0.017   3.777   9.552 -0.8871  1.0614 -0.7964
 1979TIP3   OH230131   0.275   3.800   8.364 -0.5653  0.2929 -0.2913
 1979TIP3    H130132   0.297   3.720   8.317 -2.1767 -1.0171  1.0265
 1979TIP3    H230133   0.306   3.784   8.454 -2.5910  0.2657  0.4675
 1980TIP3   OH230134   1.462   4.123   8.134  0.2689  0.6866  0.0906
 1980TIP3    H130135   1.492   4.181   8.064 -1.5220 -0.2428 -1.5273
 1980TIP3    H230136   1.504   4.039   8.116 -0.2503  0.4226  0.0929
 1981TIP3   OH230137   2.112   4.871   6.531  0.2644 -0.1367 -0.4526
 1981TIP3    H130138   2.077   4.960   6.543 -0.4449 -0.4839  0.0848
 1981TIP3    H230139   2.095   4.826   6.613  0.0838 -0.9554 -0.9244
 1982TIP3   OH230140   7.649   3.795   9.047  0.3415 -0.0436  0.4727
 1982TIP3    H130141   7.712   3.858   9.012  0.2976 -0.4928 -0.4584
 1982TIP3    H230142   7.581   3.790   8.980 -0.0556 -0.4944  0.9018
 1983TIP3   OH230143   0.574   4.173   8.180  0.3403  0.3410 -0.8978
 1983TIP3    H130144   0.507   4.186   8.112 -0.4942  0.3187 -0.0890
 1983TIP3    H230145   0.656   4.199   8.137 -0.0289 -0.5172 -2.2078
 1984TIP3   OH230146   1.567   0.341   7.268 -0.1027  0.3312  0.2166
 1984TIP3    H130147   1.581   0.424   7.315 -0.7915  0.1664  0.7331
 1984TIP3    H230148   1.476   0.345   7.240 -0.0878 -0.1832  0.0942
 1985TIP3   OH230149   5.228   6.061   7.597  0.2873  0.3768 -0.5946
 1985TIP3    H130150   5.148   6.046   7.648  0.4220 -2.3974 -1.0336
 1985TIP3    H230151   5.211   6.016   7.514  1.9805  0.4438 -1.0103
 1986TIP3   OH230152   5.842   5.296   8.642 -0.5478 -0.3884  0.2581
 1986TIP3    H130153   5.786   5.252   8.706 -3.0743 -0.1131 -1.5802
 1986TIP3    H230154   5.907   5.343   8.694 -0.3882 -2.7996  2.4307
 1987TIP3   OH230155   1.365   3.194   8.090  0.2327  0.5500  0.4200
 1987TIP3    H130156   1.452   3.202   8.129  0.4046 -0.4521  0.2622
 1987TIP3    H230157   1.317   3.137   8.150  0.0780  0.0895 -0.1353
 1988TIP3   OH230158   2.372   5.318   7.877  0.5849 -0.1418 -0.4208
 1988TIP3    H130159   2.448   5.262   7.893  0.8117  0.1553 -0.4690
 1988TIP3    H230160   2.305   5.286   7.938  1.3297  0.7723  0.9150
 1989TIP3   OH230161   4.752   2.406   9.360 -0.0318  0.2633 -0.3729
 1989TIP3    H130162   4.805   2.420   9.282  1.2783 -1.0517  0.2268
 1989TIP3    H230163   4.680   2.468   9.352  0.7945  1.0722 -1.9561
 1990TIP3   OH230164   1.788   1.289   9.505  0.0980  0.3550 -0.2049
 1990TIP3    H130165   1.717   1.324   9.559  0.1022  0.0419  0.0099
 1990TIP3    H230166   1.848   1.362   9.494 -0.3667  0.6873 -0.5718
 1991TIP3   OH230167   4.369   2.030   8.688  0.3368 -0.6242  0.2790
 1991TIP3    H130168   4.397   2.075   8.608  1.0083  0.4852  1.1064
 1991TIP3    H230169   4.286   2.073   8.711  0.5606 -0.3668  0.6189
 1992TIP3   OH230170   4.777   5.541   9.302 -0.8564  0.3110 -0.0394
 1992TIP3    H130171   4.789   5.608   9.369  0.7801  0.4076 -0.3788
 1992TIP3    H230172   4.717   5.477   9.342 -1.0610  1.0993  0.9446
 1993TIP3   OH230173   6.449   7.030   9.245 -0.0872  0.2823  0.7418
 1993TIP3    H130174   6.361   7.021   9.281  0.3050 -1.8691  1.2545
 1993TIP3    H230175   6.461   7.125   9.236 -3.3828  0.6560 -1.7222
 1994TIP3   OH230176   6.308   4.225   7.542 -0.6609 -0.6470 -0.0316
 1994TIP3    H130177   6.217   4.253   7.535 -0.7521 -1.0299 -0.3797
 1994TIP3    H230178   6.332   4.247   7.632 -0.7753  0.4012 -0.2397
 1995TIP3   OH230179   2.421   3.560   8.361 -0.2770 -0.0145 -0.6991
 1995TIP3    H130180   2.463   3.643   8.384 -1.3469  1.1055 -2.4685
 1995TIP3    H230181   2.492   3.497   8.358  0.3529  0.4269  2.2544
 1996TIP3   OH230182   6.184   3.909   9.147  0.4420  0.2382  0.0107
 1996TIP3    H130183   6.255   3.851   9.120  0.1485  1.0866 -2.9236
 1996TIP3    H230184   6.140   3.861   9.218  1.9137 -1.7970 -0.3624
 1997TIP3   OH230185   4.065   3.611   9.146 -0.2968  0.1593 -0.0711
 1997TIP3    H130186   4.002   3.546   9.177 -1.2964  1.1051 -0.0810
 1997TIP3    H230187   4.090   3.580   9.059 -1.4068  0.2121 -0.4191
 1998TIP3   OH230188   4.193   5.353   8.784 -0.4964 -0.0085 -0.1965
 1998TIP3    H130189   4.180   5.263   8.813  0.6942 -0.0107  0.4041
 1998TIP3    H230190   4.206   5.402   8.865  0.4391  0.4172 -0.5966
 1999TIP3   OH230191   1.646   0.608   8.304  0.0513  0.6724  0.4180
 1999TIP3    H130192   1.705   0.589   8.377 -1.3259 -0.8762  1.1754
 1999TIP3    H230193   1.591   0.680   8.337  0.4658  1.0452  0.3038
 2000TIP3   OH230194   0.899   7.352   7.479  0.0699 -0.2716  0.0974
 2000TIP3    H130195   0.935   7.402   7.406  1.1479  0.7189  1.2543
 2000TIP3    H230196   0.909   7.260   7.453  0.9091  0.0542 -0.7792
 2001TIP3   OH230197   1.694   7.152   7.283  0.2775 -0.2191  0.2832
 2001TIP3    H130198   1.706   7.223   7.220 -0.7858  0.4605  0.8341
 2001TIP3    H230199   1.633   7.092   7.240  0.6125 -0.4437  0.1159
 2002TIP3   OH230200   5.076   4.729   7.233 -0.2144 -0.1451  0.2514
 2002TIP3    H130201   5.114   4.649   7.270  0.4589  0.7871  1.6864
 2002TIP3    H230202   5.146   4.766   7.179  0.2282  0.5178  1.2519
 2003TIP3   OH230203   6.229   1.481   7.934  0.6653 -0.3451 -0.5256
 2003TIP3    H130204   6.238   1.565   7.978 -0.7376 -0.7316  0.5656
 2003TIP3    H230205   6.134   1.471   7.920  0.4289 -2.9580  1.9443
 2004TIP3   OH230206   6.259   2.756   7.655  0.0831  0.1313 -0.2256
 2004TIP3    H130207   6.281   2.761   7.748  1.9496 -0.0218 -0.6274
 2004TIP3    H230208   6.175   2.801   7.648 -0.7482 -0.9697  1.7307
 2005TIP3   OH230209   5.235   2.400   7.410  0.4780  0.3003  0.4417
 2005TIP3    H130210   5.153   2.352   7.414  0.5036  0.0269 -1.3010
 2005TIP3    H230211   5.215   2.480   7.362  1.2239  0.1862 -0.0937
 2006TIP3   OH230212   7.281   2.837   7.631 -0.1959  0.1840  0.4073
 2006TIP3    H130213   7.376   2.844   7.638 -0.3312  1.1272  1.7058
 2006TIP3    H230214   7.249   2.927   7.639 -1.1571  0.0306 -1.2489
 2007TIP3   OH230215   1.737   3.221   9.237 -0.0669  0.1894  0.2763
 2007TIP3    H130216   1.730   3.130   9.265  3.0626 -0.9042 -1.9748
 2007TIP3    H230217   1.660   3.235   9.181 -0.8188 -0.9155  1.0046
 2008TIP3   OH230218   1.173   4.873   7.184 -0.0994 -0.3565  0.0542
 2008TIP3    H130219   1.252   4.926   7.198  0.0894 -0.4968 -0.4634
 2008TIP3    H230220   1.110   4.935   7.147  0.4790 -0.7237 -1.6068
 2009TIP3   OH230221   1.179   2.283   9.326 -0.1551  0.1104  0.5896
 2009TIP3    H130222   1.185   2.302   9.232  0.4575 -0.9830  0.3862
 2009TIP3    H230223   1.123   2.352   9.361 -1.8378 -0.4260 -0.8878
 2010TIP3   OH230224   1.010   6.260   7.098  0.2397 -0.2959  0.1083
 2010TIP3    H130225   1.060   6.182   7.122 -0.5501 -0.7228  0.4106
 2010TIP3    H230226   0.946   6.229   7.034  0.4909  0.2869 -0.4387
 2011TIP3   OH230227   4.289   2.156   9.510  0.7009  0.2798  0.6236
 2011TIP3    H130228   4.269   2.250   9.513 -1.0313 -0.0955  2.4541
 2011TIP3    H230229   4.375   2.152   9.468 -0.4811  2.4474 -2.3926
 2012TIP3   OH230230   2.729   3.344   9.112 -0.0750 -0.0146 -0.0686
 2012TIP3    H130231   2.761   3.256   9.092 -0.7348 -0.3037  0.1289
 2012TIP3    H230232   2.758   3.398   9.038  1.2330 -0.1744  0.3059
 2013TIP3   OH230233   5.775   7.677   8.665 -0.0792 -0.2556 -0.3530
 2013TIP3    H130234   5.821   7.621   8.603  2.2780  0.4277  0.7020
 2013TIP3    H230235   5.768   7.625   8.745 -0.2552  0.0255 -0.1813
 2014TIP3   OH230236   5.786   3.386   7.909 -0.2941  0.0941 -0.3740
 2014TIP3    H130237   5.771   3.480   7.904 -0.0960  0.1343 -0.2220
 2014TIP3    H230238   5.863   3.371   7.854  1.0543  0.3443  1.3877
 2015TIP3   OH230239   0.709   0.719   7.439  0.3312 -0.0435  0.4385
 2015TIP3    H130240   0.730   0.638   7.486 -0.2384  0.3399  1.3869
 2015TIP3    H230241   0.646   0.764   7.496  0.2788  0.8436 -0.2996
 2016TIP3   OH230242   3.640   3.831   8.008  0.2680  0.3285  0.9134
 2016TIP3    H130243   3.700   3.878   7.951 -2.2090  1.6723 -0.7935
 2016TIP3    H230244   3.664   3.739   7.997  1.9796  0.8066  0.3137
 2017TIP3   OH230245   0.336   5.968   6.837  0.0472  0.2482 -0.1712
 2017TIP3    H130246   0.414   5.971   6.891 -0.2118  0.5728  0.1893
 2017TIP3    H230247   0.311   5.876   6.835  0.2034  0.2014  0.0451
 2018TIP3   OH230248   1.380   4.850   8.938 -0.1728 -0.6125  0.1195
 2018TIP3    H130249   1.424   4.915   8.992 -0.0702 -0.5155 -0.0785
 2018TIP3    H230250   1.371   4.892   8.852  0.2873 -1.0144 -0.1346
 2019TIP3   OH230251   0.791   7.312   8.713  0.3187  0.2611 -0.0752
 2019TIP3    H130252   0.736   7.310   8.791  0.6242 -1.6561  0.1358
 2019TIP3    H230253   0.730   7.328   8.641 -0.2100  0.3101  0.3782
 2020TIP3   OH230254   3.936   1.857   9.245 -0.1919 -0.0798  0.5131
 2020TIP3    H130255   3.968   1.926   9.303 -0.1893 -0.2965  0.7749
 2020TIP3    H230256   3.841   1.865   9.248 -0.1930 -0.1114  0.5775
 2021TIP3   OH230257   1.708   3.302   9.705 -0.0884  0.1168  0.0513
 2021TIP3    H130258   1.801   3.280   9.711  0.1249  0.3963 -1.6067
 2021TIP3    H230259   1.663   3.217   9.704  0.2240 -0.0492  0.0038
 2022TIP3   OH230260   3.588   2.360   9.450 -0.5693  0.0367  0.4020
 2022TIP3    H130261   3.559   2.397   9.534  1.6571  1.1038  0.7905
 2022TIP3    H230262   3.647   2.288   9.474 -0.6597 -0.2621 -0.2545
 2023TIP3   OH230263   4.762   4.760   7.209 -0.4493 -0.1548  0.2904
 2023TIP3    H130264   4.717   4.794   7.132 -0.9673  0.2612  0.7664
 2023TIP3    H230265   4.703   4.692   7.242  0.0880 -0.7961 -0.0572
 2024TIP3   OH230266   0.385   1.902   9.290  0.7344  0.4667 -0.7478
 2024TIP3    H130267   0.439   1.922   9.213 -0.5458 -1.2522 -2.1637
 2024TIP3    H230268   0.314   1.848   9.256 -0.8156  1.0323  1.3921
 2025TIP3   OH230269   1.184   4.515   7.131 -0.5045 -0.3006  0.1616
 2025TIP3    H130270   1.163   4.449   7.197 -3.3299  0.9508  0.6674
 2025TIP3    H230271   1.256   4.565   7.169 -1.5443 -0.1136  2.0387
 2026TIP3   OH230272   3.203   2.258   8.996 -0.6127 -0.1869  0.4409
 2026TIP3    H130273   3.273   2.310   9.035  0.0212 -0.5564 -0.1801
 2026TIP3    H230274   3.248   2.192   8.944 -1.4265  0.8255 -1.6386
 2027TIP3   OH230275   2.398   3.516   7.611  0.5450 -0.1147  0.5480
 2027TIP3    H130276   2.399   3.487   7.520  0.0888  0.4495  0.3566
 2027TIP3    H230277   2.320   3.571   7.618  1.5800  1.3850  0.7915
 2028TIP3   OH230278   3.041   4.928   7.734  0.5771  0.2644  0.0885
 2028TIP3    H130279   3.011   4.884   7.654 -0.8631  1.1124  0.1320
 2028TIP3    H230280   3.067   5.015   7.705 -0.5001  0.7765  0.6037
 2029TIP3   OH230281   7.104   2.314   8.947 -0.7032 -0.3332 -0.1995
 2029TIP3    H130282   7.053   2.234   8.936 -0.1774 -0.8592  1.0455
 2029TIP3    H230283   7.156   2.299   9.026  1.0754  0.3465 -1.1878
 2030TIP3   OH230284   0.093   6.464   7.182 -0.1593  0.3708 -0.2674
 2030TIP3    H130285   0.134   6.485   7.098  1.7840 -0.3764  0.4304
 2030TIP3    H230286   0.164   6.425   7.234 -1.6765 -0.5671  1.1965
 2031TIP3   OH230287   3.072   2.752   9.163  0.0191 -0.4389  0.1173
 2031TIP3    H130288   3.058   2.798   9.080 -0.5801 -0.7483  0.0406
 2031TIP3    H230289   3.162   2.721   9.158  0.3140  0.4064  0.0130
 2032TIP3   OH230290   5.981   7.049   7.104 -0.0154 -0.5553 -0.3149
 2032TIP3    H130291   6.045   6.978   7.108  1.1262  0.2878 -2.3967
 2032TIP3    H230292   5.978   7.074   7.012 -1.1846  1.3946  0.1926
 2033TIP3   OH230293   3.559   2.036   8.047  0.3233  0.3379 -0.0081
 2033TIP3    H130294   3.644   2.003   8.078 -0.2281 -1.1610 -0.0181
 2033TIP3    H230295   3.502   2.031   8.124 -0.1899 -0.2597 -0.4217
 2034TIP3   OH230296   3.592   0.298   7.785  0.0616 -0.5891  1.0785
 2034TIP3    H130297   3.507   0.319   7.746  0.5041 -3.5944 -1.9399
 2034TIP3    H230298   3.575   0.221   7.839  0.8319 -1.1842  0.4889
 2035TIP3   OH230299   1.589   4.783   9.457 -0.1808  0.2519  0.1283
 2035TIP3    H130300   1.592   4.761   9.364  0.1289  2.0386 -0.3271
 2035TIP3    H230301   1.561   4.703   9.500  0.4848 -0.8619 -1.4171
 2036TIP3   OH230302   7.506   3.176   7.428 -0.7412 -0.1001  0.6724
 2036TIP3    H130303   7.572   3.229   7.383  0.3344 -2.4486 -0.7169
 2036TIP3    H230304   7.423   3.221   7.411  0.2040  1.5547  0.2607
 2037TIP3   OH230305   2.691   1.368   8.292 -0.4078  0.1207 -0.4542
 2037TIP3    H130306   2.649   1.289   8.327 -0.5594 -0.1458 -1.2246
 2037TIP3    H230307   2.726   1.412   8.369 -0.5009 -0.5972  0.0094
 2038TIP3   OH230308   1.953   0.839   7.971  1.1189 -0.0544 -0.0039
 2038TIP3    H130309   1.992   0.791   8.044  0.7047  1.2997  1.1539
 2038TIP3    H230310   1.861   0.813   7.971  1.4432 -1.3467 -1.1643
 2039TIP3   OH230311   0.369   2.375   8.309 -0.8328  0.0301  0.2308
 2039TIP3    H130312   0.353   2.330   8.392 -1.4886 -1.5744 -0.7372
 2039TIP3    H230313   0.391   2.306   8.247 -0.5643  1.1736 -1.0088
 2040TIP3   OH230314   0.816   5.191   8.746 -0.4716 -0.3423 -0.5803
 2040TIP3    H130315   0.852   5.111   8.707  1.5019 -0.5289  1.4187
 2040TIP3    H230316   0.862   5.262   8.702 -0.1912 -0.4475 -0.4637
 2041TIP3   OH230317   1.286   7.399   8.493  0.3633  0.2668  0.4505
 2041TIP3    H130318   1.195   7.402   8.524  0.1820 -0.7381  0.0336
 2041TIP3    H230319   1.338   7.424   8.569 -0.3077  1.9508  0.4069
 2042TIP3   OH230320   2.109   2.019   7.702  0.2387  0.0023 -0.0918
 2042TIP3    H130321   2.127   2.112   7.684  1.5241 -0.3048 -0.5405
 2042TIP3    H230322   2.016   2.008   7.683  0.2574  1.0237 -0.8531
 2043TIP3   OH230323   5.446   0.960   8.969  0.2343  0.2797  0.2374
 2043TIP3    H130324   5.451   1.043   9.018 -0.0159  0.9716 -0.8662
 2043TIP3    H230325   5.353   0.946   8.956  0.2081 -0.8079  1.4119
 2044TIP3   OH230326   2.531   1.916   9.367 -0.2600 -0.8636 -0.3969
 2044TIP3    H130327   2.482   1.962   9.299 -1.9599 -0.3697  1.0846
 2044TIP3    H230328   2.520   1.970   9.445  0.4485 -2.1356  0.6171
 2045TIP3   OH230329   0.655   5.846   8.378 -0.3186 -0.3804  0.0928
 2045TIP3    H130330   0.643   5.916   8.442  0.0708  0.2060 -0.4595
 2045TIP3    H230331   0.746   5.818   8.391  0.4726  1.1659 -1.5535
 2046TIP3   OH230332   1.262   5.596   7.979 -0.0327  0.1885  0.2942
 2046TIP3    H130333   1.235   5.570   7.891  0.2780  2.8287 -0.6775
 2046TIP3    H230334   1.357   5.591   7.978 -0.0397 -0.0750  0.6101
 2047TIP3   OH230335   0.237   3.636   8.880 -0.1199 -0.4146 -0.1794
 2047TIP3    H130336   0.292   3.710   8.853 -0.1580 -0.3226 -0.0060
 2047TIP3    H230337   0.208   3.659   8.968 -0.3552 -0.5094 -0.2330
 2048TIP3   OH230338   4.494   2.856   8.549 -0.0859  0.3091 -0.7674
 2048TIP3    H130339   4.470   2.941   8.587  1.4267  0.0285  0.9295
 2048TIP3    H230340   4.455   2.858   8.461 -0.6138  2.4906 -0.5528
 2049TIP3   OH230341   0.903   1.048   7.420 -0.4352  0.3518 -0.4303
 2049TIP3    H130342   0.977   1.090   7.463  0.1010  0.0744 -1.0723
 2049TIP3    H230343   0.905   1.082   7.330 -1.1165  0.3849 -0.4365
 2050TIP3   OH230344   2.839   1.623   7.177  0.3780 -0.1927  0.1207
 2050TIP3    H130345   2.760   1.662   7.214  1.9799  1.3855  2.1236
 2050TIP3    H230346   2.877   1.693   7.123  1.0727 -0.4859  0.2208
 2051TIP3   OH230347   4.683   6.492   8.510 -0.3031 -0.0917  0.4105
 2051TIP3    H130348   4.741   6.417   8.496 -0.4463 -0.8224  3.0766
 2051TIP3    H230349   4.625   6.493   8.434  0.9171 -1.5182 -0.5874
 2052TIP3   OH230350   1.939   5.347   8.857 -0.5729  0.7826 -0.6613
 2052TIP3    H130351   1.954   5.367   8.950  0.4381  0.6658 -0.7856
 2052TIP3    H230352   1.877   5.413   8.828  0.2566  1.7561 -0.2688
 2053TIP3   OH230353   0.366   5.607   7.824  0.1653  0.2564 -0.3244
 2053TIP3    H130354   0.366   5.599   7.729 -0.2132  0.0759 -0.3144
 2053TIP3    H230355   0.278   5.639   7.845 -0.2013 -0.9210  0.0437
 2054TIP3   OH230356   6.277   4.240   6.681  0.1627  0.1941 -0.2893
 2054TIP3    H130357   6.275   4.218   6.774 -0.9655 -0.7462 -0.5098
 2054TIP3    H230358   6.296   4.158   6.637  2.6362  0.9958 -0.8332
 2055TIP3   OH230359   2.028   4.019   7.703  0.1452  0.3041  0.5785
 2055TIP3    H130360   1.985   3.942   7.739 -0.7944  0.1009 -0.8732
 2055TIP3    H230361   2.064   4.065   7.778  1.6919 -2.0974  1.4130
 2056TIP3   OH230362   4.848   0.161   9.120 -0.3187  1.0038  0.3166
 2056TIP3    H130363   4.850   0.122   9.032  1.6399  1.1416  0.2655
 2056TIP3    H230364   4.833   0.254   9.104 -0.3358  0.9739  0.1526
 2057TIP3   OH230365   5.796   7.252   7.682  0.2628  0.7592  0.0124
 2057TIP3    H130366   5.710   7.266   7.642 -0.0994  0.6290  0.7276
 2057TIP3    H230367   5.853   7.227   7.609 -0.7209 -0.8949 -0.2286
 2058TIP3   OH230368   1.997   2.351   7.901  0.2328  0.0450 -0.2596
 2058TIP3    H130369   2.061   2.313   7.960  0.2990  0.0823 -0.3063
 2058TIP3    H230370   2.020   2.315   7.815 -1.6111 -2.2924  0.1296
 2059TIP3   OH230371   6.579   1.529   8.718 -0.6483  0.3645  0.4939
 2059TIP3    H130372   6.546   1.502   8.804 -0.6836  0.0528  0.3842
 2059TIP3    H230373   6.514   1.496   8.657  0.3064 -1.0834  0.1943
 2060TIP3   OH230374   4.829   6.274   9.511  0.2785 -0.1780  0.1510
 2060TIP3    H130375   4.888   6.199   9.520  1.2700  0.6938  1.3239
 2060TIP3    H230376   4.877   6.336   9.456 -0.4973 -0.3394 -0.7384
 2061TIP3   OH230377   5.575   2.306   7.852  0.2602 -0.2967 -0.2719
 2061TIP3    H130378   5.567   2.277   7.943 -0.6648  0.1806 -0.1882
 2061TIP3    H230379   5.514   2.251   7.804 -0.8603  0.8870 -0.2498
 2062TIP3   OH230380   0.576   4.366   8.758 -0.1732 -0.1184 -0.2977
 2062TIP3    H130381   0.658   4.410   8.734  0.6858 -1.5141 -0.0627
 2062TIP3    H230382   0.516   4.437   8.781 -0.0617  1.1383 -3.4786
 2063TIP3   OH230383   7.316   0.457   8.100  0.2891 -0.2576  0.3374
 2063TIP3    H130384   7.395   0.483   8.148  0.6173 -0.1904 -0.2371
 2063TIP3    H230385   7.252   0.439   8.169  1.2757 -1.9183  0.8909
 2064TIP3   OH230386   4.856   2.759   9.239  0.1612  0.3299 -0.1858
 2064TIP3    H130387   4.844   2.783   9.147 -2.0413 -0.0971 -0.0589
 2064TIP3    H230388   4.860   2.664   9.239 -1.7000  0.2131  0.2857
 2065TIP3   OH230389   4.115   2.207   7.512  0.4564  0.2119 -0.4033
 2065TIP3    H130390   4.074   2.262   7.578 -0.7235  0.6210 -1.4363
 2065TIP3    H230391   4.052   2.206   7.439  1.4039 -0.7807 -1.2436
 2066TIP3   OH230392   5.702   5.970   6.934  0.7100 -0.0943 -0.0865
 2066TIP3    H130393   5.761   6.023   6.880  3.9392  0.5864  3.6556
 2066TIP3    H230394   5.663   6.032   6.996 -2.0819 -0.9806 -0.7696
 2067TIP3   OH230395   4.452   6.539   7.655  0.3566  0.2043 -0.2533
 2067TIP3    H130396   4.520   6.480   7.688 -2.1636 -2.5794  0.3717
 2067TIP3    H230397   4.410   6.575   7.733  0.3737  1.0602 -0.6208
 2068TIP3   OH230398   7.589   4.533   9.282  0.3243 -0.0683 -0.0026
 2068TIP3    H130399   7.598   4.496   9.370  1.9782  0.1379 -0.0615
 2068TIP3    H230400   7.637   4.615   9.285 -0.6937  0.5736 -0.7613
 2069TIP3   OH230401   0.385   4.843   9.488 -0.1668  0.2216 -0.1243
 2069TIP3    H130402   0.460   4.884   9.531 -0.9685  0.6220  0.9241
 2069TIP3    H230403   0.410   4.751   9.480  0.3202  0.2944  0.4867
 2070TIP3   OH230404   3.702   4.974   8.919  0.2184  0.1608  0.3968
 2070TIP3    H130405   3.695   5.007   9.009 -1.2245  0.7155  0.1156
 2070TIP3    H230406   3.611   4.956   8.894  0.3581  1.9437 -1.6519
 2071TIP3   OH230407   3.174   7.409   8.748 -0.1442  0.5340  0.1745
 2071TIP3    H130408   3.157   7.410   8.843 -5.2459  0.1159 -0.4491
 2071TIP3    H230409   3.159   7.318   8.723 -1.1523  1.0506 -1.2384
 2072TIP3   OH230410   2.945   2.672   7.741 -0.2204  0.3144 -0.0480
 2072TIP3    H130411   2.886   2.600   7.763  0.9858 -0.7921 -0.3366
 2072TIP3    H230412   3.018   2.663   7.802 -0.0354  1.2670 -0.1238
 2073TIP3   OH230413   0.917   2.111   9.210 -0.1129 -0.6616  0.5364
 2073TIP3    H130414   0.940   2.140   9.123 -1.5912 -0.4737  0.1770
 2073TIP3    H230415   0.846   2.169   9.237  0.4761 -0.5610  1.9713
 2074TIP3   OH230416   2.715   0.599   7.485 -0.4715  0.6172 -0.7275
 2074TIP3    H130417   2.742   0.520   7.437 -0.5609  1.9436 -3.1250
 2074TIP3    H230418   2.624   0.581   7.509  0.0601 -0.7223  0.4482
 2075TIP3   OH230419   7.028   6.798   9.318  0.5134 -0.1720  0.1170
 2075TIP3    H130420   7.076   6.801   9.401 -1.0509  5.3873  1.2212
 2075TIP3    H230421   7.087   6.839   9.255 -0.0450 -0.0944 -0.3567
 2076TIP3   OH230422   1.616   7.325   8.696 -0.1052 -0.4271 -0.4313
 2076TIP3    H130423   1.707   7.332   8.667  0.5327 -0.6182  1.3719
 2076TIP3    H230424   1.572   7.278   8.625  1.2563 -0.5735 -1.2262
 2077TIP3   OH230425   6.337   4.545   8.617 -0.3908 -0.0607  0.0360
 2077TIP3    H130426   6.254   4.496   8.614 -0.2643 -0.2246 -0.9194
 2077TIP3    H230427   6.397   4.494   8.563 -0.3165  1.2607 -1.1700
 2078TIP3   OH230428   2.424   0.935   7.889 -0.8229 -0.4247 -0.2716
 2078TIP3    H130429   2.337   0.904   7.915 -1.0199  0.6922  0.5172
 2078TIP3    H230430   2.407   1.016   7.841 -0.2386 -0.4368 -0.5079
 2079TIP3   OH230431   0.061   3.320   7.370  0.1564 -0.5189  0.4025
 2079TIP3    H130432   0.103   3.271   7.442  0.5070 -0.8386 -0.0152
 2079TIP3    H230433   0.128   3.382   7.341  0.0651 -0.4911  0.2536
 2080TIP3   OH230434   6.101   0.623   7.963 -0.2901  0.5697 -0.6826
 2080TIP3    H130435   6.049   0.583   7.893 -2.3318  0.9098  0.5603
 2080TIP3    H230436   6.055   0.599   8.044  2.7535 -1.0281  0.7428
 2081TIP3   OH230437   6.797   0.147   8.696 -0.4382 -0.3112  0.1926
 2081TIP3    H130438   6.796   0.209   8.769  0.6344 -1.3245  1.1304
 2081TIP3    H230439   6.717   0.166   8.647 -0.7270  1.0067  1.1120
 2082TIP3   OH230440   3.930   2.927   7.337  0.0095  0.1639  0.1981
 2082TIP3    H130441   3.847   2.911   7.381 -1.1210  2.2317 -1.0610
 2082TIP3    H230442   3.924   3.016   7.304  2.6299  0.2769 -0.1997
 2083TIP3   OH230443   6.223   2.564   8.981  0.4196  0.2922 -0.0071
 2083TIP3    H130444   6.137   2.600   9.002  0.5783  0.7176 -0.0750
 2083TIP3    H230445   6.271   2.638   8.944  0.5980 -0.1046 -0.5785
 2084TIP3   OH230446   4.492   3.636   7.026 -0.6593 -0.0017 -0.7472
 2084TIP3    H130447   4.531   3.723   7.036 -0.0529 -0.4583  1.4369
 2084TIP3    H230448   4.564   3.576   7.045 -1.3531 -0.9804 -1.1484
 2085TIP3   OH230449   2.082   1.102   8.859  0.3575  0.1650  0.2752
 2085TIP3    H130450   2.062   1.033   8.922  0.7978  0.7543  1.0780
 2085TIP3    H230451   2.153   1.066   8.806 -1.0179 -0.9310 -0.9192
 2086TIP3   OH230452   1.464   2.413   8.534  0.3168 -0.0706  0.1929
 2086TIP3    H130453   1.482   2.479   8.467  0.9710 -0.7827 -0.3566
 2086TIP3    H230454   1.370   2.421   8.551  0.6664  2.2239  1.4763
 2087TIP3   OH230455   3.144   5.169   7.083  0.1386  0.1191 -0.4637
 2087TIP3    H130456   3.127   5.177   6.989 -0.4998 -1.7054 -0.5489
 2087TIP3    H230457   3.137   5.075   7.100  0.1809  0.4325  1.4311
 2088TIP3   OH230458   1.233   1.284   9.118 -0.2734  0.7513 -0.0925
 2088TIP3    H130459   1.231   1.311   9.210 -1.3661 -1.0839  0.4860
 2088TIP3    H230460   1.280   1.355   9.073  2.0351  0.7945  2.1523
 2089TIP3   OH230461   5.041   7.051   9.465  0.4737 -0.2246 -0.2775
 2089TIP3    H130462   5.025   6.956   9.465  0.6569 -0.2903  1.2383
 2089TIP3    H230463   5.104   7.064   9.537  0.2339  1.0769 -0.2870
 2090TIP3   OH230464   1.460   2.308   9.047 -0.4951  0.0716 -0.3700
 2090TIP3    H130465   1.510   2.323   8.967  0.0999 -2.0108 -0.4564
 2090TIP3    H230466   1.515   2.250   9.100 -1.2544  0.6926  1.1716
 2091TIP3   OH230467   5.747   6.861   7.021 -0.0100  0.5966  0.0326
 2091TIP3    H130468   5.808   6.931   7.000 -1.2457  1.9610  0.8016
 2091TIP3    H230469   5.661   6.903   7.024 -0.9984 -1.2116 -0.8342
 2092TIP3   OH230470   5.419   5.222   6.773 -0.1161 -0.2134  0.2771
 2092TIP3    H130471   5.364   5.218   6.694  0.4328  1.3456 -0.2201
 2092TIP3    H230472   5.382   5.155   6.831 -1.3875 -0.4574 -0.7581
 2093TIP3   OH230473   0.024   3.467   9.008  0.1648  0.3522  0.2836
 2093TIP3    H130474   0.030   3.559   8.985 -0.2294  0.4205  0.4506
 2093TIP3    H230475   0.035   3.464   9.103 -0.2594  0.2700  0.3303
 2094TIP3   OH230476   7.130   6.043   7.914  0.6424 -0.4727 -0.1086
 2094TIP3    H130477   7.131   6.008   7.825  0.9369 -2.1020  0.5080
 2094TIP3    H230478   7.082   5.979   7.966  0.5119  0.4244  0.9330
 2095TIP3   OH230479   0.885   6.296   7.375  0.4200  0.0257  0.1488
 2095TIP3    H130480   0.816   6.235   7.349  0.5540 -0.7744  1.5782
 2095TIP3    H230481   0.953   6.285   7.308 -0.7958  0.8645 -1.3153
 2096TIP3   OH230482   5.384   7.258   9.242  0.2876 -0.0657  0.3410
 2096TIP3    H130483   5.393   7.330   9.304 -1.2334 -0.3740  0.9663
 2096TIP3    H230484   5.290   7.239   9.240  0.5692 -1.6218 -0.2756
 2097TIP3   OH230485   0.734   0.426   8.904  0.2218  0.4033 -0.0213
 2097TIP3    H130486   0.651   0.469   8.927 -1.3800 -2.1587 -0.6544
 2097TIP3    H230487   0.796   0.458   8.970 -1.2104  2.4422  0.4431
 2098TIP3   OH230488   1.624   3.534   8.585  0.3145 -0.2940 -0.0351
 2098TIP3    H130489   1.558   3.562   8.522 -0.8608 -3.6949 -0.5030
 2098TIP3    H230490   1.652   3.615   8.627 -2.3296  1.5826 -1.5782
 2099TIP3   OH230491   2.022   4.787   7.717 -0.1580 -0.3503  0.0150
 2099TIP3    H130492   2.086   4.854   7.694  0.1819 -0.9442 -0.7934
 2099TIP3    H230493   2.067   4.729   7.778  0.8306 -1.9669 -2.1189
 2100TIP3   OH230494   2.182   2.917   9.006  0.8399 -0.4472  1.1106
 2100TIP3    H130495   2.193   3.004   8.967  0.2548 -0.6688  0.4264
 2100TIP3    H230496   2.203   2.929   9.099  0.1226  0.5718  1.1542
 2101TIP3   OH230497   6.238   1.212   7.452 -0.2393  0.3618  0.0153
 2101TIP3    H130498   6.295   1.253   7.387 -0.0235 -0.7589 -0.5230
 2101TIP3    H230499   6.184   1.284   7.485  1.3526  1.4182  0.4133
 2102TIP3   OH230500   3.855   4.250   7.908 -0.2039 -0.2481 -0.2182
 2102TIP3    H130501   3.915   4.176   7.902  0.8074  0.5415 -0.2691
 2102TIP3    H230502   3.806   4.249   7.826 -1.0310 -1.5296  0.2744
 2103TIP3   OH230503   4.607   1.290   7.041 -0.1900 -1.1725  0.2026
 2103TIP3    H130504   4.674   1.221   7.038  0.3854 -0.6257  0.2570
 2103TIP3    H230505   4.612   1.332   6.955  1.4471  0.6202  1.0895
 2104TIP3   OH230506   7.419   2.685   8.105 -0.0193  0.3961  0.1168
 2104TIP3    H130507   7.482   2.638   8.052  0.8462  1.3925  0.2298
 2104TIP3    H230508   7.431   2.650   8.194 -1.5250 -1.3289 -0.2821
 2105TIP3   OH230509   1.724   5.481   9.240  0.0624  0.1778  0.0179
 2105TIP3    H130510   1.692   5.422   9.309 -0.6359 -0.1356 -0.5696
 2105TIP3    H230511   1.817   5.460   9.233  0.0491 -0.0901  0.5644
 2106TIP3   OH230512   2.755   4.098   7.629  0.4293 -0.0303 -0.0179
 2106TIP3    H130513   2.707   4.016   7.615  0.7642 -0.0618 -1.1286
 2106TIP3    H230514   2.738   4.150   7.550  0.0578  1.0640  0.7602
 2107TIP3   OH230515   4.243   6.087   6.588 -0.1212 -0.1024 -0.0101
 2107TIP3    H130516   4.193   6.144   6.646 -0.3719 -0.7473  0.4225
 2107TIP3    H230517   4.177   6.031   6.548  0.1195 -0.0788 -0.4441
 2108TIP3   OH230518   3.006   3.741   9.273 -0.3420  0.5858 -0.0475
 2108TIP3    H130519   2.972   3.767   9.187 -0.1166  0.5193 -0.1609
 2108TIP3    H230520   2.978   3.650   9.283  1.7296 -0.2617 -1.1899
 2109TIP3   OH230521   1.549   3.864   8.118 -0.5257  0.4661  0.5161
 2109TIP3    H130522   1.571   3.799   8.052  0.7353  0.1416  1.2397
 2109TIP3    H230523   1.591   3.834   8.198 -0.0059  2.0958  0.9014
 2110TIP3   OH230524   7.225   1.443   8.303  0.1894 -0.0015 -0.1160
 2110TIP3    H130525   7.252   1.380   8.370 -0.9453  0.5771  0.9266
 2110TIP3    H230526   7.242   1.528   8.342 -2.4153  0.3833  0.3374
 2111TIP3   OH230527   0.847   4.388   8.679  0.1858 -0.1732 -0.6669
 2111TIP3    H130528   0.905   4.463   8.692  0.6004 -0.4324 -0.9783
 2111TIP3    H230529   0.886   4.319   8.733 -0.0712 -0.2280 -0.5500
 2112TIP3   OH230530   1.543   1.055   9.102  0.3116 -0.9242  0.5944
 2112TIP3    H130531   1.468   1.017   9.055  0.2329 -1.1626  0.9101
 2112TIP3    H230532   1.611   0.988   9.096  0.0296 -1.3119  1.5330
 2113TIP3   OH230533   6.863   0.475   9.138  0.0662  0.1846 -0.3127
 2113TIP3    H130534   6.891   0.499   9.226 -0.5993  0.8355 -0.2768
 2113TIP3    H230535   6.826   0.387   9.148  0.8387 -0.1238 -0.1180
 2114TIP3   OH230536   5.989   2.343   8.818  0.4192 -0.2733 -0.4890
 2114TIP3    H130537   6.071   2.314   8.858 -0.2255 -0.1800  0.9687
 2114TIP3    H230538   5.948   2.262   8.787  1.2791 -0.2660 -1.6954
 2115TIP3   OH230539   6.998   4.770   8.251  0.3899  0.3411 -0.4762
 2115TIP3    H130540   7.013   4.701   8.186  0.5851 -0.5525  0.4927
 2115TIP3    H230541   7.072   4.830   8.239  1.4776 -0.8187  0.1630
 2116TIP3   OH230542   1.975   5.024   9.494 -0.1392 -0.2547 -0.4717
 2116TIP3    H130543   1.961   5.118   9.487 -2.3816 -0.5967 -1.3327
 2116TIP3    H230544   2.046   5.016   9.557  0.7381  2.0234 -1.0587
 2117TIP3   OH230545   1.340   0.752   8.504  0.5060  0.3077  0.3934
 2117TIP3    H130546   1.338   0.670   8.455 -0.7212 -0.0612  1.0159
 2117TIP3    H230547   1.264   0.747   8.562  0.5637  1.7720  0.6323
 2118TIP3   OH230548   6.452   2.481   7.024 -0.4989 -0.3216 -0.2660
 2118TIP3    H130549   6.522   2.424   7.056 -2.8472 -1.4415  3.4084
 2118TIP3    H230550   6.498   2.546   6.970  3.3088 -1.1668  1.5978
 2119TIP3   OH230551   1.745   5.835   7.964  0.3915  0.4054  0.3756
 2119TIP3    H130552   1.813   5.791   8.016  0.2395  1.2767  1.3192
 2119TIP3    H230553   1.774   5.926   7.958 -0.9771  0.9198  1.2715
 2120TIP3   OH230554   2.007   5.770   8.113 -0.1896 -0.0675 -0.5514
 2120TIP3    H130555   1.947   5.716   8.165 -1.0743  2.0637  0.7993
 2120TIP3    H230556   2.093   5.755   8.153 -0.4597 -0.3109 -0.0555
 2121TIP3   OH230557   7.659   2.062   9.704 -0.0792 -0.0652  0.5925
 2121TIP3    H130558   7.745   2.100   9.721 -0.1911  0.4665  0.0056
 2121TIP3    H230559   7.637   2.014   9.784  0.5459  0.2036  0.9272
 2122TIP3   OH230560   0.594   5.468   8.761  0.1099 -0.0698  0.0922
 2122TIP3    H130561   0.677   5.480   8.808  1.5307  0.4033 -2.3635
 2122TIP3    H230562   0.528   5.463   8.830  1.8951  1.8209  2.0921
 2123TIP3   OH230563   7.597   0.681   9.010  0.5552  0.0768 -0.7137
 2123TIP3    H130564   7.592   0.767   8.969  0.7611  0.2251 -0.4252
 2123TIP3    H230565   7.687   0.673   9.040 -0.0825  0.8235  1.5679
 2124TIP3   OH230566   1.939   3.145   9.697  0.2529  0.2198  0.3626
 2124TIP3    H130567   1.862   3.118   9.648  1.2883  0.5976 -1.5571
 2124TIP3    H230568   1.992   3.065   9.705 -0.2386 -0.0085  1.5570
 2125TIP3   OH230569   3.847   1.934   7.055  0.6042  0.5355 -1.0408
 2125TIP3    H130570   3.876   1.871   6.988  0.3766  0.5477 -1.1512
 2125TIP3    H230571   3.752   1.928   7.054  0.6146 -1.0620  0.8041
 2126TIP3   OH230572   3.834   4.988   8.191  0.0370  0.1817 -0.0237
 2126TIP3    H130573   3.740   4.973   8.195 -0.2500  1.4475 -1.2560
 2126TIP3    H230574   3.849   5.071   8.235  0.3811  0.6458 -0.9799
 2127TIP3   OH230575   2.687   7.018   8.171  0.0728 -0.1779 -0.0666
 2127TIP3    H130576   2.728   6.931   8.172  1.1136  0.2965 -0.0900
 2127TIP3    H230577   2.694   7.048   8.261  1.3970  0.6233 -0.4063
 2128TIP3   OH230578   3.612   7.602   8.579 -0.1077  0.8339 -0.9503
 2128TIP3    H130579   3.546   7.565   8.638  0.0764  1.0832 -0.5884
 2128TIP3    H230580   3.696   7.576   8.617  0.0128  0.2948 -1.5493
 2129TIP3   OH230581   7.096   7.581   7.138 -0.0110 -0.0935 -0.3898
 2129TIP3    H130582   7.147   7.662   7.135 -0.2381  0.0380 -0.9641
 2129TIP3    H230583   7.122   7.533   7.060  0.2748 -0.6775  0.0593
 2130TIP3   OH230584   1.475   7.319   9.370 -0.1002 -0.3865 -0.4034
 2130TIP3    H130585   1.441   7.335   9.458  0.8083 -0.1037 -0.0934
 2130TIP3    H230586   1.397   7.300   9.317 -1.0129  2.5214 -0.2471
 2131TIP3   OH230587   5.518   0.421   8.075  0.4733 -0.5131 -0.4300
 2131TIP3    H130588   5.570   0.465   8.142  0.9021 -2.1702  0.3773
 2131TIP3    H230589   5.513   0.485   8.003  1.0973  0.8060  0.6471
 2132TIP3   OH230590   5.190   6.522   9.090  0.0025  0.2233  0.1341
 2132TIP3    H130591   5.172   6.509   9.184  0.5301 -0.3175  0.1676
 2132TIP3    H230592   5.200   6.616   9.081 -2.1504  0.5185  0.2277
 2133TIP3   OH230593   0.346   3.872   7.228  0.3638 -0.1177  0.0813
 2133TIP3    H130594   0.322   3.826   7.148  1.2789  0.5621 -0.6037
 2133TIP3    H230595   0.357   3.802   7.293 -0.1768 -0.6922 -0.4265
 2134TIP3   OH230596   5.066   5.944   8.526  0.7160 -0.5930  0.7130
 2134TIP3    H130597   5.093   6.019   8.580  1.4682  0.6315 -1.2373
 2134TIP3    H230598   4.979   5.968   8.495  0.8419 -0.6474  0.3164
 2135TIP3   OH230599   5.562   3.924   8.121  0.3945  0.9684 -0.3758
 2135TIP3    H130600   5.610   3.881   8.051  2.3940  1.8282  0.3937
 2135TIP3    H230601   5.522   4.000   8.080 -0.3092  0.2771 -1.0094
 2136TIP3   OH230602   0.421   1.922   8.835  0.3637 -0.0041 -0.0285
 2136TIP3    H130603   0.492   1.860   8.851  0.4223  0.0762  0.0236
 2136TIP3    H230604   0.403   1.914   8.741 -0.1222 -0.6280  0.1094
 2137TIP3   OH230605   3.143   2.453   7.983 -0.6018  0.2014 -0.5395
 2137TIP3    H130606   3.208   2.447   7.913  0.7062  1.1402  0.5514
 2137TIP3    H230607   3.163   2.535   8.028 -0.5576 -0.9929  1.7427
 2138TIP3   OH230608   4.373   7.200   7.034 -0.0723 -0.0608 -0.4352
 2138TIP3    H130609   4.382   7.280   7.085  1.3163  0.1053 -0.8944
 2138TIP3    H230610   4.287   7.165   7.058  0.7465 -0.3345  2.4826
 2139TIP3   OH230611   1.365   4.871   7.886  0.3112  0.5760 -0.3599
 2139TIP3    H130612   1.310   4.898   7.959  0.7486  1.9702 -0.4977
 2139TIP3    H230613   1.454   4.892   7.914  0.8388 -1.7869 -0.0775
 2140TIP3   OH230614   7.229   3.940   7.610 -0.5381  0.1447  0.1027
 2140TIP3    H130615   7.191   4.009   7.665 -0.2523  1.3811 -1.1879
 2140TIP3    H230616   7.247   3.868   7.671 -1.0959  1.0990  1.4498
 2141TIP3   OH230617   4.383   6.782   8.549  0.4573  0.1861  0.0417
 2141TIP3    H130618   4.439   6.860   8.550 -0.6351  1.0705 -1.6897
 2141TIP3    H230619   4.403   6.739   8.466  0.1753 -0.7088  0.4246
 2142TIP3   OH230620   4.921   5.042   8.682 -0.1071  0.7417 -0.1943
 2142TIP3    H130621   4.964   5.118   8.721 -1.3546  0.9121  0.9218
 2142TIP3    H230622   4.830   5.069   8.671 -0.3352 -0.2258 -0.8219
 2143TIP3   OH230623   6.653   3.827   9.141 -0.4377 -0.0361  0.2328
 2143TIP3    H130624   6.644   3.733   9.130 -0.5045 -0.0450  0.3568
 2143TIP3    H230625   6.727   3.837   9.200 -0.3461 -0.0058  0.1129
 2144TIP3   OH230626   7.329   3.892   7.341 -0.1580  0.3407 -0.2224
 2144TIP3    H130627   7.290   3.899   7.429 -1.0888 -2.7269 -0.2793
 2144TIP3    H230628   7.423   3.882   7.358 -0.2332  0.5697  0.3758
 2145TIP3   OH230629   0.865   4.063   8.191  0.0402 -0.4431 -0.1755
 2145TIP3    H130630   0.925   4.128   8.229 -2.0286  1.1776  0.5007
 2145TIP3    H230631   0.841   4.100   8.106  0.3479 -1.3179 -0.6491
 2146TIP3   OH230632   2.660   2.166   9.503  0.5271  0.2416  0.2282
 2146TIP3    H130633   2.707   2.234   9.551  2.2758 -0.0128 -1.0147
 2146TIP3    H230634   2.597   2.214   9.449  0.3914  0.7088  0.7881
 2147TIP3   OH230635   6.860   6.198   8.024  0.1551 -0.2662  0.1349
 2147TIP3    H130636   6.806   6.157   7.956 -0.0596 -0.6958  0.5605
 2147TIP3    H230637   6.869   6.131   8.092  2.1856 -0.6337 -0.4183
 2148TIP3   OH230638   5.054   0.881   8.292 -0.2708 -0.0393  0.2283
 2148TIP3    H130639   5.083   0.826   8.219  0.8334 -0.3058  0.8541
 2148TIP3    H230640   5.128   0.940   8.308 -1.1734  1.2005  0.0086
 2149TIP3   OH230641   0.003   3.901   8.373  0.5820  0.4170  0.2507
 2149TIP3    H130642   0.085   3.885   8.419  0.5619 -1.1353 -0.2068
 2149TIP3    H230643   0.011   3.852   8.291 -0.2218  1.4500 -0.4841
 2150TIP3   OH230644   4.263   5.979   6.972  0.1174  0.5364 -0.1105
 2150TIP3    H130645   4.218   5.911   6.921 -0.8067 -0.0457  1.4114
 2150TIP3    H230646   4.352   5.945   6.983  0.3668  0.7284 -1.4055
 2151TIP3   OH230647   6.811   7.531   8.470  0.4540  0.4063 -0.1641
 2151TIP3    H130648   6.733   7.553   8.520  0.1573 -1.2109  0.1203
 2151TIP3    H230649   6.816   7.436   8.473  2.7555  0.4857  0.2875
 2152TIP3   OH230650   1.524   6.183   7.813 -0.4244  0.1955  0.2428
 2152TIP3    H130651   1.582   6.115   7.779  0.5845  1.1017  0.0936
 2152TIP3    H230652   1.536   6.181   7.908 -4.2355 -3.2410  0.9197
 2153TIP3   OH230653   5.522   3.422   7.763 -0.1612 -0.0143  0.4014
 2153TIP3    H130654   5.615   3.402   7.777  0.5760  1.5345 -1.7792
 2153TIP3    H230655   5.509   3.411   7.669 -1.7391  1.5370  0.3911
 2154TIP3   OH230656   4.329   6.186   7.983  0.6316  0.1986  0.1453
 2154TIP3    H130657   4.342   6.099   8.021 -0.0634 -0.7344 -1.6308
 2154TIP3    H230658   4.403   6.199   7.925 -1.3515 -1.2165 -2.9918
 2155TIP3   OH230659   4.712   5.059   9.342  0.1866 -0.1038 -0.2376
 2155TIP3    H130660   4.631   5.017   9.371  0.2623  0.5950  1.0590
 2155TIP3    H230661   4.686   5.111   9.266 -0.5218 -0.0996  0.0010
 2156TIP3   OH230662   4.153   7.000   6.738 -0.1905 -0.0246 -0.6998
 2156TIP3    H130663   4.184   6.939   6.805 -1.0610  1.0968  0.7646
 2156TIP3    H230664   4.113   6.943   6.672 -0.0604 -1.1053  0.1205
 2157TIP3   OH230665   3.226   5.689   7.422  0.1784 -0.1864  0.4506
 2157TIP3    H130666   3.220   5.609   7.370 -3.4536  1.2364 -1.7117
 2157TIP3    H230667   3.270   5.752   7.365 -2.4861  0.9534 -0.5339
 2158TIP3   OH230668   0.433   4.538   7.373 -0.3860 -0.3598  0.2164
 2158TIP3    H130669   0.357   4.545   7.314 -1.1704  1.2074  1.3516
 2158TIP3    H230670   0.436   4.622   7.418  0.8967 -1.0953  1.5836
 2159TIP3   OH230671   2.895   2.609   6.773 -0.3798  0.4261  0.4683
 2159TIP3    H130672   2.857   2.684   6.727 -0.1523  0.3950  0.2281
 2159TIP3    H230673   2.832   2.589   6.843 -2.0037 -1.0811 -1.3072
 2160TIP3   OH230674   6.177   3.534   6.943  0.0469  0.0112  0.0171
 2160TIP3    H130675   6.150   3.445   6.924  1.7900 -0.2574 -1.4796
 2160TIP3    H230676   6.247   3.553   6.879  1.2574  1.6537  1.6987
 2161TIP3   OH230677   6.564   5.834   8.845 -0.2157  0.4444 -0.0126
 2161TIP3    H130678   6.608   5.750   8.841  2.1889  1.5750  0.6645
 2161TIP3    H230679   6.578   5.864   8.935 -0.4195  1.8599 -0.4204
 2162TIP3   OH230680   0.249   0.415   9.687 -0.1819 -0.7109  0.3845
 2162TIP3    H130681   0.260   0.356   9.761 -2.1232 -2.5559 -0.6941
 2162TIP3    H230682   0.335   0.413   9.643  0.2136 -1.6373  1.1538
 2163TIP3   OH230683   7.053   6.499   9.508 -0.1600  0.5651  0.4641
 2163TIP3    H130684   7.104   6.422   9.534 -1.5157 -0.5692 -0.0712
 2163TIP3    H230685   7.098   6.573   9.548  1.0109 -0.5451  1.2613
 2164TIP3   OH230686   3.801   7.087   8.216  0.4338  0.9698 -0.1927
 2164TIP3    H130687   3.827   7.068   8.126  0.8947  0.2801  0.0844
 2164TIP3    H230688   3.771   7.178   8.214  0.8944  1.1060 -0.9413
 2165TIP3   OH230689   7.453   0.158   8.638 -0.0629 -0.0206  0.3975
 2165TIP3    H130690   7.388   0.201   8.693 -0.5014 -0.3090  0.1167
 2165TIP3    H230691   7.404   0.088   8.593  0.1028  0.6441 -0.8849
 2166TIP3   OH230692   3.425   2.086   9.629 -0.2720 -0.1826 -0.5001
 2166TIP3    H130693   3.381   2.169   9.612 -0.2519  0.1112  0.7298
 2166TIP3    H230694   3.488   2.106   9.698 -0.4352 -1.2646 -0.0056
 2167TIP3   OH230695   2.702   1.507   9.373  0.3631 -0.9474  0.0138
 2167TIP3    H130696   2.764   1.568   9.412 -0.0234 -1.0231  0.7491
 2167TIP3    H230697   2.657   1.467   9.447 -1.0119 -0.4420 -0.5255
 2168TIP3   OH230698   0.639   1.788   8.566 -0.4968 -0.7208  0.2437
 2168TIP3    H130699   0.710   1.730   8.594 -0.3818 -0.7676 -0.1409
 2168TIP3    H230700   0.684   1.867   8.536 -0.5381 -1.1205 -0.9229
 2169TIP3   OH230701   2.260   6.655   8.056  0.3694 -0.1154 -0.2845
 2169TIP3    H130702   2.313   6.576   8.072  0.4852 -0.0894 -0.5399
 2169TIP3    H230703   2.296   6.720   8.116  0.3691 -0.2145 -0.1759
 2170TIP3   OH230704   1.538   6.118   8.445 -0.1309 -0.0063  0.2652
 2170TIP3    H130705   1.572   6.146   8.530 -2.1699  0.9642  0.8121
 2170TIP3    H230706   1.508   6.199   8.403  1.5235 -0.3468 -1.7696
 2171TIP3   OH230707   5.773   6.458   8.258  0.1433 -0.2484 -0.4806
 2171TIP3    H130708   5.853   6.405   8.267 -1.1214 -2.4042 -1.2677
 2171TIP3    H230709   5.805   6.545   8.232  2.2299 -1.0815 -0.9190
 2172TIP3   OH230710   0.513   5.255   9.477  0.3965  0.4828  0.2164
 2172TIP3    H130711   0.425   5.218   9.465  1.4617 -1.7576 -1.8505
 2172TIP3    H230712   0.505   5.346   9.451 -1.4257  0.4695  0.6187
 2173TIP3   OH230713   6.644   7.126   8.158 -0.0185  0.0637 -0.2141
 2173TIP3    H130714   6.658   7.067   8.232 -0.9342  0.1075  0.0091
 2173TIP3    H230715   6.646   7.069   8.081 -0.6136 -0.2266 -0.0225
 2174TIP3   OH230716   0.080   4.225   8.624 -0.1482  0.1226  0.6127
 2174TIP3    H130717   0.138   4.207   8.699  0.4779 -1.5925 -0.2154
 2174TIP3    H230718   0.139   4.259   8.557 -0.2991 -0.4256  0.1923
 2175TIP3   OH230719   0.807   0.942   6.998 -0.4921 -0.1001 -0.4073
 2175TIP3    H130720   0.731   0.912   7.049 -1.3353  2.3663 -0.0587
 2175TIP3    H230721   0.838   0.863   6.953 -2.1375 -1.5650  0.8525
 2176TIP3   OH230722   1.914   2.643   8.722  0.4655  0.1688  0.2766
 2176TIP3    H130723   2.007   2.645   8.698  0.4360 -1.8497 -0.1582
 2176TIP3    H230724   1.867   2.641   8.639  0.0423  0.6520  0.4968
 2177TIP3   OH230725   4.836   0.037   8.867  0.1573 -0.0603 -0.3547
 2177TIP3    H130726   4.771   0.026   8.797  0.8090 -1.5738 -0.7618
 2177TIP3    H230727   4.894  -0.038   8.857 -0.4941 -1.1150  2.6781
 2178TIP3   OH230728   1.270   2.655   8.903 -0.6024 -0.0728 -0.3434
 2178TIP3    H130729   1.328   2.664   8.979 -0.5656 -0.4943 -0.3144
 2178TIP3    H230730   1.275   2.739   8.858 -0.1349 -0.0313 -0.2200
 2179TIP3   OH230731   1.015   0.026   8.883 -0.6765 -0.1229 -0.1340
 2179TIP3    H130732   0.990   0.074   8.962 -2.2688 -0.9317 -0.1089
 2179TIP3    H230733   1.025  -0.064   8.912 -0.7542 -0.3349 -0.7501
 2180TIP3   OH230734   1.835   6.425   7.251 -0.0680  0.2012  0.0596
 2180TIP3    H130735   1.898   6.358   7.224 -0.1496  0.8210 -1.7458
 2180TIP3    H230736   1.751   6.395   7.217 -0.2745  0.7392  0.0871
 2181TIP3   OH230737   3.043   5.379   8.290  0.3794 -1.1035 -0.2555
 2181TIP3    H130738   3.077   5.302   8.335 -4.4585 -2.4327  1.8739
 2181TIP3    H230739   3.000   5.344   8.212  0.8198 -0.0603 -0.9884
 2182TIP3   OH230740   5.761   4.785   9.341  0.1190  0.0396  0.0443
 2182TIP3    H130741   5.691   4.850   9.339 -0.5031 -0.5655  1.0747
 2182TIP3    H230742   5.761   4.752   9.431  2.2400  0.5513  0.2784
 2183TIP3   OH230743   2.231   4.906   8.859  0.8508  0.3882 -0.4703
 2183TIP3    H130744   2.215   4.973   8.792  1.1929  0.3462 -0.5968
 2183TIP3    H230745   2.249   4.956   8.939  1.3968  0.4601 -0.6286
 2184TIP3   OH230746   1.552   3.750   7.444 -0.1659 -0.2650  0.0190
 2184TIP3    H130747   1.547   3.778   7.353  0.4303 -0.0243  0.0566
 2184TIP3    H230748   1.464   3.764   7.478 -0.1139  0.6697 -0.2226
 2185TIP3   OH230749   6.554   4.663   7.462  0.7230 -0.0277 -0.5787
 2185TIP3    H130750   6.540   4.711   7.381  1.5132 -0.7224 -1.1526
 2185TIP3    H230751   6.543   4.571   7.438 -2.9566 -0.1450  0.9337
 2186TIP3   OH230752   1.004   7.296   9.059  0.1222 -0.1116 -0.4576
 2186TIP3    H130753   1.026   7.290   8.966 -1.9213  0.3651 -1.0343
 2186TIP3    H230754   1.050   7.374   9.089  1.9129 -1.0277 -0.6820
 2187TIP3   OH230755   4.966   1.840   9.227 -0.1703  0.4284  0.1458
 2187TIP3    H130756   4.931   1.831   9.316 -0.5441 -0.4170 -0.0801
 2187TIP3    H230757   4.901   1.798   9.171  1.5430 -1.9595 -0.2027
 2188TIP3   OH230758   0.982   6.187   7.922  0.5621 -0.9417  0.1558
 2188TIP3    H130759   1.014   6.097   7.920  0.3222 -1.0431  0.8533
 2188TIP3    H230760   1.050   6.236   7.967 -1.2646 -1.5991  4.0039
 2189TIP3   OH230761   3.059   6.838   8.814 -0.2527 -0.4302  0.2038
 2189TIP3    H130762   3.143   6.794   8.807 -0.8192 -1.6016  0.5684
 2189TIP3    H230763   3.003   6.794   8.751 -0.2245  1.3153 -1.1230
 2190TIP3   OH230764   7.272   5.967   8.568 -0.6166  0.8065 -0.4063
 2190TIP3    H130765   7.234   5.995   8.485 -1.3893 -1.7274 -0.9714
 2190TIP3    H230766   7.363   5.945   8.547 -0.6970  0.5488 -0.4768
 2191TIP3   OH230767   0.548   3.815   9.212 -0.0185 -0.0470 -0.0817
 2191TIP3    H130768   0.528   3.846   9.301 -1.0331  2.2941 -1.0255
 2191TIP3    H230769   0.555   3.896   9.160 -0.7497 -1.3673 -2.3788
 2192TIP3   OH230770   4.545   5.458   8.215  0.2631 -0.6068  0.0268
 2192TIP3    H130771   4.462   5.475   8.260  1.4717 -0.2911  2.2535
 2192TIP3    H230772   4.543   5.518   8.140 -1.1590  0.0078  0.5041
 2193TIP3   OH230773   2.832   5.512   6.358  0.1452  0.7302 -0.3576
 2193TIP3    H130774   2.889   5.457   6.411 -0.0352  0.4686 -0.4318
 2193TIP3    H230775   2.746   5.471   6.366  0.0819  0.7933 -0.7051
 2194TIP3   OH230776   3.903   4.463   9.132 -0.1369 -0.2970 -0.5140
 2194TIP3    H130777   3.895   4.370   9.155 -0.7160 -0.2148 -0.3707
 2194TIP3    H230778   3.812   4.494   9.125 -0.0044  0.8636  1.8918
 2195TIP3   OH230779   2.656   5.019   7.691  0.0790  0.0032 -0.8218
 2195TIP3    H130780   2.747   5.030   7.718 -0.2075 -0.7560  0.5956
 2195TIP3    H230781   2.660   5.009   7.596  1.8200 -2.7682 -0.5901
 2196TIP3   OH230782   1.147   0.915   9.750 -0.1628  0.1398  0.2974
 2196TIP3    H130783   1.240   0.940   9.743  0.1000 -1.1164 -1.3505
 2196TIP3    H230784   1.105   0.992   9.788  1.3475  1.2362 -0.1168
 2197TIP3   OH230785   2.461   6.626   7.110 -0.5903 -0.8566 -0.2305
 2197TIP3    H130786   2.448   6.718   7.087  0.0024 -0.1792  1.9167
 2197TIP3    H230787   2.541   6.601   7.064 -0.5138 -0.1753 -0.4826
 2198TIP3   OH230788   3.941   1.089   7.402  0.4477  0.3835 -0.4288
 2198TIP3    H130789   3.936   1.001   7.365  0.8129  0.6267 -1.0767
 2198TIP3    H230790   3.949   1.075   7.497 -0.6281 -0.2502 -0.4147
 2199TIP3   OH230791   1.151   2.617   9.744  0.4062 -0.3585  0.0851
 2199TIP3    H130792   1.190   2.582   9.823 -0.8211 -1.3886  0.2642
 2199TIP3    H230793   1.108   2.542   9.703  0.8233  0.1993 -1.4436
 2200TIP3   OH230794   2.091   6.841   6.511 -0.5557 -0.1743 -0.4401
 2200TIP3    H130795   2.148   6.765   6.521 -0.8847 -0.1458  3.5242
 2200TIP3    H230796   2.138   6.911   6.557 -1.5316  1.2621 -1.5538
 2201TIP3   OH230797   6.858   3.037   7.702 -0.5597  0.0413 -0.4049
 2201TIP3    H130798   6.902   2.989   7.772  0.2674  1.0638 -0.1940
 2201TIP3    H230799   6.824   3.115   7.745 -3.6807 -1.2480 -0.3006
 2202TIP3   OH230800   1.383   2.523   9.333  0.2230 -0.0759  0.0295
 2202TIP3    H130801   1.294   2.534   9.300  0.9593 -0.2461 -2.2239
 2202TIP3    H230802   1.410   2.611   9.359  0.0317  0.3184 -1.0632
 2203TIP3   OH230803   3.060   6.973   7.473 -0.2698 -0.1973  0.2363
 2203TIP3    H130804   3.017   6.992   7.556 -1.6156 -0.5715 -0.3435
 2203TIP3    H230805   3.129   6.911   7.495 -1.2148 -1.0258  0.9595
 2204TIP3   OH230806   4.676   6.410   8.144 -0.2034 -0.2796 -0.0159
 2204TIP3    H130807   4.611   6.465   8.100 -0.9603 -1.8037 -0.8912
 2204TIP3    H230808   4.756   6.462   8.145 -0.8818  0.8138 -0.8125
 2205TIP3   OH230809   7.330   2.147   7.788  0.1425 -0.2259 -0.5201
 2205TIP3    H130810   7.376   2.209   7.844 -0.2951 -0.8577  0.5883
 2205TIP3    H230811   7.346   2.177   7.699  1.0919  0.6553 -0.0661
 2206TIP3   OH230812   0.426   1.970   9.703 -0.5620 -0.1048  0.2006
 2206TIP3    H130813   0.503   1.985   9.758 -0.2717 -0.6555 -0.0465
 2206TIP3    H230814   0.440   1.883   9.665  0.1821  1.0323 -2.2692
 2207TIP3   OH230815   5.318   0.395   9.097 -0.2490  0.1756  0.1132
 2207TIP3    H130816   5.352   0.375   9.010 -0.7290  0.6895 -0.2067
 2207TIP3    H230817   5.393   0.432   9.145  0.0102 -0.0873 -0.0914
 2208TIP3   OH230818   1.579   4.493   9.537 -0.5292 -0.8991  0.2665
 2208TIP3    H130819   1.621   4.459   9.616 -0.2497 -2.0776 -0.3601
 2208TIP3    H230820   1.629   4.454   9.465  0.9097  2.2074 -0.5620
 2209TIP3   OH230821   6.962   1.533   8.911 -0.3799 -0.0371  0.0733
 2209TIP3    H130822   6.942   1.501   8.999 -1.4843  0.3550 -0.0204
 2209TIP3    H230823   6.904   1.484   8.853 -0.0132  0.0627 -0.3852
 2210TIP3   OH230824   4.244   5.630   7.721  0.0034 -0.2750  0.4201
 2210TIP3    H130825   4.249   5.697   7.790  0.2224  1.0460 -0.8277
 2210TIP3    H230826   4.187   5.563   7.758 -0.9603  1.0197  1.4103
 2211TIP3   OH230827   2.880   4.974   7.029  0.1592  0.2783  0.5164
 2211TIP3    H130828   2.802   4.920   7.041 -0.5386  1.2898  0.6456
 2211TIP3    H230829   2.848   5.057   6.996  1.2672  0.4618 -0.1633
 2212TIP3   OH230830   2.021   1.960   7.961 -0.6399 -0.5351  0.7199
 2212TIP3    H130831   1.979   1.877   7.984 -1.4466 -0.2301  0.3584
 2212TIP3    H230832   2.053   1.947   7.872  0.6199 -0.9824  1.2075
 2213TIP3   OH230833   6.455   7.296   9.210 -0.5419 -0.2753 -0.1674
 2213TIP3    H130834   6.371   7.342   9.211 -0.8463 -0.8276  0.1496
 2213TIP3    H230835   6.513   7.353   9.160 -0.5648  1.0672  1.2669
 2214TIP3   OH230836   4.146   4.367   8.495  0.4097  0.5976  0.0976
 2214TIP3    H130837   4.129   4.406   8.410 -4.2108 -0.2337  0.3715
 2214TIP3    H230838   4.214   4.302   8.479  0.5785  1.3478 -2.6452
 2215TIP3   OH230839   2.036   0.493   8.730 -0.4401  0.1237  1.1929
 2215TIP3    H130840   2.103   0.560   8.738 -1.1895  1.0744 -0.1663
 2215TIP3    H230841   2.080   0.412   8.756  0.7781  0.9514  1.8047
 2216TIP3   OH230842   5.108   5.415   7.270 -0.0759  0.0777 -0.0959
 2216TIP3    H130843   5.124   5.386   7.180 -0.5001  0.5593 -0.3322
 2216TIP3    H230844   5.090   5.508   7.262 -0.6035  0.0279  0.4331
 2217TIP3   OH230845   0.955   0.830   9.283  0.0906 -0.2683  0.3712
 2217TIP3    H130846   0.930   0.905   9.229  1.0829 -0.6136 -0.6120
 2217TIP3    H230847   1.007   0.868   9.355  1.0464 -0.0465 -0.4176
 2218TIP3   OH230848   4.303   4.095   8.731 -0.2450 -0.4073  0.1133
 2218TIP3    H130849   4.391   4.059   8.721 -1.0793 -2.1624 -1.2211
 2218TIP3    H230850   4.284   4.136   8.647 -1.0746 -0.9111  0.0486
 2219TIP3   OH230851   7.560   2.901   7.954  0.6878  0.4738  0.0833
 2219TIP3    H130852   7.572   2.911   7.860 -1.0531  0.3646 -0.1807
 2219TIP3    H230853   7.536   2.810   7.966 -0.4500  0.8102  0.4601
 2220TIP3   OH230854   7.570   5.653   7.948 -1.0347  0.0528  0.0804
 2220TIP3    H130855   7.537   5.726   7.896 -1.1013  0.8264  1.1632
 2220TIP3    H230856   7.664   5.668   7.953 -1.1022  0.3169  0.6599
 2221TIP3   OH230857   3.676   0.795   7.771 -0.1495 -0.1042  0.3423
 2221TIP3    H130858   3.737   0.721   7.775 -0.7665 -0.6810 -0.6354
 2221TIP3    H230859   3.715   0.861   7.828  2.3188  0.2434 -1.6093
 2222TIP3   OH230860   3.334   7.441   9.253  0.0062 -0.4995 -0.6098
 2222TIP3    H130861   3.353   7.522   9.207  2.6074 -0.0159  1.1511
 2222TIP3    H230862   3.249   7.456   9.295  0.1465  1.0527 -0.8496
 2223TIP3   OH230863   1.632   1.336   7.774 -0.8569 -0.2200 -0.3592
 2223TIP3    H130864   1.645   1.333   7.679  0.2105  2.3649 -0.3603
 2223TIP3    H230865   1.714   1.300   7.810 -0.5161  0.4767 -0.4259
 2224TIP3   OH230866   6.719   2.742   8.061  0.0232 -0.0594  0.0061
 2224TIP3    H130867   6.655   2.787   8.006 -1.9964 -1.1240  1.3233
 2224TIP3    H230868   6.666   2.706   8.133  2.0395 -1.5428  0.8296
 2225TIP3   OH230869   1.757   1.578   9.499 -0.2352  0.0902  0.1562
 2225TIP3    H130870   1.690   1.571   9.567  0.9535  0.3430  1.4002
 2225TIP3    H230871   1.799   1.662   9.515 -0.7925  0.7689 -1.7475
 2226TIP3   OH230872   2.872   3.026   8.719  0.3376  0.2327 -0.3346
 2226TIP3    H130873   2.891   3.112   8.679  0.4440 -0.0191 -0.8326
 2226TIP3    H230874   2.837   2.974   8.647 -0.9774  0.2588  0.2468
 2227TIP3   OH230875   5.593   0.032   7.896 -0.1702  0.2209  0.0703
 2227TIP3    H130876   5.563   0.051   7.807 -0.7544 -0.1993  0.1743
 2227TIP3    H230877   5.674   0.082   7.904 -0.0254  0.1409 -0.7494
 2228TIP3   OH230878   3.664   2.676   7.886 -0.2608 -0.1446  0.4099
 2228TIP3    H130879   3.590   2.633   7.842 -0.0767 -0.9506  0.8564
 2228TIP3    H230880   3.721   2.603   7.913 -0.1339  0.3596  1.5402
 2229TIP3   OH230881   1.852   3.541   7.874  0.0480  0.4925 -0.1339
 2229TIP3    H130882   1.947   3.548   7.885  0.2647 -1.6085 -0.2662
 2229TIP3    H230883   1.841   3.509   7.784 -0.7939  0.7686 -0.1349
 2230TIP3   OH230884   3.174   3.332   8.036  0.1833 -0.0396 -0.0725
 2230TIP3    H130885   3.162   3.412   7.986  2.2899 -1.3730 -2.9759
 2230TIP3    H230886   3.269   3.324   8.047  0.0741 -2.2822 -0.2280
 2231TIP3   OH230887   2.686   4.980   8.060  0.3921 -0.2448 -0.0708
 2231TIP3    H130888   2.748   4.918   8.022  0.7041 -1.3315  2.0836
 2231TIP3    H230889   2.625   4.926   8.110 -0.1112  1.0940  0.8311
 2232TIP3   OH230890   0.177   7.311   9.112  1.1282  0.0269  0.1854
 2232TIP3    H130891   0.221   7.301   9.196  0.3686 -3.0795  0.3295
 2232TIP3    H230892   0.238   7.363   9.060  2.0895  1.1251  2.2833
 2233TIP3   OH230893   0.314   4.115   6.616  0.0546 -0.3260  0.2973
 2233TIP3    H130894   0.268   4.066   6.548  1.6688 -0.4782 -0.7550
 2233TIP3    H230895   0.336   4.050   6.682 -3.4286  0.1706  2.2065
 2234TIP3   OH230896   6.554   4.413   8.516 -0.2728  0.0851 -0.2739
 2234TIP3    H130897   6.596   4.426   8.601 -0.4365 -1.0712  0.0043
 2234TIP3    H230898   6.596   4.333   8.481  0.5442  1.1062 -1.7497
 2235TIP3   OH230899   5.718   7.672   8.200 -0.2666 -0.2785 -0.6938
 2235TIP3    H130900   5.720   7.670   8.104 -0.7142 -0.2986 -0.7028
 2235TIP3    H230901   5.659   7.744   8.221  1.7659  1.4273 -0.4246
 2236TIP3   OH230902   5.610   0.585   6.923  0.2184 -1.0071  0.0499
 2236TIP3    H130903   5.685   0.583   6.983 -0.2750 -0.6680  0.6870
 2236TIP3    H230904   5.626   0.513   6.862  1.2325 -0.7331 -0.0280
 2237TIP3   OH230905   5.847   5.623   8.601 -0.4858 -0.3943 -0.4457
 2237TIP3    H130906   5.811   5.547   8.555 -0.3232 -0.7556  0.0176
 2237TIP3    H230907   5.840   5.600   8.694  2.1082 -1.0603 -0.3342
 2238TIP3   OH230908   1.093   0.355   8.537  0.5504  0.0099 -0.2278
 2238TIP3    H130909   1.137   0.359   8.622  1.6627  0.8864 -0.8038
 2238TIP3    H230910   1.068   0.264   8.527  0.3842 -0.1043  1.0476
 2239TIP3   OH230911   5.998   4.565   9.085  0.3431  0.1737 -0.1134
 2239TIP3    H130912   5.996   4.660   9.083  0.2961  0.3207  2.8921
 2239TIP3    H230913   6.082   4.543   9.124 -0.6119 -0.8588  1.5043
 2240TIP3   OH230914   2.500   5.166   8.942 -0.0876 -0.2417  0.4433
 2240TIP3    H130915   2.520   5.258   8.924 -1.8562 -0.2441 -2.0772
 2240TIP3    H230916   2.413   5.167   8.981 -0.5658 -0.8699 -0.5628
 2241TIP3   OH230917   3.981   1.073   8.482  0.4083 -0.0997  0.0179
 2241TIP3    H130918   4.007   0.982   8.498 -0.6067  0.0009  2.7888
 2241TIP3    H230919   3.956   1.107   8.568 -0.6468  2.3745 -1.1432
 2242TIP3   OH230920   1.166   3.692   6.934  0.6558  0.0439  0.1889
 2242TIP3    H130921   1.119   3.763   6.978 -1.0026 -0.9578  0.1353
 2242TIP3    H230922   1.105   3.619   6.935  2.0750 -1.2073 -0.3202
 2243TIP3   OH230923   7.666   2.137   7.757  0.5216  0.2486  0.1377
 2243TIP3    H130924   7.625   2.068   7.808  0.8429  0.0578  0.1408
 2243TIP3    H230925   7.736   2.093   7.709  0.7072  0.5628  0.1152
 2244TIP3   OH230926   4.794   0.671   7.775 -0.0767 -0.2180 -0.5720
 2244TIP3    H130927   4.706   0.648   7.805  0.6293 -1.3627  0.7565
 2244TIP3    H230928   4.781   0.715   7.691 -2.2630  3.5967  1.4546
 2245TIP3   OH230929   5.131   5.478   7.696 -0.1412  0.2427  0.1860
 2245TIP3    H130930   5.119   5.515   7.783  1.7824  0.4607  0.4010
 2245TIP3    H230931   5.159   5.388   7.711 -2.5053 -0.6418 -0.2987
 2246TIP3   OH230932   1.573   2.394   7.114  0.1141  0.3002 -0.0247
 2246TIP3    H130933   1.482   2.393   7.085  0.5010 -0.0549 -1.3315
 2246TIP3    H230934   1.623   2.412   7.034  1.2182 -0.0628  0.5624
 2247TIP3   OH230935   5.401   7.234   8.613 -0.0163 -0.5129 -0.9072
 2247TIP3    H130936   5.440   7.316   8.645  1.1975 -0.9899 -1.1109
 2247TIP3    H230937   5.307   7.252   8.611  0.0086  0.0813  1.2954
 2248TIP3   OH230938   4.104   2.009   6.752  0.2826 -0.4878  0.0281
 2248TIP3    H130939   4.194   1.977   6.744  0.4907 -0.1183  0.8663
 2248TIP3    H230940   4.052   1.929   6.761  0.8337 -0.6491  2.4144
 2249TIP3   OH230941   3.666   0.052   8.308  0.0589  1.3953  0.6691
 2249TIP3    H130942   3.637  -0.024   8.257  1.3306  0.9059  0.6421
 2249TIP3    H230943   3.651   0.027   8.399  1.5933  0.5754  0.7377
 2250TIP3   OH230944   1.519   1.606   7.782  0.0767 -0.4549  0.0702
 2250TIP3    H130945   1.513   1.534   7.719 -1.8881 -1.4181  1.2427
 2250TIP3    H230946   1.596   1.585   7.835  0.0108 -1.2434 -0.1341
 2251TIP3   OH230947   6.826   2.244   7.904 -0.5909 -0.1693 -0.1460
 2251TIP3    H130948   6.798   2.285   7.822  0.5612  0.3066 -0.3113
 2251TIP3    H230949   6.814   2.313   7.970  1.0503  0.3724 -0.3740
 2252TIP3   OH230950   1.460   7.445   7.878 -0.1459  0.0813  0.2682
 2252TIP3    H130951   1.372   7.459   7.914 -0.0793 -0.6687  0.7317
 2252TIP3    H230952   1.463   7.503   7.802 -0.4623  1.3191  1.1655
 2253TIP3   OH230953   0.990   0.449   6.940 -0.2849  0.3933 -0.1449
 2253TIP3    H130954   1.077   0.471   6.972 -0.7168 -0.9109  2.2234
 2253TIP3    H230955   1.004   0.376   6.879  0.3686  1.0751 -0.8224
 2254TIP3   OH230956   0.791   1.722   8.293  0.2954 -0.1100  0.1145
 2254TIP3    H130957   0.855   1.683   8.233  0.0158 -0.2604 -0.0858
 2254TIP3    H230958   0.717   1.661   8.292  0.7425 -0.7373  1.4896
 2255TIP3   OH230959   0.783   3.262   7.809  0.1938 -0.4530  0.4158
 2255TIP3    H130960   0.841   3.311   7.867  0.0897 -0.0732  0.2023
 2255TIP3    H230961   0.840   3.232   7.738  0.2023 -0.4001  0.4000
 2256TIP3   OH230962   6.718   6.095   7.481 -0.6622 -0.4144 -0.0545
 2256TIP3    H130963   6.629   6.131   7.478 -0.9036 -1.0079 -2.2108
 2256TIP3    H230964   6.708   6.007   7.517 -0.9156 -0.3487  0.0342
 2257TIP3   OH230965   1.927   5.634   7.876 -0.2385  0.1412  0.1225
 2257TIP3    H130966   1.970   5.679   7.949 -2.9445 -0.7461  2.4299
 2257TIP3    H230967   1.919   5.702   7.808  2.7941  0.8550  0.3508
 2258TIP3   OH230968   1.646   4.385   6.759 -0.3120  0.1618 -0.3896
 2258TIP3    H130969   1.724   4.351   6.717  1.4360  0.8537  2.0825
 2258TIP3    H230970   1.648   4.480   6.743 -0.0557  0.3234  0.5279
 2259TIP3   OH230971   6.356   6.867   9.000 -0.2796  0.2659 -0.2386
 2259TIP3    H130972   6.360   6.925   9.077  1.3985 -0.3216  0.1695
 2259TIP3    H230973   6.331   6.925   8.928  0.7376  1.3913  0.2689
 2260TIP3   OH230974   2.127   5.037   7.425  0.3446  0.3538  0.1051
 2260TIP3    H130975   2.220   5.051   7.439  0.4164 -0.3927  0.4374
 2260TIP3    H230976   2.091   5.124   7.407  0.7486  0.9740  2.0583
 2261TIP3   OH230977   6.143   3.249   8.203  0.4902  0.6729 -0.3095
 2261TIP3    H130978   6.089   3.206   8.137 -0.2171 -1.6732  1.6544
 2261TIP3    H230979   6.085   3.311   8.245 -1.1735 -2.4149  2.3539
 2262TIP3   OH230980   4.551   5.912   8.429  0.4965 -0.1074 -0.4875
 2262TIP3    H130981   4.539   6.000   8.467 -0.4964  0.5925 -2.3089
 2262TIP3    H230982   4.517   5.853   8.497  0.9846  0.9012  0.6919
 2263TIP3   OH230983   1.150   6.598   9.145 -0.4999  0.6034 -0.1637
 2263TIP3    H130984   1.230   6.546   9.145 -0.2599  0.9635  0.4994
 2263TIP3    H230985   1.082   6.537   9.113  0.2562  0.6938 -2.0490
 2264TIP3   OH230986   0.010   5.113   9.217  0.4322  0.4162 -0.2346
 2264TIP3    H130987  -0.020   5.196   9.253 -1.4437 -0.9983  1.7180
 2264TIP3    H230988   0.100   5.104   9.248  0.3117  1.2493  0.3736
 2265TIP3   OH230989   6.638   0.031   8.275  0.3341  0.4293  0.4753
 2265TIP3    H130990   6.648   0.094   8.204 -2.1304 -0.4646 -0.8059
 2265TIP3    H230991   6.724   0.026   8.316  1.8322  1.1026 -2.3418
 2266TIP3   OH230992   1.264   6.472   7.581 -0.1774  0.0513 -0.0937
 2266TIP3    H130993   1.329   6.409   7.551  0.0777  0.1474  0.2452
 2266TIP3    H230994   1.253   6.453   7.674 -0.3356  0.2960 -0.0613
 2267TIP3   OH230995   6.698   6.685   8.576 -0.5096 -0.3379  0.8155
 2267TIP3    H130996   6.631   6.734   8.529 -0.3478  1.0930  2.0041
 2267TIP3    H230997   6.661   6.670   8.663 -0.1366 -1.4473  0.8022
 2268TIP3   OH230998   3.386   5.448   7.353  0.0086 -0.3846 -0.1358
 2268TIP3    H130999   3.405   5.355   7.352 -1.4672 -0.7070  0.0654
 2268TIP3    H231000   3.306   5.457   7.302  0.7665  0.9397 -1.1576
 2269TIP3   OH231001   4.191   2.198   7.978 -0.0047  0.6000  0.4284
 2269TIP3    H131002   4.279   2.211   8.015  0.0699  2.9675 -0.3983
 2269TIP3    H231003   4.202   2.216   7.884 -0.7988 -2.2080 -0.3056
 2270TIP3   OH231004   5.419   0.387   7.124  0.9795  0.4494  0.1168
 2270TIP3    H131005   5.461   0.459   7.077  2.2184  0.1999  0.7882
 2270TIP3    H231006   5.403   0.421   7.212  0.3442  0.3255  0.0558
 2271TIP3   OH231007   0.106   2.706   9.226 -0.1469  0.1763  0.0577
 2271TIP3    H131008   0.127   2.621   9.264  0.0312 -0.7393 -1.9167
 2271TIP3    H231009   0.148   2.704   9.139 -0.5110  2.1084 -0.2170
 2272TIP3   OH231010   1.858   7.618   7.814  0.0560 -0.0637  1.2989
 2272TIP3    H131011   1.908   7.554   7.763  0.0767 -0.2844  1.5987
 2272TIP3    H231012   1.798   7.566   7.867 -0.1562  0.1802  1.3001
 2273TIP3   OH231013   1.760   4.781   7.740 -0.1177 -0.1667  0.0003
 2273TIP3    H131014   1.733   4.867   7.709  1.9184  1.8761  3.3654
 2273TIP3    H231015   1.855   4.787   7.749 -0.1401 -1.8993  2.5122
 2274TIP3   OH231016   6.270   2.471   7.965 -0.1334  0.0019  0.4291
 2274TIP3    H131017   6.358   2.473   7.928 -0.0225 -0.8765  0.6197
 2274TIP3    H231018   6.257   2.559   8.000  0.0660  0.6052 -0.9608
 2275TIP3   OH231019   3.785   4.781   7.661 -0.4259 -0.1825 -0.7780
 2275TIP3    H131020   3.817   4.784   7.751  0.0686 -1.8980 -0.8568
 2275TIP3    H231021   3.776   4.687   7.642  0.7662  0.0817 -2.9641
 2276TIP3   OH231022   5.659   3.603   8.070  0.4184  0.2009  0.7924
 2276TIP3    H131023   5.705   3.636   7.993  0.5182  2.0785  1.5923
 2276TIP3    H231024   5.670   3.508   8.067 -0.7863  0.0528 -2.2461
 2277TIP3   OH231025   3.017   3.969   8.265  0.1610  0.1151  0.1149
 2277TIP3    H131026   2.948   3.990   8.201 -0.5704 -0.5213  0.6727
 2277TIP3    H231027   3.069   4.049   8.270  0.4250  0.0831 -1.4999
 2278TIP3   OH231028   7.443   6.777   8.365  0.2737  0.2519 -0.1634
 2278TIP3    H131029   7.352   6.748   8.356  0.6004 -2.3281  2.9188
 2278TIP3    H231030   7.492   6.717   8.309  0.4028 -1.7346  1.9109
 2279TIP3   OH231031   3.674   4.642   9.038  0.3920 -0.2005 -0.2669
 2279TIP3    H131032   3.687   4.729   9.000  0.7527  0.6990  1.8054
 2279TIP3    H231033   3.682   4.655   9.132 -0.9849 -2.2456  0.1997
 2280TIP3   OH231034   2.304   4.103   8.835  0.1080  0.1572  0.5591
 2280TIP3    H131035   2.380   4.145   8.877  0.8252 -0.4578 -0.0756
 2280TIP3    H231036   2.279   4.033   8.895 -1.5064  1.8429  1.9422
 2281TIP3   OH231037   5.197   5.751   7.131  0.6255 -0.3370 -0.1906
 2281TIP3    H131038   5.226   5.803   7.057 -1.0064 -0.4542 -0.9395
 2281TIP3    H231039   5.221   5.803   7.208 -2.1926  2.2895 -0.9060
 2282TIP3   OH231040   6.753   1.286   8.272  0.0740  0.2059 -0.0542
 2282TIP3    H131041   6.804   1.352   8.319 -0.5111  0.4232  0.2998
 2282TIP3    H231042   6.816   1.240   8.218  0.5622  0.7906  0.0042
 2283TIP3   OH231043   3.249   5.217   8.903  0.5688 -0.1896 -0.1305
 2283TIP3    H131044   3.246   5.310   8.926  1.5143 -0.6492  2.1171
 2283TIP3    H231045   3.166   5.201   8.859  0.1821  1.6093 -0.1359
 2284TIP3   OH231046   4.903   0.579   6.889  0.3931 -0.0029  0.0678
 2284TIP3    H131047   4.925   0.539   6.973  0.5813 -0.6678 -0.2883
 2284TIP3    H231048   4.984   0.618   6.858  0.0806  1.1598  0.6724
 2285TIP3   OH231049   2.507   3.606   9.360  0.2752 -0.2934 -0.1319
 2285TIP3    H131050   2.416   3.588   9.384  0.3016 -0.1625  0.0723
 2285TIP3    H231051   2.519   3.561   9.276 -0.2571  0.4784 -0.6378
 2286TIP3   OH231052   0.665   3.271   9.690  0.2093  0.2211  0.0819
 2286TIP3    H131053   0.724   3.340   9.719  0.6954 -0.2689  0.2725
 2286TIP3    H231054   0.587   3.317   9.659  0.0302  0.8157  1.3368
 2287TIP3   OH231055   3.832   5.339   7.153  0.4366 -0.1540  0.2321
 2287TIP3    H131056   3.850   5.264   7.210 -0.7254 -0.4923  0.1844
 2287TIP3    H231057   3.806   5.409   7.214  2.0795  0.4138  0.3225
 2288TIP3   OH231058   5.690   2.200   8.107 -0.2694 -0.1483 -0.5374
 2288TIP3    H131059   5.676   2.270   8.171 -0.5510  0.8564 -1.6346
 2288TIP3    H231060   5.605   2.156   8.101  0.2516 -1.4571  1.0919
 2289TIP3   OH231061   5.306   7.343   9.672 -0.0542  0.4263 -0.4018
 2289TIP3    H131062   5.285   7.250   9.684 -2.5840  0.8989 -0.4830
 2289TIP3    H231063   5.263   7.387   9.746  1.2972  1.5439 -0.2321
 2290TIP3   OH231064   4.688   5.474   7.422 -0.3170 -0.1171 -0.0268
 2290TIP3    H131065   4.604   5.428   7.424 -0.4914  0.2071  1.8880
 2290TIP3    H231066   4.751   5.407   7.392 -0.9658 -0.8564  0.2214
 2291TIP3   OH231067   6.302   3.252   8.663 -0.0279 -0.6351  0.1408
 2291TIP3    H131068   6.373   3.213   8.612 -0.3855 -0.0209 -0.8706
 2291TIP3    H231069   6.223   3.207   8.633 -0.2583 -0.1671  0.0253
 2292TIP3   OH231070   4.153   1.108   7.959 -0.5578 -0.3005  0.0324
 2292TIP3    H131071   4.111   1.056   7.891 -0.9867 -1.9657  1.4806
 2292TIP3    H231072   4.211   1.047   8.003 -0.7274  0.5495  1.5193
 2293TIP3   OH231073   0.835   3.431   6.750  0.2587  0.1990  0.2334
 2293TIP3    H131074   0.902   3.376   6.789 -0.9583 -0.8873  0.8814
 2293TIP3    H231075   0.881   3.484   6.686  1.9439  0.4152  1.5513
 2294TIP3   OH231076   3.554   6.556   9.240 -0.2261  0.4111  0.1868
 2294TIP3    H131077   3.553   6.643   9.199 -1.3172 -0.1246 -0.9921
 2294TIP3    H231078   3.559   6.574   9.334 -0.0816  1.7433 -0.0543
 2295TIP3   OH231079   2.694   4.360   9.639  0.3096 -0.2545  0.4899
 2295TIP3    H131080   2.705   4.449   9.604  0.3975  0.1710  1.5786
 2295TIP3    H231081   2.782   4.323   9.639  0.2882 -0.3081  0.1289
 2296TIP3   OH231082   4.208   1.652   8.558  0.2305  0.0546 -0.6270
 2296TIP3    H131083   4.157   1.575   8.534  0.4820 -0.0822 -0.7264
 2296TIP3    H231084   4.146   1.725   8.554  0.2255  0.0160 -1.5383
 2297TIP3   OH231085   2.529   6.641   8.609 -0.2029  0.4143  0.1164
 2297TIP3    H131086   2.552   6.732   8.590  0.2413  0.0860 -0.9851
 2297TIP3    H231087   2.553   6.593   8.530 -0.6174 -0.6356  0.6093
 2298TIP3   OH231088   5.003   2.774   7.628 -0.0479 -0.0769 -0.3657
 2298TIP3    H131089   5.062   2.702   7.649  1.3211  0.6241 -1.6654
 2298TIP3    H231090   5.023   2.796   7.537 -1.1725  1.2528 -0.3206
 2299TIP3   OH231091   5.593   7.570   9.305  0.2681  0.6057 -0.2899
 2299TIP3    H131092   5.632   7.572   9.392  0.4549  0.7868 -0.3771
 2299TIP3    H231093   5.514   7.517   9.316  0.8299 -0.2362 -0.2383
 2300TIP3   OH231094   4.004   1.512   6.839 -0.2541  0.4786  0.4289
 2300TIP3    H131095   4.048   1.507   6.924  0.5213 -0.4878 -0.0101
 2300TIP3    H231096   3.935   1.446   6.844 -0.8873  1.1375  0.6639
 2301TIP3   OH231097   4.542   6.467   9.092 -0.5299  0.7892 -0.0963
 2301TIP3    H131098   4.468   6.411   9.115 -1.7699  1.7609 -1.5516
 2301TIP3    H231099   4.561   6.447   9.001  0.8807  0.7255  0.1866
 2302TIP3   OH231100   4.794   5.933   8.699 -0.1387  0.8258  0.4384
 2302TIP3    H131101   4.816   5.851   8.655  0.6023  1.9163 -1.2723
 2302TIP3    H231102   4.737   5.905   8.771  0.9055 -1.2903  0.5381
 2303TIP3   OH231103   6.843   1.387   8.706  0.3205  0.3534  0.0747
 2303TIP3    H131104   6.768   1.446   8.700 -0.6913 -1.0179 -2.9059
 2303TIP3    H231105   6.881   1.388   8.618  1.7943 -1.4878  0.6194
 2304TIP3   OH231106   1.839   6.984   7.783 -0.0570 -0.3011  0.4388
 2304TIP3    H131107   1.773   7.028   7.730  0.3723  0.1365  0.2649
 2304TIP3    H231108   1.884   6.925   7.722  0.5701  0.3488  0.2642
 2305TIP3   OH231109   7.137   6.700   8.846  0.1240 -0.2302  0.8874
 2305TIP3    H131110   7.100   6.701   8.757  0.2045  1.7313  0.8249
 2305TIP3    H231111   7.060   6.698   8.903 -0.0675  1.3151  0.7434
 2306TIP3   OH231112   0.119   6.570   6.709 -0.4633  0.1336  0.3363
 2306TIP3    H131113   0.192   6.586   6.650 -0.6685 -0.5665 -0.1180
 2306TIP3    H231114   0.043   6.605   6.663 -1.1572 -3.1611 -1.3101
 2307TIP3   OH231115   2.812   6.823   6.854 -0.2696  0.1810 -0.4321
 2307TIP3    H131116   2.907   6.814   6.846 -0.3713 -0.7433 -0.8182
 2307TIP3    H231117   2.800   6.897   6.913  0.7029 -0.1620  0.2290
 2308TIP3   OH231118   6.609   3.930   8.723 -0.2598 -0.2056  0.3880
 2308TIP3    H131119   6.621   3.840   8.755 -0.7511  0.0683  1.3833
 2308TIP3    H231120   6.695   3.970   8.734 -0.1482 -0.4288  0.3431
 2309TIP3   OH231121   6.423   3.078   8.167  0.2435  0.0554 -0.4437
 2309TIP3    H131122   6.430   3.026   8.087 -0.2209  1.0754 -1.1834
 2309TIP3    H231123   6.467   3.161   8.146  2.4461 -0.5705  1.2505
 2310TIP3   OH231124   7.604   3.335   7.988 -0.2704 -0.6434  0.3882
 2310TIP3    H131125   7.538   3.397   7.955  0.5431 -0.5859 -1.2072
 2310TIP3    H231126   7.579   3.251   7.950  0.2592 -0.7222  0.2033
 2311TIP3   OH231127   0.962   0.145   7.788  0.9491  0.0770 -0.3081
 2311TIP3    H131128   0.987   0.130   7.697 -0.7685 -1.9656 -0.5071
 2311TIP3    H231129   1.004   0.074   7.837  0.3420  0.0493  0.1910
 2312TIP3   OH231130   7.118   4.206   7.688 -0.5975  0.2407 -0.5376
 2312TIP3    H131131   7.114   4.256   7.606  1.0723  0.0582 -0.7721
 2312TIP3    H231132   7.211   4.207   7.712 -0.9918 -0.1295  1.1048
 2313TIP3   OH231133   2.233   1.367   8.217  0.4124 -0.1121  0.6217
 2313TIP3    H131134   2.164   1.303   8.232  0.6912 -0.5886 -0.0526
 2313TIP3    H231135   2.309   1.333   8.264  0.2535  0.3123  1.2006
 2314TIP3   OH231136   2.749   5.470   6.919 -0.2959  0.6186  0.0726
 2314TIP3    H131137   2.785   5.420   6.992 -0.0460  0.7058  0.0097
 2314TIP3    H231138   2.659   5.438   6.910 -0.8948  1.7993  1.4970
 2315TIP3   OH231139   2.389   0.926   7.305  0.3045 -0.4056 -0.2361
 2315TIP3    H131140   2.428   0.979   7.374 -0.4086  1.0375 -0.9016
 2315TIP3    H231141   2.459   0.865   7.280  1.4958  0.8546 -0.1034
 2316TIP3   OH231142   5.633   4.827   7.308  0.3084  0.3948  1.1613
 2316TIP3    H131143   5.680   4.885   7.367 -0.0050 -1.1155  2.9843
 2316TIP3    H231144   5.600   4.756   7.364 -2.4405  0.3220 -0.3431
 2317TIP3   OH231145   1.594   0.737   7.015 -0.2739 -0.4857 -0.1566
 2317TIP3    H131146   1.670   0.727   7.072 -0.6068 -0.7710  0.2428
 2317TIP3    H231147   1.548   0.813   7.050 -0.9297 -1.1577  0.4948
 2318TIP3   OH231148   1.591   1.240   7.278 -0.6755 -0.0469  0.3583
 2318TIP3    H131149   1.634   1.167   7.322 -1.2863  0.0137  1.0770
 2318TIP3    H231150   1.546   1.200   7.204  1.8104  0.0789 -1.3611
 2319TIP3   OH231151   2.738   0.816   8.500 -0.0730  0.1942  0.9058
 2319TIP3    H131152   2.775   0.733   8.468  0.7968  1.0579 -0.4597
 2319TIP3    H231153   2.656   0.791   8.542 -0.8098 -1.1916 -1.1735
 2320TIP3   OH231154   1.619   5.308   9.449 -0.3170  0.2060 -0.4954
 2320TIP3    H131155   1.637   5.214   9.441 -0.3754  0.1627 -0.1591
 2320TIP3    H231156   1.524   5.315   9.439 -0.6038 -0.0373  1.6157
 2321TIP3   OH231157   0.595   0.640   6.866  0.0441  0.0945 -0.3886
 2321TIP3    H131158   0.569   0.562   6.817  0.3884  0.3013 -0.9098
 2321TIP3    H231159   0.588   0.614   6.958  3.0949 -1.5874 -0.4945
 2322TIP3   OH231160   6.766   5.001   8.782  0.3239  0.1578  0.0328
 2322TIP3    H131161   6.763   5.094   8.760  1.4167  0.3825  0.7843
 2322TIP3    H231162   6.854   4.986   8.815  0.1609 -1.1501 -0.0541
 2323TIP3   OH231163   7.083   6.312   7.766 -0.4004 -0.0095 -0.2541
 2323TIP3    H131164   7.029   6.287   7.692 -0.0459 -0.3428 -0.3996
 2323TIP3    H231165   7.072   6.241   7.830 -0.0133 -0.1570 -0.3481
 2324TIP3   OH231166   1.902   4.495   8.084 -0.2240 -0.3348  0.4829
 2324TIP3    H131167   1.948   4.576   8.107  1.6896 -1.1467 -0.3152
 2324TIP3    H231168   1.846   4.477   8.160  1.5290  0.1746  1.9512
 2325TIP3   OH231169   5.710   3.808   7.332  0.1265 -0.1271 -0.2520
 2325TIP3    H131170   5.801   3.818   7.305 -0.5369  0.6190 -2.3742
 2325TIP3    H231171   5.677   3.897   7.343 -0.6119 -0.3562 -0.5005
 2326TIP3   OH231172   7.498   7.442   9.423 -0.7398 -0.2072  0.3325
 2326TIP3    H131173   7.519   7.535   9.430 -0.9156 -0.1890  0.6530
 2326TIP3    H231174   7.494   7.425   9.329 -1.7524  0.3500  0.2648
 2327TIP3   OH231175   0.685   1.726   7.393  0.4553  0.2733  0.4386
 2327TIP3    H131176   0.758   1.727   7.455 -1.3788  1.9677  2.7611
 2327TIP3    H231177   0.606   1.730   7.448 -1.4224 -0.8282 -1.9509
 2328TIP3   OH231178   4.501   0.464   9.300 -0.0506  1.1127 -0.4609
 2328TIP3    H131179   4.462   0.378   9.312  2.8126 -0.0043  2.0439
 2328TIP3    H231180   4.526   0.466   9.207  0.9545 -1.3045 -0.2971
 2329TIP3   OH231181   0.266   0.623   9.134  0.6249 -0.5777  0.3205
 2329TIP3    H131182   0.342   0.608   9.190  0.6247 -0.2433  0.4098
 2329TIP3    H231183   0.294   0.690   9.072  0.6807 -1.0716 -0.1907
 2330TIP3   OH231184   0.380   3.507   6.698  0.1388  0.1195 -0.2958
 2330TIP3    H131185   0.434   3.543   6.627 -0.5164  2.3996  0.2674
 2330TIP3    H231186   0.296   3.487   6.656  0.1511  0.2956 -0.4050
 2331TIP3   OH231187   4.075   1.550   7.105  0.4167  0.2182  0.1146
 2331TIP3    H131188   4.107   1.464   7.134  0.2212 -0.1563 -0.7657
 2331TIP3    H231189   4.018   1.578   7.176 -0.7371 -1.0845 -0.2494
 2332TIP3   OH231190   1.486   3.113   9.595  0.1727  0.2389  0.2829
 2332TIP3    H131191   1.458   3.192   9.549 -1.1695  0.6608  1.7361
 2332TIP3    H231192   1.404   3.066   9.614  0.8339 -0.7714  0.6976
 2333TIP3   OH231193   2.855   2.608   9.213 -0.0643  0.4101 -0.1775
 2333TIP3    H131194   2.932   2.649   9.175  0.3655  1.3994  1.6301
 2333TIP3    H231195   2.858   2.633   9.305 -2.1559 -0.1481  0.0907
 2334TIP3   OH231196   1.714   2.157   9.450  0.1578 -0.0181 -0.5130
 2334TIP3    H131197   1.753   2.238   9.483 -0.0444 -0.1839  0.1489
 2334TIP3    H231198   1.622   2.178   9.437  0.2833  0.1165 -1.2210
 2335TIP3   OH231199   7.500   3.607   8.545 -0.0340  0.4460 -0.2636
 2335TIP3    H131200   7.589   3.619   8.578  1.9169 -0.0822 -4.6483
 2335TIP3    H231201   7.457   3.691   8.562  0.9555  0.4946  2.5549
 2336TIP3   OH231202   4.947   6.206   8.784 -0.5293  0.2752 -0.1341
 2336TIP3    H131203   4.912   6.129   8.739 -0.2251 -0.6751  1.1930
 2336TIP3    H231204   5.041   6.203   8.766 -0.7890  1.6809 -2.0038
 2337TIP3   OH231205   1.700   4.775   7.273 -0.0209 -0.1644 -0.2252
 2337TIP3    H131206   1.766   4.844   7.275 -0.2984  0.0944  0.5510
 2337TIP3    H231207   1.653   4.789   7.191 -1.1375  1.6115  0.6479
 2338TIP3   OH231208   6.863   1.243   9.001  0.2882  0.0992  0.7692
 2338TIP3    H131209   6.881   1.158   8.959 -0.2321  0.2238  0.2744
 2338TIP3    H231210   6.771   1.260   8.980 -0.4569 -0.5277  3.2144
 2339TIP3   OH231211   5.801   3.539   7.233  0.4832  0.1803  0.2220
 2339TIP3    H131212   5.753   3.551   7.152 -1.3288 -0.4864  1.1349
 2339TIP3    H231213   5.818   3.628   7.265  0.3430  0.4281 -0.3911
 2340TIP3   OH231214   1.092   5.419   8.161 -0.1695 -0.3256  0.1526
 2340TIP3    H131215   1.052   5.505   8.175  0.2196  0.0750 -1.1265
 2340TIP3    H231216   1.154   5.432   8.089 -0.4325 -1.7708 -0.3664
 2341TIP3   OH231217   7.129   5.782   9.188 -0.4785 -0.0036 -0.0919
 2341TIP3    H131218   7.217   5.819   9.183 -0.3669 -0.0272  1.2861
 2341TIP3    H231219   7.116   5.764   9.281 -0.9415 -2.3918 -0.5528
 2342TIP3   OH231220   0.065   6.893   8.092  0.0099  0.0778 -0.0298
 2342TIP3    H131221  -0.008   6.883   8.154  0.4463  0.5895  0.5795
 2342TIP3    H231222   0.108   6.974   8.119 -0.8452  1.3333 -2.1284
 2343TIP3   OH231223   7.610   3.824   7.543  0.4606  0.0314 -0.7801
 2343TIP3    H131224   7.559   3.763   7.596  1.8208 -0.4614  0.0142
 2343TIP3    H231225   7.647   3.770   7.473  0.2138  0.2991 -1.1172
 2344TIP3   OH231226   0.853   4.414   8.405 -0.3011 -0.7873 -0.1666
 2344TIP3    H131227   0.832   4.506   8.390  0.9536 -0.4644 -0.0582
 2344TIP3    H231228   0.829   4.399   8.497 -0.5787 -0.5928 -0.2059
 2345TIP3   OH231229   7.499   4.262   8.709  0.4343  0.0216  0.1057
 2345TIP3    H131230   7.573   4.238   8.653  1.9510 -1.3812  2.5117
 2345TIP3    H231231   7.535   4.327   8.770 -0.7787  0.5233  0.3141
 2346TIP3   OH231232   5.500   6.366   8.961  0.7978 -0.1217 -0.5763
 2346TIP3    H131233   5.585   6.384   9.003  1.4803 -2.5624 -0.7407
 2346TIP3    H231234   5.510   6.400   8.872  1.0173  0.9666 -0.1590
 2347TIP3   OH231235   3.908   7.066   7.284  0.0386  0.2858  0.2624
 2347TIP3    H131236   3.825   7.024   7.261 -0.1839  0.8168  0.0687
 2347TIP3    H231237   3.906   7.149   7.237  0.7333  0.2531  0.1741
 2348TIP3   OH231238   3.444   7.028   9.167  0.5212  0.1622 -0.3213
 2348TIP3    H131239   3.349   7.018   9.164  0.4871  0.0127  0.8195
 2348TIP3    H231240   3.463   7.093   9.099 -0.4614  0.6628 -0.1408
 2349TIP3   OH231241   7.251   3.651   7.673 -0.4789  0.2095 -0.2731
 2349TIP3    H131242   7.209   3.607   7.747 -1.1963 -1.5376 -1.6546
 2349TIP3    H231243   7.345   3.635   7.685 -0.6425 -0.6087 -0.0671
 2350TIP3   OH231244   3.492   5.612   6.785 -0.0427 -0.1783  0.5576
 2350TIP3    H131245   3.515   5.568   6.866  0.6061  0.4257  0.7079
 2350TIP3    H231246   3.575   5.643   6.749 -0.6017  3.0673  1.6944
 2351TIP3   OH231247   0.025   3.670   8.143 -0.7471 -0.0535 -0.4465
 2351TIP3    H131248   0.117   3.645   8.145 -0.1415  1.8997 -1.1109
 2351TIP3    H231249  -0.014   3.624   8.217  0.8315 -0.6359  0.0635
 2352TIP3   OH231250   6.833   2.578   7.734 -0.2911 -0.2530 -0.5473
 2352TIP3    H131251   6.840   2.653   7.674 -1.2884  0.1825 -0.1368
 2352TIP3    H231252   6.899   2.595   7.801 -2.3436  1.7781  1.1202
 2353TIP3   OH231253   3.257   5.171   8.102  0.2392 -0.5717 -0.3993
 2353TIP3    H131254   3.196   5.166   8.175 -1.7800  0.3812 -1.9132
 2353TIP3    H231255   3.342   5.153   8.140 -0.9172 -1.5630  1.8959
 2354TIP3   OH231256   2.590   0.132   7.606 -0.2492  0.1381  0.4021
 2354TIP3    H131257   2.635   0.064   7.656  3.2543  1.0773 -1.2047
 2354TIP3    H231258   2.576   0.094   7.520  1.3011  1.2188 -0.3600
 2355TIP3   OH231259   3.792   7.201   8.787  0.5045 -0.7098  0.1728
 2355TIP3    H131260   3.796   7.293   8.762  0.5429 -1.3411 -2.5100
 2355TIP3    H231261   3.883   7.175   8.800  0.4702 -0.3143  1.2956
 2356TIP3   OH231262   1.925   0.105   9.048 -0.1393 -0.2739  0.2178
 2356TIP3    H131263   1.838   0.142   9.037 -0.6846 -0.7942  2.2782
 2356TIP3    H231264   1.984   0.180   9.046 -0.6987  0.1560 -0.5051
 2357TIP3   OH231265   0.965   1.439   8.988  0.3243  0.3420  0.6869
 2357TIP3    H131266   0.895   1.398   9.040 -0.2261 -0.8291 -0.8770
 2357TIP3    H231267   1.045   1.399   9.020 -0.0744 -0.9038  0.1988
 2358TIP3   OH231268   0.638   6.727   8.387 -0.3752 -0.1634  0.1428
 2358TIP3    H131269   0.635   6.635   8.358  0.1930 -0.1247 -0.0655
 2358TIP3    H231270   0.608   6.725   8.477 -1.5223 -0.3872 -0.2258
 2359TIP3   OH231271   5.469   7.204   8.158 -0.4636 -0.2887 -0.4640
 2359TIP3    H131272   5.420   7.223   8.078  0.1301 -0.2643 -0.8283
 2359TIP3    H231273   5.520   7.125   8.136  1.1096  0.7649 -0.7458
 2360TIP3   OH231274   5.952   2.221   8.162  0.1780  0.5409  0.6820
 2360TIP3    H131275   5.991   2.134   8.154  1.5276  1.2352 -0.7286
 2360TIP3    H231276   5.863   2.210   8.128  0.4896 -0.2007  0.0847
 2361TIP3   OH231277   1.019   3.835   7.432 -0.1295 -0.5393  0.4301
 2361TIP3    H131278   0.927   3.828   7.410 -0.2924  1.1628  0.4532
 2361TIP3    H231279   1.025   3.913   7.487  1.4082 -0.2592 -0.0888
 2362TIP3   OH231280   2.501   2.624   9.265 -0.5525  0.0087 -0.2372
 2362TIP3    H131281   2.535   2.541   9.233 -0.1153  0.0189  0.1893
 2362TIP3    H231282   2.577   2.668   9.303 -0.8994  0.3521  0.0675
 2363TIP3   OH231283   4.555   3.200   8.144 -0.1205  0.8589 -0.7197
 2363TIP3    H131284   4.612   3.270   8.176  1.6073 -0.9164  0.3128
 2363TIP3    H231285   4.616   3.133   8.111 -1.4785 -1.5529  1.3170
 2364TIP3   OH231286   7.078   3.038   8.597  0.2156  0.2410 -0.2978
 2364TIP3    H131287   7.054   2.946   8.600 -0.6899  0.3239 -2.5264
 2364TIP3    H231288   7.063   3.063   8.505  0.1713  2.6687  0.3102
 2365TIP3   OH231289   7.497   2.336   9.358  0.2524 -0.3275 -0.2601
 2365TIP3    H131290   7.476   2.276   9.429 -0.5491  0.7552  0.4404
 2365TIP3    H231291   7.583   2.372   9.382  0.2375 -0.3829 -0.1212
 2366TIP3   OH231292   6.341   3.422   8.264  0.1495 -0.1797 -0.2246
 2366TIP3    H131293   6.296   3.341   8.239  1.3852 -0.6075 -1.1621
 2366TIP3    H231294   6.288   3.458   8.335 -1.1681 -1.1071 -0.7046
 2367TIP3   OH231295   4.128   6.896   7.735  0.1399  0.1468 -0.1660
 2367TIP3    H131296   4.210   6.910   7.782  0.7300 -3.3244  0.1472
 2367TIP3    H231297   4.140   6.939   7.651  0.8475  2.6069  1.1036
 2368TIP3   OH231298   4.185   1.145   8.776  0.3447 -0.4457 -0.1062
 2368TIP3    H131299   4.101   1.157   8.732  0.1675 -0.3416  0.2534
 2368TIP3    H231300   4.184   1.054   8.806  0.8716 -0.8006 -1.1502
 2369TIP3   OH231301   5.258   1.038   8.338  0.1511  0.3655 -0.2451
 2369TIP3    H131302   5.331   1.010   8.282  0.4649 -1.8137  1.1641
 2369TIP3    H231303   5.300   1.092   8.405 -0.0972  2.1609 -1.4526
 2370TIP3   OH231304   4.315   3.067   8.096  0.1120  0.0277  0.7377
 2370TIP3    H131305   4.397   3.107   8.124  0.2187  1.1511 -1.0521
 2370TIP3    H231306   4.281   3.126   8.029 -1.2124 -1.4057  0.0884
 2371TIP3   OH231307   7.517   4.867   6.679 -0.2204  0.3131 -0.2115
 2371TIP3    H131308   7.497   4.774   6.693 -1.3906  0.5244 -0.3735
 2371TIP3    H231309   7.436   4.912   6.703  0.5918  1.3692  0.6520
 2372TIP3   OH231310   6.394   6.378   9.117  0.3030  0.7938  0.4496
 2372TIP3    H131311   6.487   6.400   9.130  0.6138  1.1552 -1.9152
 2372TIP3    H231312   6.392   6.282   9.115  0.7192  0.7891  0.0245
 2373TIP3   OH231313   6.076   3.652   9.129  0.0344 -0.2387  0.1429
 2373TIP3    H131314   6.026   3.648   9.048 -1.2956  2.2545  0.7450
 2373TIP3    H231315   6.167   3.640   9.102 -0.4035  0.2744 -1.6644
 2374TIP3   OH231316   4.148   1.258   9.046 -0.0901 -0.0858 -0.5047
 2374TIP3    H131317   4.172   1.220   8.961 -0.9066 -1.0973 -0.3024
 2374TIP3    H231318   4.226   1.246   9.100  0.7399  1.3176 -1.3247
 2375TIP3   OH231319   4.668   7.167   8.305  0.0810  0.2577  0.1654
 2375TIP3    H131320   4.685   7.075   8.287  0.6884  0.1026  1.3953
 2375TIP3    H231321   4.577   7.170   8.334 -0.1631  0.1642 -0.5748
 2376TIP3   OH231322   5.729   4.543   6.807 -0.4720 -0.1824 -0.4088
 2376TIP3    H131323   5.822   4.537   6.830 -0.5094 -0.1274 -0.2445
 2376TIP3    H231324   5.725   4.514   6.716 -0.1751  0.5939 -0.6754
 2377TIP3   OH231325   6.097   2.138   7.104 -0.4142 -0.3933  0.3730
 2377TIP3    H131326   6.036   2.114   7.173 -1.2131 -0.8963 -0.4782
 2377TIP3    H231327   6.148   2.211   7.140 -0.6269 -0.8136  1.5706
 2378TIP3   OH231328   0.063   6.432   8.586 -0.2119  0.4790  0.2129
 2378TIP3    H131329   0.001   6.505   8.594 -0.2799  0.2642  2.0909
 2378TIP3    H231330   0.148   6.475   8.576  0.1152  1.0175  3.8633
 2379TIP3   OH231331   5.455   2.233   7.468  0.0630 -0.0558  1.1916
 2379TIP3    H131332   5.374   2.260   7.425 -0.4935 -0.7552  1.7556
 2379TIP3    H231333   5.513   2.207   7.397 -0.1412  0.6332  0.7696
 2380TIP3   OH231334   2.589   6.438   8.406  0.5033 -0.4909 -0.2431
 2380TIP3    H131335   2.527   6.365   8.408  0.6122 -0.5915  1.6785
 2380TIP3    H231336   2.675   6.396   8.399  0.6985 -0.7308  2.5940
 2381TIP3   OH231337   4.254   4.884   8.747  0.0821  0.3238 -0.7490
 2381TIP3    H131338   4.221   4.850   8.664 -1.0161  0.1025 -0.2398
 2381TIP3    H231339   4.232   4.977   8.746  0.9828  0.5397 -1.1343
 2382TIP3   OH231340   0.959   2.495   8.639 -0.6486 -0.0024 -0.2807
 2382TIP3    H131341   0.879   2.537   8.607 -2.0795 -0.0670  2.8362
 2382TIP3    H231342   0.996   2.559   8.700 -0.6282 -1.5713  1.4398
 2383TIP3   OH231343   0.135   5.784   7.910  0.5724  0.1677 -0.3549
 2383TIP3    H131344   0.130   5.829   7.826  1.7682  0.4738 -0.2802
 2383TIP3    H231345   0.210   5.823   7.954  4.0559 -4.1782 -1.6877
 2384TIP3   OH231346   6.004   7.491   9.397  0.3191 -0.7736  0.0287
 2384TIP3    H131347   5.944   7.560   9.424 -0.2291 -1.1581 -0.2040
 2384TIP3    H231348   5.972   7.412   9.442  1.2999 -0.7666  0.7926
 2385TIP3   OH231349   4.165   5.345   8.487 -0.3491 -0.6543 -0.1199
 2385TIP3    H131350   4.078   5.330   8.451  0.1598 -0.8468 -1.3010
 2385TIP3    H231351   4.149   5.375   8.577 -1.7216  1.6834 -1.0719
 2386TIP3   OH231352   1.685   1.098   8.735  0.3425 -0.0410 -0.1606
 2386TIP3    H131353   1.716   1.042   8.806  1.3660  0.6818 -0.0129
 2386TIP3    H231354   1.676   1.185   8.774  0.9992  0.3862 -0.9196
 2387TIP3   OH231355   4.836   7.057   8.001 -0.3290 -0.1986  0.4172
 2387TIP3    H131356   4.754   7.092   7.969  0.4249 -0.2404 -1.7338
 2387TIP3    H231357   4.890   7.134   8.019 -0.0937 -0.1631 -0.3663
 2388TIP3   OH231358   1.290   4.791   7.647 -0.1220 -0.6110 -0.2287
 2388TIP3    H131359   1.357   4.844   7.604 -1.4525  1.4999  0.1554
 2388TIP3    H231360   1.316   4.788   7.739 -0.2488 -0.2850 -0.1823
 2389TIP3   OH231361   1.146   7.342   7.157  0.1203 -0.2081  0.1310
 2389TIP3    H131362   1.209   7.335   7.085  0.0749 -0.5253  0.1186
 2389TIP3    H231363   1.135   7.436   7.171  1.8951 -0.1199  1.2661
 2390TIP3   OH231364   6.099   6.688   8.171  0.2232  0.3310 -0.4386
 2390TIP3    H131365   6.159   6.723   8.237 -0.4440  0.4945  0.0847
 2390TIP3    H231366   6.134   6.601   8.151  0.9274  0.6196 -0.5194
 2391TIP3   OH231367   1.297   0.332   7.567  0.5789 -0.1719 -0.0816
 2391TIP3    H131368   1.297   0.424   7.590  1.3074  0.4218 -2.2315
 2391TIP3    H231369   1.368   0.293   7.619  2.1891  1.0961 -1.2349
 2392TIP3   OH231370   6.564   2.502   7.906  0.0006  0.3473  0.2343
 2392TIP3    H131371   6.578   2.419   7.950  0.2886 -0.0787 -0.6391
 2392TIP3    H231372   6.651   2.542   7.901  0.6004 -1.0571 -2.7399
 2393TIP3   OH231373   6.209   7.130   9.148  0.7680 -0.1376 -0.0257
 2393TIP3    H131374   6.257   7.205   9.114 -0.8747 -0.0097 -2.2547
 2393TIP3    H231375   6.147   7.168   9.211 -0.4086  0.4891 -1.5228
 2394TIP3   OH231376   5.641   4.986   8.298  0.0325 -0.1477  0.1910
 2394TIP3    H131377   5.550   4.987   8.268 -0.0464  0.9661  0.4095
 2394TIP3    H231378   5.646   5.059   8.361  1.3340  0.5054 -0.6337
 2395TIP3   OH231379   1.019   6.809   7.308 -0.3287  0.0725  0.0811
 2395TIP3    H131380   0.965   6.792   7.385 -0.0598  1.1689  0.5421
 2395TIP3    H231381   1.102   6.765   7.327 -0.2708  0.3204  0.4226
 2396TIP3   OH231382   4.916   3.500   8.348  0.5218  0.8139 -0.3183
 2396TIP3    H131383   5.002   3.521   8.385  0.3257  1.3302 -0.1378
 2396TIP3    H231384   4.903   3.567   8.280  0.8658 -0.0990 -1.3116
 2397TIP3   OH231385   4.693   3.096   7.628 -0.0559  0.0624  0.2542
 2397TIP3    H131386   4.643   3.083   7.548  1.2760  0.0365 -0.6135
 2397TIP3    H231387   4.784   3.100   7.598  0.4477  0.2477  1.7506
 2398TIP3   OH231388   6.191   0.492   8.284  0.9310  0.1926  0.5462
 2398TIP3    H131389   6.213   0.405   8.252  0.5513 -0.5032  2.1217
 2398TIP3    H231390   6.241   0.551   8.226  0.0091 -0.9436 -1.5288
 2399TIP3   OH231391   2.970   7.281   8.151  0.5730 -0.2630  0.5351
 2399TIP3    H131392   2.969   7.216   8.082 -0.9613 -0.5879  0.8339
 2399TIP3    H231393   2.880   7.312   8.157  0.5485 -0.6004  2.6976
 2400TIP3   OH231394   4.353   6.040   7.570 -0.5440  0.3976  0.4071
 2400TIP3    H131395   4.441   6.058   7.603 -0.0414  0.8159 -1.0776
 2400TIP3    H231396   4.353   5.946   7.551 -1.2433 -0.1174  2.6440
 2401TIP3   OH231397   3.488   5.055   7.007 -0.6378 -0.1744  0.0971
 2401TIP3    H131398   3.494   4.961   7.020  1.4515 -0.2758 -1.1035
 2401TIP3    H231399   3.421   5.065   6.939 -0.0965 -0.9254 -0.5755
 2402TIP3   OH231400   1.419   1.164   7.936  0.7762 -0.6680  0.0369
 2402TIP3    H131401   1.502   1.207   7.912 -0.5135  2.1499  0.1921
 2402TIP3    H231402   1.356   1.196   7.871 -0.4750 -1.6609  0.7282
 2403TIP3   OH231403   4.475   3.165   8.840  0.4569  0.0018 -0.6257
 2403TIP3    H131404   4.498   3.135   8.929  1.6879  1.2335 -0.4966
 2403TIP3    H231405   4.550   3.139   8.787  1.2716  2.2219 -0.6296
 2404TIP3   OH231406   7.098   3.769   9.139 -0.1479 -0.1768  0.0853
 2404TIP3    H131407   7.111   3.739   9.229 -0.5156 -2.0752 -0.4560
 2404TIP3    H231408   7.183   3.805   9.113  0.3295 -0.8067  0.7560
 2405TIP3   OH231409   3.668   0.102   9.120 -0.4841 -0.3124 -0.1004
 2405TIP3    H131410   3.613   0.169   9.079  0.5974  1.3171  0.9984
 2405TIP3    H231411   3.690   0.139   9.205  1.3642 -1.4252 -0.0577
 2406TIP3   OH231412   7.395   3.605   9.046  0.4463 -0.6445 -0.8035
 2406TIP3    H131413   7.406   3.688   8.999 -1.9709  0.0978 -0.2228
 2406TIP3    H231414   7.345   3.550   8.987 -0.5020 -0.5875 -0.0842
 2407TIP3   OH231415   5.298   5.103   8.955  0.6514  0.0270  0.5138
 2407TIP3    H131416   5.360   5.037   8.985  1.7435  0.7136 -0.1582
 2407TIP3    H231417   5.329   5.185   8.995 -0.0095  0.3205  0.4285
 2408TIP3   OH231418   5.085   1.712   7.839  0.3854 -0.4839  0.1407
 2408TIP3    H131419   5.152   1.646   7.858  2.7024  1.1869 -1.6370
 2408TIP3    H231420   5.051   1.738   7.924  1.8889 -1.5117  1.1021
 2409TIP3   OH231421   3.919   1.285   9.211  0.0050  0.1360 -0.0546
 2409TIP3    H131422   3.866   1.225   9.264  0.0825  0.6300  0.5924
 2409TIP3    H231423   3.969   1.228   9.153 -1.5966 -0.3266 -1.0438
 2410TIP3   OH231424   2.729   7.077   8.848 -0.2729 -0.0986  0.3069
 2410TIP3    H131425   2.642   7.082   8.888  0.2387 -0.1435  1.4503
 2410TIP3    H231426   2.755   6.985   8.859  0.6365  0.2858  1.5519
 2411TIP3   OH231427   4.502   1.031   9.058 -0.0190 -0.0810 -0.4828
 2411TIP3    H131428   4.526   0.944   9.090  0.0090 -0.1392 -0.6566
 2411TIP3    H231429   4.551   1.039   8.976  1.0610  0.6505  0.2038
 2412TIP3   OH231430   3.282   6.789   7.444  0.6082  0.4854 -0.1042
 2412TIP3    H131431   3.329   6.716   7.485 -0.8723  0.2574  1.2630
 2412TIP3    H231432   3.291   6.773   7.350  0.7079 -1.2123  0.1685
 2413TIP3   OH231433   4.508   3.795   8.114  0.4516 -0.3653  0.3110
 2413TIP3    H131434   4.551   3.827   8.194 -0.1989 -0.0557  0.5395
 2413TIP3    H231435   4.542   3.851   8.045  0.3298 -0.0393  0.5110
 2414TIP3   OH231436   4.959   2.677   8.105 -0.7562 -0.3501  0.2619
 2414TIP3    H131437   4.964   2.596   8.053 -1.1978 -0.7367  0.8022
 2414TIP3    H231438   5.029   2.669   8.169 -2.0773 -1.3015  1.6613
 2415TIP3   OH231439   6.114   4.940   8.664 -0.2913 -0.2390 -0.5300
 2415TIP3    H131440   6.134   5.033   8.654  1.6677 -0.7580 -1.9057
 2415TIP3    H231441   6.083   4.912   8.578 -3.7136 -0.3023  0.5950
 2416TIP3   OH231442   5.186   2.394   7.102  0.0239  0.4269  0.2032
 2416TIP3    H131443   5.139   2.312   7.118 -2.0428  1.2967 -1.0031
 2416TIP3    H231444   5.136   2.460   7.151  0.6547  1.2304 -0.2176
 2417TIP3   OH231445   7.201   7.407   7.372 -0.3805 -0.0099 -0.4441
 2417TIP3    H131446   7.269   7.445   7.427 -1.1163  0.6619  0.0196
 2417TIP3    H231447   7.175   7.478   7.313  0.3917 -0.7137 -1.6814
 2418TIP3   OH231448   5.486   2.686   8.869  0.2054  0.4252 -0.0640
 2418TIP3    H131449   5.573   2.689   8.908  0.0215  2.3918  0.3072
 2418TIP3    H231450   5.426   2.676   8.943  0.0931 -0.8448 -0.3112
 2419TIP3   OH231451   5.468   1.680   8.017 -0.2522  0.1502 -0.3875
 2419TIP3    H131452   5.478   1.759   7.964  0.7100 -0.2127 -0.7813
 2419TIP3    H231453   5.508   1.702   8.101 -0.5049  0.2686 -0.2982
 2420TIP3   OH231454   6.024   7.668   8.961  0.0537 -0.3046 -0.5729
 2420TIP3    H131455   6.023   7.749   8.909  0.0660  1.2978  1.7462
 2420TIP3    H231456   5.939   7.667   9.006  1.7109  1.0055  2.9620
 2421TIP3   OH231457   6.260   6.464   7.602 -0.3875 -0.0334  0.2374
 2421TIP3    H131458   6.167   6.462   7.578 -0.2587  0.8818 -0.3935
 2421TIP3    H231459   6.299   6.528   7.542  0.8570 -1.1757 -0.2189
 2422TIP3   OH231460   2.460   7.594   8.167  0.2135 -0.7232 -0.0521
 2422TIP3    H131461   2.405   7.517   8.180 -0.0323 -0.5350  0.0433
 2422TIP3    H231462   2.419   7.662   8.221 -0.6252 -0.0154 -1.4907
 2423TIP3   OH231463   1.035   6.537   7.428  0.0371  0.0344  0.2552
 2423TIP3    H131464   1.105   6.495   7.478  0.8478  0.3523 -0.5623
 2423TIP3    H231465   0.956   6.490   7.452  0.6845 -0.9505  0.5073
 2424TIP3   OH231466   3.913   0.228   8.896  0.1162 -0.4065  0.0190
 2424TIP3    H131467   3.842   0.281   8.931 -0.1969 -0.9107  0.1475
 2424TIP3    H231468   3.887   0.210   8.805  0.6843  0.4680 -0.3367
 2425TIP3   OH231469   5.417   6.512   7.123 -0.0902  0.3209 -0.2702
 2425TIP3    H131470   5.458   6.467   7.049 -0.9087  0.8737 -1.0826
 2425TIP3    H231471   5.323   6.512   7.102 -0.2437  1.2489  0.3606
 2426TIP3   OH231472   2.938   0.571   6.987  1.0856  0.4421  0.2478
 2426TIP3    H131473   2.950   0.547   6.895  1.1914  2.6286 -0.3487
 2426TIP3    H231474   2.847   0.547   7.005  1.4125 -1.1441 -0.0229
 2427TIP3   OH231475   1.920   1.402   8.060  0.2084  0.1287  0.2528
 2427TIP3    H131476   1.920   1.366   8.149 -1.2737  0.9687  0.6222
 2427TIP3    H231477   1.940   1.326   8.004  1.2488 -0.3920  1.2741
 2428TIP3   OH231478   6.949   0.633   8.911  0.5563 -0.0596  0.3393
 2428TIP3    H131479   7.041   0.610   8.898  0.7649  1.3138 -0.9090
 2428TIP3    H231480   6.925   0.593   8.995  2.3706 -0.1792  0.8305
 2429TIP3   OH231481   6.880   7.127   8.299  0.1083  0.0803  0.5000
 2429TIP3    H131482   6.855   7.219   8.294  2.2897  0.7903  1.3151
 2429TIP3    H231483   6.862   7.092   8.212  0.1204  1.5385 -0.1242
 2430TIP3   OH231484   0.793   6.834   8.762  0.4866  0.1684 -0.8337
 2430TIP3    H131485   0.716   6.789   8.727  0.2844  0.6792 -1.0481
 2430TIP3    H231486   0.823   6.890   8.691  0.5818  0.5688 -0.4829
 2431TIP3   OH231487   6.448   0.595   7.689 -0.0894 -0.4953  0.2771
 2431TIP3    H131488   6.374   0.655   7.687 -0.9410 -1.5309  0.0656
 2431TIP3    H231489   6.521   0.646   7.654 -0.7856  0.4234  0.1334
 2432TIP3   OH231490   0.166   4.457   7.340  0.3919 -0.4012 -0.6040
 2432TIP3    H131491   0.168   4.483   7.432 -2.5139 -1.8110 -0.0352
 2432TIP3    H231492   0.107   4.519   7.298  0.7548 -0.4971 -1.2757
 2433TIP3   OH231493   3.438   5.508   8.174  0.7730  0.5270 -0.2780
 2433TIP3    H131494   3.470   5.574   8.236 -2.5552 -0.2024  2.5462
 2433TIP3    H231495   3.481   5.427   8.201  1.7517  0.7466 -1.1016
 2434TIP3   OH231496   0.682   3.358   8.393  0.4091  0.0952  0.2862
 2434TIP3    H131497   0.696   3.440   8.347  2.0719 -0.3934 -0.1752
 2434TIP3    H231498   0.753   3.301   8.362 -0.2562 -1.2592  1.1497
 2435TIP3   OH231499   0.561   7.636   8.194  0.0144  0.4417 -0.4981
 2435TIP3    H131500   0.486   7.577   8.196 -1.1096  1.8019 -0.2265
 2435TIP3    H231501   0.632   7.584   8.158 -0.4655 -1.5449  1.2120
 2436TIP3   OH231502   1.592   4.663   9.180 -0.1948 -0.4065  0.2769
 2436TIP3    H131503   1.676   4.621   9.162  0.1577  0.3562  0.1359
 2436TIP3    H231504   1.596   4.747   9.136 -1.5335 -0.8644 -0.7895
 2437TIP3   OH231505   7.044   3.655   8.653 -0.0533  0.1980  0.0458
 2437TIP3    H131506   7.130   3.615   8.656 -0.2825 -0.2091  2.2690
 2437TIP3    H231507   6.996   3.618   8.727 -1.7652  1.2657 -0.4475
 2438TIP3   OH231508   7.282   0.837   8.513  0.2542 -1.0451 -0.1870
 2438TIP3    H131509   7.198   0.793   8.504 -0.9445  1.0613  0.0547
 2438TIP3    H231510   7.295   0.843   8.608 -1.0712  1.5790 -0.0726
 2439TIP3   OH231511   2.448   1.195   8.355  0.5135 -0.4365 -0.0557
 2439TIP3    H131512   2.422   1.213   8.445  0.2378  1.2988 -0.4511
 2439TIP3    H231513   2.517   1.129   8.362  0.2791 -0.5488  1.3896
 2440TIP3   OH231514   6.338   7.338   6.855  0.2183 -0.5194 -0.3549
 2440TIP3    H131515   6.391   7.298   6.787  0.9587  1.2688 -0.8659
 2440TIP3    H231516   6.345   7.278   6.929  2.3543 -0.7177 -0.6555
 2441TIP3   OH231517   7.339   4.139   8.358 -0.4724  0.1320 -0.4154
 2441TIP3    H131518   7.299   4.179   8.281  0.8199 -0.4680 -1.4341
 2441TIP3    H231519   7.307   4.191   8.431 -1.8600  0.6162 -1.3292
 2442TIP3   OH231520   7.601   6.097   8.030  0.3825  0.3143  0.0150
 2442TIP3    H131521   7.550   6.173   8.004  1.7608  0.6585 -1.9229
 2442TIP3    H231522   7.641   6.066   7.948  3.8106  0.5012  1.4545
 2443TIP3   OH231523   6.867   6.592   9.328 -0.4512  0.0109 -0.5095
 2443TIP3    H131524   6.931   6.540   9.377 -1.5158 -0.6253  0.2504
 2443TIP3    H231525   6.905   6.680   9.323  0.0282 -0.1087  0.7884
 2444TIP3   OH231526   4.100   6.126   9.026  0.2888  0.2154  0.1857
 2444TIP3    H131527   4.009   6.138   9.000  0.2122  0.4073  0.5237
 2444TIP3    H231528   4.134   6.058   8.968 -1.1547 -2.7107  2.4872
 2445TIP3   OH231529   3.416   5.763   8.347  0.1410  0.3529  0.1517
 2445TIP3    H131530   3.451   5.804   8.268 -1.4354  0.0782 -0.7452
 2445TIP3    H231531   3.329   5.731   8.321  0.8355 -2.6098  1.1023
 2446TIP3   OH231532   4.727   3.812   9.276  0.3138 -0.3215  0.0225
 2446TIP3    H131533   4.741   3.877   9.344 -0.0811 -0.8658  0.6312
 2446TIP3    H231534   4.726   3.862   9.194 -1.5880  0.6546  0.5953
 2447TIP3   OH231535   6.371   7.030   8.482  0.0114 -0.7475 -0.3070
 2447TIP3    H131536   6.462   7.003   8.490  0.3215 -0.0386 -1.2813
 2447TIP3    H231537   6.358   7.044   8.388  0.0114  2.8298  0.0853
 2448TIP3   OH231538   0.479   6.442   8.069 -0.5078 -0.5101  0.4811
 2448TIP3    H131539   0.519   6.447   8.156  0.1293 -0.9099  0.2243
 2448TIP3    H231540   0.420   6.367   8.074 -0.5748 -0.4497  0.6051
 2449TIP3   OH231541   4.111   6.199   9.301 -0.2299 -0.3307 -0.1449
 2449TIP3    H131542   4.206   6.188   9.305 -0.4820 -2.4863  1.2410
 2449TIP3    H231543   4.087   6.168   9.213  0.3919  1.0548 -0.8355
 2450TIP3   OH231544   6.934   0.793   8.255 -0.0161  0.7754  0.6855
 2450TIP3    H131545   6.916   0.796   8.161 -0.2691  1.3540  0.7517
 2450TIP3    H231546   6.851   0.767   8.295  0.1609  0.2606  0.7341
 2451TIP3   OH231547   7.223   5.797   8.770  0.1089  0.2943 -0.4260
 2451TIP3    H131548   7.141   5.820   8.815 -0.1779 -1.7615  0.1794
 2451TIP3    H231549   7.235   5.867   8.706 -1.4957  1.2727  0.2730
 2452TIP3   OH231550   1.189   1.963   9.011  0.6825  0.1247 -0.9202
 2452TIP3    H131551   1.158   2.028   9.074 -1.5584 -1.2533 -0.4870
 2452TIP3    H231552   1.167   2.000   8.925  0.0590  0.2515 -0.7091
 2453TIP3   OH231553   5.905   6.381   6.755 -0.4569  0.2397 -0.2867
 2453TIP3    H131554   5.846   6.441   6.708  1.5248  2.1815 -0.4398
 2453TIP3    H231555   5.875   6.385   6.846 -1.0217  0.6114 -0.4798
 2454TIP3   OH231556   4.501   1.082   7.926  0.3847 -0.4883  0.0912
 2454TIP3    H131557   4.454   1.025   7.986 -1.4107  0.5970 -0.2136
 2454TIP3    H231558   4.487   1.044   7.839  1.3782 -1.0068  0.1510
 2455TIP3   OH231559   3.053   4.294   7.723 -0.1030  0.9241  0.1117
 2455TIP3    H131560   2.991   4.221   7.715 -0.4964  1.4154 -2.4288
 2455TIP3    H231561   3.057   4.312   7.817 -0.8106 -1.6363  0.7190
 2456TIP3   OH231562   6.976   0.071   8.273  0.6175  0.3717 -0.4205
 2456TIP3    H131563   7.038   0.053   8.202  0.4666 -1.1727 -0.2115
 2456TIP3    H231564   7.007   0.016   8.346 -0.6366  0.0230 -0.1233
 2457TIP3   OH231565   0.257   4.678   9.224 -0.2665  0.2321  0.2301
 2457TIP3    H131566   0.298   4.741   9.165  0.7895  0.6972  1.4278
 2457TIP3    H231567   0.181   4.725   9.259 -0.2049  0.3823  0.1670
 2458TIP3   OH231568   4.227   2.444   9.505  0.1305  0.3094  0.5713
 2458TIP3    H131569   4.177   2.494   9.569  0.5475  0.0878  1.0781
 2458TIP3    H231570   4.165   2.427   9.434 -0.0451  1.4417  0.4399
 2459TIP3   OH231571   5.565   0.716   8.194 -0.1621  0.0736 -0.0526
 2459TIP3    H131572   5.548   0.810   8.204  0.6118  0.2833 -0.5439
 2459TIP3    H231573   5.488   0.673   8.231 -0.2294  0.8867  0.7877
 2460TIP3   OH231574   5.940   6.917   7.355 -0.3559 -0.2328 -0.1942
 2460TIP3    H131575   5.873   6.985   7.353  0.4758  0.7453  2.4930
 2460TIP3    H231576   6.005   6.945   7.291 -0.7044  0.7472 -0.1270
 2461TIP3   OH231577   1.871   1.303   8.358  0.0586  0.2247  0.1157
 2461TIP3    H131578   1.788   1.340   8.330 -0.3063 -1.5709 -1.4201
 2461TIP3    H231579   1.867   1.302   8.453 -1.4167  0.7472  0.0730
 2462TIP3   OH231580   0.836   2.680   7.787 -0.0891 -0.0898 -0.3882
 2462TIP3    H131581   0.830   2.750   7.722  0.3928 -0.4740 -0.8669
 2462TIP3    H231582   0.876   2.721   7.863  0.8405  0.0134 -0.9103
 2463TIP3   OH231583   6.835   2.294   8.431 -0.9435 -0.6233  0.0154
 2463TIP3    H131584   6.841   2.262   8.521 -1.7020 -1.3431 -0.1755
 2463TIP3    H231585   6.916   2.343   8.417 -0.9447 -0.2617  1.1797
 2464TIP3   OH231586   5.866   1.307   8.935 -0.5984  0.1299  0.2083
 2464TIP3    H131587   5.919   1.375   8.976 -1.4088  0.6894  0.3608
 2464TIP3    H231588   5.779   1.319   8.973 -1.5465  1.0188 -2.0406
 2465TIP3   OH231589   4.892   5.471   8.080 -0.0671 -0.4139  0.2398
 2465TIP3    H131590   4.879   5.384   8.044  2.2050 -1.2223  1.1886
 2465TIP3    H231591   4.826   5.478   8.149 -0.3543 -1.3192  0.0732
 2466TIP3   OH231592   0.803   0.989   7.947  0.0759  0.2455 -0.3583
 2466TIP3    H131593   0.758   1.072   7.929 -0.7335 -0.2604 -0.7230
 2466TIP3    H231594   0.843   0.965   7.863  0.0673  0.1268 -0.3285
 2467TIP3   OH231595   2.938   5.761   8.690 -0.0862 -0.7125 -1.4417
 2467TIP3    H131596   2.955   5.685   8.635  0.6931  0.3904 -2.7695
 2467TIP3    H231597   2.957   5.836   8.635 -0.0279  0.4574  0.1015
 2468TIP3   OH231598   1.482   2.921   7.468 -0.4784 -0.0202 -0.1228
 2468TIP3    H131599   1.550   2.854   7.477 -1.2686 -0.8572 -0.2548
 2468TIP3    H231600   1.492   2.953   7.378 -0.8997 -0.8644 -0.4767
 2469TIP3   OH231601   2.949   2.315   9.766  0.7981 -0.1869  0.3494
 2469TIP3    H131602   2.965   2.227   9.732 -0.0445 -0.4825  0.6998
 2469TIP3    H231603   3.031   2.339   9.808  1.3449 -0.4331 -0.5413
 2470TIP3   OH231604   0.711   5.807   8.819 -0.3954  0.5213  0.0625
 2470TIP3    H131605   0.727   5.714   8.803  1.2579  0.2501  2.6692
 2470TIP3    H231606   0.791   5.850   8.790 -0.5637  0.9567  0.2368
 2471TIP3   OH231607   0.606   7.429   8.466 -0.3587 -0.0323 -0.0101
 2471TIP3    H131608   0.514   7.453   8.479  0.7001  3.1448  3.4224
 2471TIP3    H231609   0.650   7.511   8.445  1.7326 -1.5458 -2.0121
 2472TIP3   OH231610   0.462   5.340   7.857 -0.4260  0.3991 -0.0805
 2472TIP3    H131611   0.423   5.360   7.772 -1.2776  0.5065  0.3281
 2472TIP3    H231612   0.472   5.425   7.899 -0.2786  0.3198  0.0462
 2473TIP3   OH231613   3.484   6.990   7.483  0.6246 -0.1001  0.2504
 2473TIP3    H131614   3.533   6.934   7.543  0.3190 -0.2227  0.3831
 2473TIP3    H231615   3.432   6.930   7.430  0.2121  0.0660  0.4676
 2474TIP3   OH231616   6.129   3.119   7.743  0.0070  0.7242 -0.0373
 2474TIP3    H131617   6.084   3.110   7.826 -0.4855  1.4315 -0.2188
 2474TIP3    H231618   6.105   3.041   7.693  1.4184 -0.4145  0.9805
 2475TIP3   OH231619   0.313   3.246   7.602  0.2179  0.2348  0.2975
 2475TIP3    H131620   0.259   3.202   7.667  1.4275 -1.2812  0.3326
 2475TIP3    H231621   0.395   3.265   7.648  0.6715  0.1789 -0.4651
 2476TIP3   OH231622   4.216   1.292   8.477  0.1749  0.4503 -0.2573
 2476TIP3    H131623   4.234   1.242   8.556 -1.0995 -0.5682 -0.5776
 2476TIP3    H231624   4.122   1.310   8.481 -0.1677 -0.6985 -2.1411
 2477TIP3   OH231625   2.290   6.794   8.749 -0.3869 -0.5944 -0.0825
 2477TIP3    H131626   2.258   6.731   8.814  0.7934 -1.2920 -0.1470
 2477TIP3    H231627   2.236   6.778   8.672 -0.7439 -0.8589  0.2167
 2478TIP3   OH231628   3.380   1.209   7.856  0.1993 -0.3887 -0.2219
 2478TIP3    H131629   3.334   1.156   7.921 -0.8225  0.1154 -0.5092
 2478TIP3    H231630   3.315   1.225   7.788  1.1019 -0.4708 -1.1154
 2479TIP3   OH231631   2.943   6.237   7.656 -0.1664 -0.1480 -0.0358
 2479TIP3    H131632   2.927   6.174   7.726  0.6435 -1.1293 -0.7210
 2479TIP3    H231633   3.000   6.303   7.696 -0.0542 -0.4769  0.3518
 2480TIP3   OH231634   4.985   5.080   7.433  0.6490 -0.0425  0.3380
 2480TIP3    H131635   5.072   5.117   7.420 -0.0185  1.3953 -0.1704
 2480TIP3    H231636   4.938   5.146   7.482 -0.8982  0.2872 -1.4920
 2481TIP3   OH231637   2.304   2.407   9.006 -0.3914  0.3975  0.1768
 2481TIP3    H131638   2.227   2.389   8.951 -0.3386 -0.5901  0.4169
 2481TIP3    H231639   2.295   2.500   9.030 -0.7450  0.6708 -0.9746
 2482TIP3   OH231640   5.331   4.898   7.625 -0.2021 -0.0579 -0.3453
 2482TIP3    H131641   5.362   4.809   7.605  0.9297  0.6001 -1.6479
 2482TIP3    H231642   5.403   4.955   7.598 -0.6749  1.2332  1.0359
 2483TIP3   OH231643   3.588   5.331   8.791  0.0164  0.0091 -0.2513
 2483TIP3    H131644   3.575   5.383   8.871  0.4156 -0.2476 -0.0114
 2483TIP3    H231645   3.667   5.279   8.810 -0.4921 -0.8364 -0.4017
 2484TIP3   OH231646   6.274   6.193   8.218  0.2671 -0.4896 -0.1888
 2484TIP3    H131647   6.282   6.142   8.299  2.5635  0.4560  0.2742
 2484TIP3    H231648   6.322   6.142   8.152 -2.7014 -1.9150 -1.4028
 2485TIP3   OH231649   3.315   4.256   7.927  0.0704 -0.0321  0.3525
 2485TIP3    H131650   3.345   4.277   8.015 -0.4319  1.5854  0.1592
 2485TIP3    H231651   3.363   4.316   7.870  0.8778 -1.4860 -0.5856
 2486TIP3   OH231652   6.052   6.855   8.721 -0.6591  0.1197  0.3441
 2486TIP3    H131653   6.062   6.888   8.632  0.5459  0.5870  0.6349
 2486TIP3    H231654   6.065   6.760   8.713 -2.0803 -0.0661 -0.1793
 2487TIP3   OH231655   4.434   0.663   8.320 -0.1670 -0.1532 -0.2160
 2487TIP3    H131656   4.340   0.679   8.330  0.0965  0.9616  0.6447
 2487TIP3    H231657   4.439   0.584   8.266 -1.5907  0.1412 -0.8351
 2488TIP3   OH231658   1.654   5.640   7.627  0.3715 -0.3723  0.2284
 2488TIP3    H131659   1.570   5.679   7.653 -1.6107 -3.6506 -0.6246
 2488TIP3    H231660   1.651   5.551   7.663  3.4451 -0.7064 -0.0537
 2489TIP3   OH231661   6.691   0.713   8.336  0.0868  0.3700 -0.2081
 2489TIP3    H131662   6.648   0.732   8.252  0.5748 -0.4751 -0.6615
 2489TIP3    H231663   6.685   0.618   8.345  1.7423  0.2411 -0.2212
 2490TIP3   OH231664   4.324   1.494   9.103  0.0119  0.3108  0.0588
 2490TIP3    H131665   4.233   1.488   9.071  0.4566 -2.6366 -0.9056
 2490TIP3    H231666   4.328   1.434   9.177  0.8193  1.6802  1.1719
 2491TIP3   OH231667   5.107   2.505   8.272 -0.1904 -0.0622 -0.1242
 2491TIP3    H131668   5.172   2.555   8.322 -0.1983 -0.4033  0.2340
 2491TIP3    H231669   5.157   2.434   8.233 -0.2212  0.0891 -0.4395
 2492TIP3   OH231670   1.469   0.425   8.177 -0.2675  0.6350 -0.2574
 2492TIP3    H131671   1.475   0.439   8.082 -0.2925 -0.5076 -0.4399
 2492TIP3    H231672   1.527   0.492   8.214  0.1241  0.7809 -1.1002
 2493TIP3   OH231673   4.942   6.672   7.738  0.0611  0.3480 -0.1223
 2493TIP3    H131674   5.011   6.697   7.676  0.3400  1.1176  0.4862
 2493TIP3    H231675   4.964   6.583   7.764  0.7951  0.5653  0.0172
 2494TIP3   OH231676   0.086   2.415   8.573  0.2234  0.5510 -0.3539
 2494TIP3    H131677   0.024   2.345   8.554  1.7919 -0.8683 -0.5046
 2494TIP3    H231678   0.049   2.493   8.532 -1.5564 -0.1765 -0.2048
 2495TIP3   OH231679   4.435   1.572   9.491  0.1540  0.8993  0.3106
 2495TIP3    H131680   4.463   1.627   9.563 -0.0993  1.8389 -0.2941
 2495TIP3    H231681   4.395   1.632   9.428  0.9842  0.2035 -0.9307
 2496TIP3   OH231682   1.589   2.774   8.043 -0.0404  0.8926 -0.1405
 2496TIP3    H131683   1.605   2.783   8.137  2.3293 -0.5265 -0.3213
 2496TIP3    H231684   1.535   2.695   8.036  2.0863 -0.6727 -0.0307
 2497TIP3   OH231685   4.696   0.319   9.638 -0.6052 -0.5900  0.4404
 2497TIP3    H131686   4.658   0.357   9.717 -1.5489  0.3531 -0.4368
 2497TIP3    H231687   4.718   0.394   9.583 -1.3548 -1.2464 -0.8177
 2498TIP3   OH231688   5.776   7.130   9.058  0.2998 -0.1234 -0.0225
 2498TIP3    H131689   5.712   7.160   9.123  1.1255 -1.1360  1.3163
 2498TIP3    H231690   5.829   7.066   9.105  2.5184  0.9109 -0.9748
 2499TIP3   OH231691   0.639   2.043   9.835 -0.3308 -0.2095 -0.9419
 2499TIP3    H131692   0.646   2.042   9.740 -1.5803 -1.5446 -1.0615
 2499TIP3    H231693   0.727   2.026   9.867  0.4727  1.9637 -1.7760
 2500TIP3   OH231694   4.494   3.791   7.463  0.3113  0.6297 -0.2088
 2500TIP3    H131695   4.405   3.827   7.458  0.8932  2.1122 -0.3901
 2500TIP3    H231696   4.530   3.804   7.376 -0.1072 -2.3264 -0.9201
 2501TIP3   OH231697   1.773   4.332   7.505 -0.0537 -0.2420  0.2635
 2501TIP3    H131698   1.796   4.341   7.413  1.6350 -1.7560  0.4691
 2501TIP3    H231699   1.816   4.406   7.548 -0.9524  0.5375 -0.1710
 2502TIP3   OH231700   0.863   1.762   8.806 -0.4403 -0.5551 -0.3923
 2502TIP3    H131701   0.916   1.719   8.874 -0.7311  0.5253  0.5462
 2502TIP3    H231702   0.890   1.720   8.724  2.2884  0.3290 -0.0484
 2503TIP3   OH231703   0.547   2.555   8.447 -0.0275 -0.1559 -0.6877
 2503TIP3    H131704   0.487   2.623   8.478 -1.2418 -1.8056  0.7513
 2503TIP3    H231705   0.490   2.490   8.406  1.1058 -0.3503 -2.0181
 2504TIP3   OH231706   4.999   7.463   9.264 -0.6745 -0.4004 -0.1517
 2504TIP3    H131707   5.034   7.374   9.263 -0.6488 -0.3894 -0.3812
 2504TIP3    H231708   5.073   7.517   9.291 -0.4809 -0.3659 -0.7375
 2505TIP3   OH231709   4.253   2.044   8.375  0.6927 -0.2192  0.1062
 2505TIP3    H131710   4.296   2.109   8.430  1.0891 -1.0755  0.8470
 2505TIP3    H231711   4.322   2.014   8.315  0.5026  0.0524 -0.2549
 2506TIP3   OH231712   1.714   6.735   9.628 -0.0219 -0.5062 -0.0210
 2506TIP3    H131713   1.694   6.671   9.696  0.9825  0.1735  0.9451
 2506TIP3    H231714   1.810   6.739   9.627 -0.0741  1.2567  0.2092
 2507TIP3   OH231715   4.921   1.401   8.227 -0.5958  0.2653 -0.9211
 2507TIP3    H131716   4.934   1.444   8.311  0.6066  0.7284 -1.3242
 2507TIP3    H231717   4.826   1.391   8.219 -0.7201  0.2641  0.4583
 2508TIP3   OH231718   3.508   5.520   7.915  0.7977 -0.4013 -0.1731
 2508TIP3    H131719   3.454   5.529   7.994  1.0387  0.9723 -0.1497
 2508TIP3    H231720   3.579   5.461   7.941  0.3523 -0.7128  0.3494
 2509TIP3   OH231721   0.545   5.728   7.642 -0.1684 -0.2804  0.1906
 2509TIP3    H131722   0.616   5.722   7.705  1.2667  1.2247 -1.1808
 2509TIP3    H231723   0.528   5.637   7.617 -0.0290 -0.8108  1.8917
 2510TIP3   OH231724   4.095   5.466   7.913  0.3089 -0.6032  0.4948
 2510TIP3    H131725   4.042   5.515   7.977  0.2415  0.5265 -0.3930
 2510TIP3    H231726   4.184   5.468   7.949 -0.0807 -1.8295  1.6009
 2511TIP3   OH231727   0.157   2.719   7.144  0.4895 -0.3105  0.0177
 2511TIP3    H131728   0.238   2.675   7.169  0.2938 -2.5074 -2.7653
 2511TIP3    H231729   0.179   2.767   7.065 -0.0656  2.3570  1.3716
 2512TIP3   OH231730   5.941   3.175   8.003 -0.3232  0.0000 -0.2303
 2512TIP3    H131731   5.882   3.107   7.971 -0.6719  0.6155 -0.9250
 2512TIP3    H231732   5.883   3.244   8.034  0.0197 -0.4379  1.4448
 2513TIP3   OH231733   6.269   2.638   8.262  0.1776  0.2047  0.0996
 2513TIP3    H131734   6.218   2.558   8.270  1.5010 -0.7045 -0.2144
 2513TIP3    H231735   6.252   2.686   8.343  3.1691 -2.7351  2.7464
 2514TIP3   OH231736   4.358   0.283   8.234 -0.5356 -0.2833  0.0965
 2514TIP3    H131737   4.387   0.193   8.221  1.1560  0.1396  0.5870
 2514TIP3    H231738   4.361   0.295   8.329  1.6890  0.9646 -0.0462
 2515TIP3   OH231739   4.338   6.256   6.929  0.4070 -0.6606 -0.2699
 2515TIP3    H131740   4.306   6.166   6.934  0.0830 -0.5882 -0.9016
 2515TIP3    H231741   4.305   6.298   7.008  2.2360 -1.6009  1.0669
 2516TIP3   OH231742   6.494   2.039   7.386 -0.6943  0.0496 -0.0689
 2516TIP3    H131743   6.493   1.962   7.328  1.7261 -0.6044  0.6440
 2516TIP3    H231744   6.563   2.095   7.351  0.0893  0.1404  1.5338
 2517TIP3   OH231745   5.167   7.566   8.720  0.0639 -0.3111 -0.2959
 2517TIP3    H131746   5.135   7.614   8.643  1.5663  1.2318 -0.0094
 2517TIP3    H231747   5.087   7.532   8.761 -1.2049  2.5655 -0.1391
 2518TIP3   OH231748   0.036   5.252   7.893 -0.8915 -0.1153 -0.8168
 2518TIP3    H131749   0.054   5.163   7.923  2.8321  0.6238 -0.3455
 2518TIP3    H231750   0.107   5.272   7.832 -2.7024  1.9116 -2.4408
 2519TIP3   OH231751   0.225   1.692   9.439  0.2353 -0.2788 -0.1875
 2519TIP3    H131752   0.200   1.685   9.531 -2.2442  1.0498 -0.6653
 2519TIP3    H231753   0.317   1.718   9.441  0.2252 -0.2313  1.9077
 2520TIP3   OH231754   3.417   7.242   7.953 -0.1327 -1.1715 -0.0824
 2520TIP3    H131755   3.331   7.263   7.916  0.2144 -0.6912 -0.6329
 2520TIP3    H231756   3.480   7.271   7.887  0.5654  0.7589  1.3331
 2521TIP3   OH231757   1.994   7.152   7.317 -0.0906  0.1491  0.1556
 2521TIP3    H131758   2.059   7.176   7.250 -0.2640 -0.6735 -0.3274
 2521TIP3    H231759   1.911   7.182   7.281 -0.0350  0.8823  0.6135
 2522TIP3   OH231760   0.335   2.257   8.541 -0.1023 -0.3029 -0.2057
 2522TIP3    H131761   0.254   2.307   8.557 -0.7073 -0.5792 -2.1393
 2522TIP3    H231762   0.314   2.168   8.568 -1.8843 -1.2870 -4.0548
 2523TIP3   OH231763   7.613   1.259   9.308 -0.2113 -0.1860  0.0511
 2523TIP3    H131764   7.649   1.176   9.341 -0.9562 -0.2098  0.8268
 2523TIP3    H231765   7.685   1.321   9.317 -0.2860 -0.2764  1.4251
 2524TIP3   OH231766   1.950   0.539   7.407 -0.0571 -0.0634  0.0096
 2524TIP3    H131767   2.033   0.577   7.379  0.2587 -0.5682  0.2482
 2524TIP3    H231768   1.884   0.593   7.364  0.4020 -0.2582 -0.9913
 2525TIP3   OH231769   1.008   5.889   8.690  0.6085  0.2539 -0.1028
 2525TIP3    H131770   1.086   5.887   8.745 -0.6933  1.0664  1.8980
 2525TIP3    H231771   0.996   5.982   8.668  0.5253  0.0641 -0.8844
 2526TIP3   OH231772   1.791   6.565   9.250 -0.1395 -0.0474 -0.0905
 2526TIP3    H131773   1.849   6.640   9.267 -0.1081  0.0827 -0.7395
 2526TIP3    H231774   1.721   6.601   9.195 -1.1703 -0.0629  1.1507
 2527TIP3   OH231775   0.179   1.176   7.845  0.3434  0.3876  0.4663
 2527TIP3    H131776   0.223   1.094   7.823  0.1980  0.3090  0.4646
 2527TIP3    H231777   0.088   1.151   7.862 -0.5332  0.9102 -2.6512
 2528TIP3   OH231778   0.485   4.731   7.090 -0.1462  0.1896 -0.3674
 2528TIP3    H131779   0.403   4.692   7.060  0.5006 -1.6424  0.1082
 2528TIP3    H231780   0.468   4.825   7.092 -2.4763 -0.1949  0.4220
 2529TIP3   OH231781   0.496   5.683   8.632 -0.2281 -0.3802  0.4293
 2529TIP3    H131782   0.537   5.603   8.667 -2.1338 -1.5525  0.1627
 2529TIP3    H231783   0.449   5.720   8.707 -0.5310 -0.3219  0.2134
 2530TIP3   OH231784   4.360   3.444   8.916  0.2730 -0.1063  0.2746
 2530TIP3    H131785   4.382   3.352   8.933 -1.2108 -0.1767  2.1085
 2530TIP3    H231786   4.267   3.444   8.896  0.7703  0.7362 -2.5920
 2531TIP3   OH231787   1.777   4.843   8.822  0.4210 -0.3278  0.6408
 2531TIP3    H131788   1.811   4.909   8.883 -0.9406 -0.2826  1.3814
 2531TIP3    H231789   1.758   4.891   8.742 -1.1449  0.3415  1.3762
 2532TIP3   OH231790   3.137   7.308   7.539 -0.0671  0.7752  0.2959
 2532TIP3    H131791   3.108   7.344   7.455 -0.0444 -0.2949 -0.1860
 2532TIP3    H231792   3.231   7.293   7.529 -0.0709  0.6019  0.4999
 2533TIP3   OH231793   3.043   6.727   6.699 -0.2883 -0.0556  0.3607
 2533TIP3    H131794   3.138   6.736   6.691 -0.2027  0.9253  2.0523
 2533TIP3    H231795   3.030   6.635   6.724  0.1173 -0.4425 -0.7739
 2534TIP3   OH231796   3.281   3.996   7.468  0.1569  0.4810  0.6449
 2534TIP3    H131797   3.258   3.930   7.533 -1.2831 -0.0872 -0.3945
 2534TIP3    H231798   3.269   3.953   7.384 -1.7554  2.3028 -0.1087
 2535TIP3   OH231799   4.621   7.202   7.784  0.0267 -0.4626  0.2774
 2535TIP3    H131800   4.526   7.206   7.778  0.0253  3.3142  0.4143
 2535TIP3    H231801   4.641   7.232   7.872  1.3374  1.1633 -0.5163
 2536TIP3   OH231802   0.407   1.033   7.644  0.1099 -0.0320  0.0318
 2536TIP3    H131803   0.441   0.945   7.659 -1.2728 -0.7397 -0.9028
 2536TIP3    H231804   0.379   1.033   7.553 -1.7620  0.7257  0.5696
 2537TIP3   OH231805   0.003   5.100   8.352  0.2440  0.6367 -0.3969
 2537TIP3    H131806  -0.050   5.040   8.405 -0.1322  0.9654 -0.4004
 2537TIP3    H231807   0.091   5.060   8.353  0.3579  0.8660  0.8510
 2538TIP3   OH231808   1.537   2.377   7.586  0.1724 -0.5374 -0.4635
 2538TIP3    H131809   1.578   2.431   7.519 -0.2299  0.3745 -0.0003
 2538TIP3    H231810   1.587   2.395   7.665 -0.4575 -0.2196 -0.1297
 2539TIP3   OH231811   1.435   5.818   7.261 -0.5206  0.0612  0.1197
 2539TIP3    H131812   1.443   5.725   7.242  0.6592  0.3503 -0.9254
 2539TIP3    H231813   1.408   5.858   7.178  1.9535  0.9990 -0.3297
 2540TIP3   OH231814   5.425   5.593   7.105  0.5625 -0.0208  0.0934
 2540TIP3    H131815   5.461   5.638   7.029  2.7851 -1.0919  0.4307
 2540TIP3    H231816   5.334   5.624   7.111  0.4745  0.4825 -2.6541
 2541TIP3   OH231817   7.468   2.765   8.491  0.0077  0.1765 -0.0386
 2541TIP3    H131818   7.539   2.826   8.473 -0.5800  0.7533 -0.4686
 2541TIP3    H231819   7.491   2.685   8.443  0.5561  0.2226  0.1499
 2542TIP3   OH231820   1.786   1.785   8.474  0.0710 -0.5982 -0.0794
 2542TIP3    H131821   1.840   1.861   8.451  0.4631 -0.6835  0.5445
 2542TIP3    H231822   1.697   1.819   8.473  0.1806 -0.3047 -0.4975
 2543TIP3   OH231823   5.591   1.920   9.035  0.0375 -0.9260 -0.1919
 2543TIP3    H131824   5.568   1.922   8.942 -2.5858 -0.8502  0.3741
 2543TIP3    H231825   5.656   1.851   9.042  0.4178 -0.8334 -2.0903
 2544TIP3   OH231826   3.567   3.884   8.280  0.4046  0.5786 -0.1611
 2544TIP3    H131827   3.540   3.972   8.307  0.8807  0.6958 -0.0579
 2544TIP3    H231828   3.573   3.889   8.185  1.8639  1.0847 -0.0666
 2545TIP3   OH231829   0.332   1.157   8.756  0.4534  0.6702 -0.2211
 2545TIP3    H131830   0.284   1.074   8.749  2.3501 -0.8045  2.1922
 2545TIP3    H231831   0.312   1.188   8.844  0.6092  2.2518 -0.7179
 2546TIP3   OH231832   2.814   5.190   6.751  0.0792  0.6949  0.4489
 2546TIP3    H131833   2.854   5.144   6.677 -0.2737 -1.0359  1.2890
 2546TIP3    H231834   2.883   5.195   6.817  0.4219  2.3206  0.0037
 2547TIP3   OH231835   1.490   7.144   8.133 -0.0907 -0.3389  0.0277
 2547TIP3    H131836   1.517   7.152   8.042  1.4750 -1.8277  0.3224
 2547TIP3    H231837   1.422   7.076   8.132 -1.6131  1.1279 -0.2724
 2548TIP3   OH231838   4.613   0.075   8.414  0.5205 -0.0214 -0.2808
 2548TIP3    H131839   4.631  -0.008   8.369  1.8479 -0.4311  0.9193
 2548TIP3    H231840   4.653   0.141   8.358  3.6402 -0.6798  0.9840
 2549TIP3   OH231841   4.308   1.324   9.563  0.4316  0.0568 -0.3522
 2549TIP3    H131842   4.347   1.409   9.543 -2.7462  1.4702 -1.2869
 2549TIP3    H231843   4.286   1.329   9.656  1.0709 -0.1261 -0.1885
 2550TIP3   OH231844   2.872   3.092   8.264 -0.7560  0.0237  0.0870
 2550TIP3    H131845   2.896   3.159   8.201 -1.0049 -0.4260 -0.4981
 2550TIP3    H231846   2.867   3.011   8.213 -0.8294 -0.3758  0.7054
 2551TIP3   OH231847   3.410   2.234   7.594  0.3607  0.6752  0.1630
 2551TIP3    H131848   3.319   2.209   7.611 -0.2366  0.1966 -3.0198
 2551TIP3    H231849   3.461   2.159   7.624 -0.5336 -0.0429 -0.0502
 2552TIP3   OH231850   3.544   6.425   7.791 -0.3292  0.1001 -0.3165
 2552TIP3    H131851   3.488   6.348   7.786  0.5108 -0.6310  0.9737
 2552TIP3    H231852   3.513   6.472   7.869 -0.6144  0.9093 -0.9003
 2553TIP3   OH231853   3.870   0.504   6.914  0.0071 -0.0957  0.2029
 2553TIP3    H131854   3.964   0.525   6.912 -0.4140  2.2919 -2.6258
 2553TIP3    H231855   3.857   0.445   6.840 -0.6604 -0.9815  1.0036
 2554TIP3   OH231856   0.375   4.055   8.549 -0.0418 -0.4747  0.3337
 2554TIP3    H131857   0.370   4.147   8.521 -0.8798 -0.3071  1.0109
 2554TIP3    H231858   0.435   4.015   8.486 -0.7747  0.2106 -0.8453
 2555TIP3   OH231859   7.459   3.282   6.809 -0.1688  0.1019 -0.3861
 2555TIP3    H131860   7.441   3.190   6.828 -0.3700  0.1875 -0.1525
 2555TIP3    H231861   7.380   3.315   6.766 -0.6374  0.4990  0.7221
 2556TIP3   OH231862   3.819   0.722   9.199  0.3298 -0.0809  0.1242
 2556TIP3    H131863   3.854   0.809   9.216 -2.3187  1.3389 -1.1009
 2556TIP3    H231864   3.844   0.704   9.108  2.2345 -1.3778  0.8446
 2557TIP3   OH231865   5.148   3.171   8.042  0.2574  0.0690 -0.0144
 2557TIP3    H131866   5.111   3.083   8.050 -2.1455  0.7936 -1.7434
 2557TIP3    H231867   5.177   3.176   7.951  2.3097  0.4499  0.6050
 2558TIP3   OH231868   5.461   2.594   7.319  0.6998  1.0441 -0.4597
 2558TIP3    H131869   5.448   2.570   7.411  0.8057  1.4698 -0.3288
 2558TIP3    H231870   5.375   2.586   7.279  0.6062  1.0763 -0.2658
 2559TIP3   OH231871   5.564   6.160   8.729  0.3224  0.2043  0.2367
 2559TIP3    H131872   5.523   6.105   8.662  0.7945  0.0955  0.0319
 2559TIP3    H231873   5.537   6.249   8.707  1.4052  0.3061 -0.7985
 2560TIP3   OH231874   4.118   0.157   8.558 -0.1673  0.5393  0.4652
 2560TIP3    H131875   4.110   0.068   8.525  1.6498  0.2851  0.6494
 2560TIP3    H231876   4.044   0.167   8.618 -0.1820 -0.9679  0.7206
 2561TIP3   OH231877   5.482   7.524   8.280  0.1801  0.4668  0.2932
 2561TIP3    H131878   5.510   7.443   8.324 -0.0495 -0.5476 -1.3433
 2561TIP3    H231879   5.559   7.580   8.283  0.8764 -0.4492  0.0281
 2562TIP3   OH231880   3.033   2.960   7.774 -0.0006  0.4547 -0.0570
 2562TIP3    H131881   2.991   3.031   7.725  0.1358  0.1228 -0.6592
 2562TIP3    H231882   2.973   2.886   7.764 -1.2527  1.0334  2.3608
 2563TIP3   OH231883   2.944   1.132   6.683  0.3330  0.1624  0.0087
 2563TIP3    H131884   3.003   1.164   6.615 -1.0647  1.8505 -0.4826
 2563TIP3    H231885   2.944   1.200   6.750 -0.1012 -0.3885  0.5895
 2564TIP3   OH231886   6.440   4.229   7.151 -0.0116  0.2066 -0.2423
 2564TIP3    H131887   6.439   4.145   7.197 -0.8720 -0.4608 -1.4114
 2564TIP3    H231888   6.403   4.209   7.065 -3.0084  2.3651  0.4114
 2565TIP3   OH231889   6.573   1.283   8.945  0.3392 -0.1738  0.2271
 2565TIP3    H131890   6.513   1.223   8.989 -1.3875  1.4346  0.2250
 2565TIP3    H231891   6.564   1.262   8.852  2.0741 -1.8858  0.3896
 2566TIP3   OH231892   0.476   6.919   9.276 -0.3879  0.0640 -0.0461
 2566TIP3    H131893   0.488   7.009   9.306  4.1348  0.9587 -3.4283
 2566TIP3    H231894   0.531   6.867   9.335 -1.1731 -0.1761  0.4931
 2567TIP3   OH231895   4.107   5.233   7.052  0.6924 -0.1506  0.3469
 2567TIP3    H131896   4.045   5.298   7.018 -0.1103 -0.4496  1.2045
 2567TIP3    H231897   4.191   5.258   7.013  0.2336  0.8760 -0.0290
 2568TIP3   OH231898   4.403   5.783   8.628 -0.2861 -0.6594 -0.0537
 2568TIP3    H131899   4.451   5.725   8.687  0.5839 -0.9119 -0.9727
 2568TIP3    H231900   4.318   5.739   8.615 -1.0363  0.0703  2.0215
 2569TIP3   OH231901   1.993   2.816   8.484 -0.3407  0.3390  0.2171
 2569TIP3    H131902   2.023   2.853   8.567  0.4510 -0.1573  0.1651
 2569TIP3    H231903   2.069   2.769   8.450 -1.1732 -0.9811  0.0966
 2570TIP3   OH231904   5.515   6.429   7.890  0.0271 -0.1786  0.0434
 2570TIP3    H131905   5.454   6.372   7.845 -0.1743 -0.2973  0.4612
 2570TIP3    H231906   5.463   6.504   7.918  0.5808  0.9784 -1.8223
 2571TIP3   OH231907   6.496   1.542   8.154 -0.1215  0.4791 -0.0198
 2571TIP3    H131908   6.401   1.552   8.156  0.0622  2.9115 -0.5280
 2571TIP3    H231909   6.522   1.575   8.068  1.2351  0.4482  0.3514
 2572TIP3   OH231910   3.550   3.819   8.671 -0.0491  0.4743 -0.0541
 2572TIP3    H131911   3.558   3.836   8.765 -0.4834 -0.8783  0.2532
 2572TIP3    H231912   3.631   3.853   8.633  0.0411  1.2183  0.7790
 2573TIP3   OH231913   6.299   1.784   9.493 -0.3238  0.2195  0.1074
 2573TIP3    H131914   6.229   1.720   9.487  0.5393 -0.7472 -0.0397
 2573TIP3    H231915   6.370   1.738   9.537  0.7640  0.6576 -1.1036
 2574TIP3   OH231916   5.868   4.347   7.858  0.2531 -0.0600  0.1749
 2574TIP3    H131917   5.874   4.259   7.821 -0.0900 -0.4015  0.9073
 2574TIP3    H231918   5.854   4.332   7.952  1.8811  0.7743  0.5808
 2575TIP3   OH231919   3.484   6.905   8.157  0.1179 -0.0731 -0.1140
 2575TIP3    H131920   3.502   6.921   8.250  0.6317 -0.9029 -0.0619
 2575TIP3    H231921   3.394   6.872   8.156  0.0716  0.0446  0.0731
 2576TIP3   OH231922   6.239   5.063   7.465  0.3851  0.6208  0.0342
 2576TIP3    H131923   6.256   4.980   7.509 -0.5067  0.2999 -0.2095
 2576TIP3    H231924   6.274   5.050   7.376 -0.5222  0.1847 -0.2731
 2577TIP3   OH231925   3.555   6.718   7.054  0.1670  0.0108  0.4742
 2577TIP3    H131926   3.512   6.790   7.008 -1.2282 -0.2321  1.3619
 2577TIP3    H231927   3.572   6.653   6.985 -0.3706  0.3548  0.0070
 2578TIP3   OH231928   6.958   7.301   9.374 -0.1400 -0.1312 -0.3230
 2578TIP3    H131929   6.892   7.370   9.372 -0.7418 -0.5964  1.5107
 2578TIP3    H231930   6.908   7.221   9.392  0.5203 -1.1166 -2.5685
 2579TIP3   OH231931   2.175   4.063   8.381 -0.6117 -0.2941  0.4336
 2579TIP3    H131932   2.115   3.988   8.380  0.0271 -0.9224  2.9667
 2579TIP3    H231933   2.224   4.054   8.299 -0.4866 -2.7389  0.6851
 2580TIP3   OH231934   5.803   4.940   7.508  0.2033  0.0383 -0.0170
 2580TIP3    H131935   5.792   4.950   7.603  1.8208  3.2116 -0.0329
 2580TIP3    H231936   5.889   4.900   7.498 -0.6980 -1.9895 -0.2149
 2581TIP3   OH231937   4.399   7.587   7.454  0.5738 -0.5818  0.8640
 2581TIP3    H131938   4.383   7.658   7.392  2.2518 -0.5001  0.4916
 2581TIP3    H231939   4.313   7.568   7.491 -0.3279 -0.0280 -0.8314
 2582TIP3   OH231940   2.504   3.273   8.746 -0.0375  0.1566 -0.0809
 2582TIP3    H131941   2.592   3.284   8.709 -0.2279  1.0446 -0.2762
 2582TIP3    H231942   2.484   3.356   8.788 -0.6651 -0.1472  0.2393
 2583TIP3   OH231943   4.769   0.696   8.972 -0.5094  0.2386  0.5593
 2583TIP3    H131944   4.707   0.690   8.900  0.2148  1.0708 -0.1625
 2583TIP3    H231945   4.829   0.767   8.946 -0.5712  0.9529  2.2289
 2584TIP3   OH231946   4.027   2.446   9.311 -0.8296 -0.0069 -0.0889
 2584TIP3    H131947   3.988   2.359   9.301 -2.7720  0.7791  0.0758
 2584TIP3    H231948   4.080   2.457   9.233 -1.1353 -1.0618 -0.4719
 2585TIP3   OH231949   5.089   0.633   8.719  0.1978 -0.0449 -0.0728
 2585TIP3    H131950   5.011   0.634   8.775  0.9565 -0.7563  1.0083
 2585TIP3    H231951   5.055   0.611   8.632 -0.7045 -1.1676  0.5442
 2586TIP3   OH231952   1.063   6.575   8.160  0.2434 -0.4288  0.1872
 2586TIP3    H131953   1.011   6.564   8.081 -0.3494  0.7278  0.4088
 2586TIP3    H231954   1.035   6.503   8.217  1.1809 -1.6947 -0.8869
 2587TIP3   OH231955   4.189   7.263   9.224  0.0842  0.0399 -0.8033
 2587TIP3    H131956   4.107   7.221   9.249  0.7686 -0.5337  0.5842
 2587TIP3    H231957   4.185   7.349   9.267 -0.6438  0.8696 -2.4041
 2588TIP3   OH231958   0.691   4.311   6.957 -0.3478 -0.4569  0.5404
 2588TIP3    H131959   0.625   4.241   6.958 -0.7704 -0.1569  3.1954
 2588TIP3    H231960   0.662   4.372   7.025  0.6551  1.7169 -0.8802
 2589TIP3   OH231961   4.958   6.030   9.493  0.0166  0.9956  0.0428
 2589TIP3    H131962   5.043   6.052   9.455 -0.1810  1.3217 -0.2182
 2589TIP3    H231963   4.942   5.940   9.465  1.1612  0.2358  1.7237
 2590TIP3   OH231964   3.911   0.103   6.972  0.3090  0.1715 -0.0748
 2590TIP3    H131965   3.854   0.027   6.962 -0.3414  0.8201 -1.4816
 2590TIP3    H231966   3.862   0.176   6.934  1.6146  0.9662 -0.2995
 2591TIP3   OH231967   3.415   2.386   9.122 -0.4757  0.0035  0.5734
 2591TIP3    H131968   3.385   2.469   9.084  0.7235  0.7326  1.1449
 2591TIP3    H231969   3.492   2.410   9.174  1.8200 -1.8826 -1.6932
 2592TIP3   OH231970   6.968   5.790   7.980  0.8850 -0.0545  0.0706
 2592TIP3    H131971   7.016   5.714   7.947  0.4782 -1.3303  2.1726
 2592TIP3    H231972   6.878   5.759   7.988  0.6101  0.8169  0.4721
 2593TIP3   OH231973   3.232   3.233   8.978 -0.2553  0.2420 -0.1029
 2593TIP3    H131974   3.225   3.253   8.885 -1.6134  1.2029  0.1844
 2593TIP3    H231975   3.264   3.314   9.017  1.1676 -0.4322  0.1738
 2594TIP3   OH231976   6.268   2.784   9.214 -0.0450  0.3168 -0.1527
 2594TIP3    H131977   6.308   2.869   9.231 -0.2291  0.5291 -0.7354
 2594TIP3    H231978   6.214   2.798   9.136 -0.2447 -0.2811 -0.1326
 2595TIP3   OH231979   6.722   5.816   7.364  0.4574  0.5330 -0.3141
 2595TIP3    H131980   6.691   5.755   7.431 -0.7930  0.7071 -0.7051
 2595TIP3    H231981   6.816   5.824   7.380  0.0502  1.3683  2.0966
 2596TIP3   OH231982   7.322   4.599   9.299 -0.5620 -1.1809  0.1249
 2596TIP3    H131983   7.417   4.586   9.300 -0.5796 -1.3252  0.9354
 2596TIP3    H231984   7.311   4.692   9.281 -0.2121 -0.8607  1.4439
 2597TIP3   OH231985   7.662   4.218   9.241 -0.4083 -0.1304 -0.3771
 2597TIP3    H131986   7.710   4.265   9.310 -2.7566  0.6948  0.8090
 2597TIP3    H231987   7.684   4.126   9.255  0.9700  0.2166 -0.0402
 2598TIP3   OH231988   0.239   6.869   9.360 -0.4866  0.4066 -0.4391
 2598TIP3    H131989   0.325   6.887   9.322 -0.3174 -2.5260 -1.6466
 2598TIP3    H231990   0.222   6.777   9.340 -3.6890  0.7379  0.2425
 2599TIP3   OH231991   3.192   0.054   9.517 -0.0298  0.1287  0.0083
 2599TIP3    H131992   3.153   0.010   9.442  0.7677 -0.8836  0.1626
 2599TIP3    H231993   3.210  -0.017   9.579  0.2338  0.8262  0.7392
 2600TIP3   OH231994   0.435   1.815   7.521 -0.5571  0.3746 -0.0006
 2600TIP3    H131995   0.353   1.777   7.489 -0.1916 -1.2339  0.8707
 2600TIP3    H231996   0.420   1.833   7.613 -0.7997  2.6968 -0.4425
 2601TIP3   OH231997   3.247   0.646   8.875 -0.1362  0.4047 -0.0086
 2601TIP3    H131998   3.252   0.738   8.851 -0.6636  0.1702 -1.0547
 2601TIP3    H231999   3.191   0.644   8.952 -0.9890  0.8561 -0.6109
 2602TIP3   OH232000   7.322   7.094   6.567  0.5187  0.0766  0.2018
 2602TIP3    H132001   7.359   7.051   6.644  1.8654  1.6938  0.4999
 2602TIP3    H232002   7.282   7.174   6.601  1.5427  1.0582 -0.8018
 2603TIP3   OH232003   7.031   4.330   8.837 -0.2565  0.1350  0.2742
 2603TIP3    H132004   7.099   4.390   8.866  0.1935  0.6564 -1.6742
 2603TIP3    H232005   7.054   4.246   8.876  0.6564  0.6356  0.8504
 2604TIP3   OH232006   0.071   6.208   8.259  0.4552 -0.2465 -0.3364
 2604TIP3    H132007   0.155   6.180   8.223 -0.2315 -1.7859 -0.8500
 2604TIP3    H232008   0.011   6.210   8.184  0.2733  2.0525 -0.1990
 2605TIP3   OH232009   0.754   2.648   8.612  0.3528 -0.0090  0.6044
 2605TIP3    H132010   0.689   2.607   8.555  1.6930  0.3526 -1.2975
 2605TIP3    H232011   0.716   2.643   8.700 -1.9168 -0.4053 -0.3260
 2606TIP3   OH232012   6.199   2.434   7.693 -0.3185 -0.0907 -0.0887
 2606TIP3    H132013   6.190   2.524   7.726 -3.5431 -0.4651  0.3063
 2606TIP3    H232014   6.135   2.428   7.622 -0.1342 -2.0864 -0.1219
 2607TIP3   OH232015   4.239   4.936   8.221 -0.4320 -0.0593  0.1453
 2607TIP3    H132016   4.203   4.862   8.171 -0.4470 -0.8206  1.2342
 2607TIP3    H232017   4.272   4.996   8.155 -0.6377 -0.9388 -0.7872
 2608TIP3   OH232018   5.134   6.044   9.101  0.1153  0.0719 -0.5626
 2608TIP3    H132019   5.078   6.116   9.072  0.0096  0.0664 -0.3736
 2608TIP3    H232020   5.157   6.067   9.192 -0.7047 -0.6105 -0.1714
 2609TIP3   OH232021   3.498   5.291   6.780  0.2579  0.1721 -0.1988
 2609TIP3    H132022   3.471   5.329   6.696 -1.8206 -0.7288 -0.0102
 2609TIP3    H232023   3.437   5.219   6.794  0.3438  0.4792  2.2241
 2610TIP3   OH232024   7.463   0.521   6.898  0.1817  0.8687 -0.0530
 2610TIP3    H132025   7.464   0.606   6.855  4.0223  0.3863 -1.3360
 2610TIP3    H232026   7.476   0.541   6.991  0.6076  1.6964 -0.2842
 2611TIP3   OH232027   0.678   7.425   9.181  0.2504  0.2288  1.0092
 2611TIP3    H132028   0.697   7.360   9.249  1.7005  0.7085  1.1043
 2611TIP3    H232029   0.754   7.483   9.183  0.2442  0.3510 -0.9284
 2612TIP3   OH232030   4.853   2.858   8.699 -0.4433 -0.0350  0.2577
 2612TIP3    H132031   4.818   2.849   8.610 -1.0551 -0.5699  0.5411
 2612TIP3    H232032   4.895   2.774   8.717 -0.0806  0.1706  0.3711
 2613TIP3   OH232033   3.973   7.124   9.353  0.6890 -0.4796 -0.0752
 2613TIP3    H132034   3.929   7.204   9.381 -1.5451 -1.6899  0.1543
 2613TIP3    H232035   3.937   7.056   9.410  2.2731 -1.7189 -0.4818
 2614TIP3   OH232036   4.009   1.448   9.429  0.3018  0.0128 -0.3541
 2614TIP3    H132037   3.977   1.407   9.349  1.0009  0.1414 -0.7157
 2614TIP3    H232038   4.068   1.382   9.468 -1.2886 -0.7044  0.9382
 2615TIP3   OH232039   5.713   1.312   8.072  0.0141  0.1382  0.5886
 2615TIP3    H132040   5.652   1.372   8.116 -0.0768 -0.5742  1.4614
 2615TIP3    H232041   5.733   1.245   8.138  1.2268 -0.0123  0.1039
 2616TIP3   OH232042   1.757   4.128   8.786 -0.8199 -0.6074 -0.0091
 2616TIP3    H132043   1.814   4.093   8.854  1.0395 -0.0576 -1.2158
 2616TIP3    H232044   1.785   4.085   8.706 -1.1812  0.6712 -0.8574
 2617TIP3   OH232045   1.480   3.248   9.113 -0.5021 -1.1950 -0.1449
 2617TIP3    H132046   1.397   3.292   9.130  0.3306 -0.0700  1.2655
 2617TIP3    H232047   1.471   3.212   9.025 -1.9054  0.2535 -0.6359
 2618TIP3   OH232048   0.966   2.692   7.106 -0.0491  0.4079  0.1543
 2618TIP3    H132049   1.045   2.646   7.135  0.6152  1.6148  0.3492
 2618TIP3    H232050   0.899   2.624   7.101  0.8279 -0.5277  0.6509
 2619TIP3   OH232051   5.638   3.469   8.757  0.2822  0.1498 -0.1891
 2619TIP3    H132052   5.607   3.438   8.672  1.6888 -0.0403 -0.6548
 2619TIP3    H232053   5.579   3.428   8.820 -0.1909 -0.4774 -1.0206
 2620TIP3   OH232054   0.194   2.000   8.307 -0.0329  0.6585  0.2097
 2620TIP3    H132055   0.128   2.003   8.376 -1.2689  0.6642 -0.9324
 2620TIP3    H232056   0.148   2.029   8.228  0.7565 -1.2505 -1.0417
 2621TIP3   OH232057   2.145   5.628   7.643  0.5154  0.1674  0.2310
 2621TIP3    H132058   2.183   5.686   7.709  1.7168 -0.4032  0.0672
 2621TIP3    H232059   2.114   5.552   7.692  0.9749 -0.0420  0.2044
 2622TIP3   OH232060   5.283   1.197   7.813 -0.1017  0.2402  0.0705
 2622TIP3    H132061   5.376   1.176   7.798  0.0636  0.7781  0.3212
 2622TIP3    H232062   5.238   1.113   7.803  0.3549  0.0503 -0.5077
 2623TIP3   OH232063   2.764   1.361   7.181 -0.1421 -0.0046  0.1301
 2623TIP3    H132064   2.679   1.379   7.222  0.1347 -0.2263  0.8145
 2623TIP3    H232065   2.800   1.448   7.163 -1.0265  0.0888 -1.2691
 2624TIP3   OH232066   3.607   0.409   9.469 -0.0610 -0.0283  0.1938
 2624TIP3    H132067   3.602   0.405   9.373 -0.9973 -0.8645  0.2593
 2624TIP3    H232068   3.516   0.406   9.498  0.2333 -0.2347  1.1276
 2625TIP3   OH232069   1.748   0.964   9.674 -0.0149  0.1403  0.0389
 2625TIP3    H132070   1.810   0.985   9.605 -1.4024 -1.0480 -1.6721
 2625TIP3    H232071   1.797   0.909   9.735  0.9792  0.4170 -0.5049
 2626TIP3   OH232072   1.262   2.027   7.441 -0.4573 -0.3734  0.4022
 2626TIP3    H132073   1.180   2.069   7.414  0.7193  0.7072 -1.7219
 2626TIP3    H232074   1.289   2.073   7.520 -1.2724  0.0554  0.4392
 2627TIP3   OH232075   0.141   2.648   7.802  0.1519 -0.0580 -0.3480
 2627TIP3    H132076   0.217   2.633   7.858  1.2000  1.3446 -1.3436
 2627TIP3    H232077   0.132   2.566   7.752  0.2979 -0.6491  0.5701
 2628TIP3   OH232078   5.497   1.419   8.276 -0.0273  0.3299  0.2687
 2628TIP3    H132079   5.441   1.407   8.199  0.7150  0.1219 -0.2552
 2628TIP3    H232080   5.523   1.330   8.300  4.7253  0.3917 -3.0440
 2629TIP3   OH232081   6.196   5.959   7.117  0.1943 -0.5366  0.0676
 2629TIP3    H132082   6.178   5.891   7.052 -2.0758  0.6704 -0.6661
 2629TIP3    H232083   6.250   6.023   7.071 -0.8295 -0.0263 -0.4597
 2630TIP3   OH232084   1.950   5.311   9.456  0.2538 -0.1852 -0.5770
 2630TIP3    H132085   2.019   5.375   9.439  0.1821 -0.1094 -0.5872
 2630TIP3    H232086   1.870   5.364   9.462  0.5140  0.0376  1.9270
 2631TIP3   OH232087   5.311   1.339   8.510  0.1323  0.6744 -0.0170
 2631TIP3    H132088   5.381   1.370   8.568 -0.0723  2.0170 -0.4611
 2631TIP3    H232089   5.341   1.363   8.422 -0.5982  0.6987 -0.2626
 2632TIP3   OH232090   5.679   6.769   9.092 -0.3636 -0.0070 -0.4439
 2632TIP3    H132091   5.774   6.777   9.082 -0.4677  1.2846 -0.5440
 2632TIP3    H232092   5.662   6.676   9.079  0.9772 -0.4053  0.3721
 2633TIP3   OH232093   2.626   4.353   7.666  0.4291  0.3246  0.3696
 2633TIP3    H132094   2.663   4.274   7.628 -2.7700 -1.8612  1.3327
 2633TIP3    H232095   2.555   4.378   7.606  0.7331  1.9108  0.6113
 2634TIP3   OH232096   6.152   2.553   9.363  0.5063  0.0665 -0.6978
 2634TIP3    H132097   6.194   2.628   9.320  0.7183  0.5446  0.3179
 2634TIP3    H232098   6.128   2.585   9.450 -0.6133 -0.6534 -0.7192
 2635TIP3   OH232099   0.229   1.467   8.071 -0.5799  0.2134  0.1891
 2635TIP3    H132100   0.259   1.379   8.093 -2.1064 -0.0269  1.5547
 2635TIP3    H232101   0.168   1.454   7.998  0.7379  0.4139 -0.9772
 2636TIP3   OH232102   5.278   6.621   8.332  0.0313 -0.6770 -0.1302
 2636TIP3    H132103   5.304   6.712   8.317 -0.4780 -0.6653 -0.9682
 2636TIP3    H232104   5.361   6.573   8.338  0.2811 -0.4352 -1.4426
 2637TIP3   OH232105   2.395   5.709   7.478 -0.4720 -0.1946  0.0089
 2637TIP3    H132106   2.305   5.688   7.505 -0.6349 -0.1885 -0.5309
 2637TIP3    H232107   2.390   5.797   7.442  0.1013  0.5703  1.6860
 2638TIP3   OH232108   0.649   7.313   7.548 -0.2220 -0.3036 -0.2444
 2638TIP3    H132109   0.732   7.334   7.506 -0.0336  0.3598  0.4429
 2638TIP3    H232110   0.646   7.218   7.548  0.7735 -0.3467  0.1713
 2639TIP3   OH232111   6.576   5.327   8.856  0.1051 -0.0865 -0.0934
 2639TIP3    H132112   6.647   5.284   8.807  1.0846 -0.6111  1.6923
 2639TIP3    H232113   6.617   5.354   8.938 -2.1917 -2.2036  1.9016
 2640TIP3   OH232114   7.062   3.050   7.943 -0.0713 -0.6953  0.0057
 2640TIP3    H132115   7.155   3.072   7.941 -0.2488  0.2701 -3.1966
 2640TIP3    H232116   7.022   3.118   7.997  0.7788  0.4477 -0.7525
 2641TIP3   OH232117   4.300   2.806   7.993 -0.2733 -0.2751  0.4257
 2641TIP3    H132118   4.207   2.816   7.973  0.0697  0.0493 -1.1721
 2641TIP3    H232119   4.327   2.892   8.025 -0.3003 -0.0545 -0.1358
 2642TIP3   OH232120   2.657   5.364   8.673  0.1260 -0.1088  0.2345
 2642TIP3    H132121   2.610   5.283   8.693  0.1815  0.0713  1.1436
 2642TIP3    H232122   2.676   5.358   8.579  0.9505 -1.5903  0.4603
 2643TIP3   OH232123   0.407   1.967   8.543 -0.3947 -0.0405  0.1770
 2643TIP3    H132124   0.342   1.982   8.474 -0.4720  1.4410  0.5347
 2643TIP3    H232125   0.453   1.887   8.516 -2.0409 -0.8744 -0.3093
 2644TIP3   OH232126   4.679   4.198   8.066  0.1417  0.7088  0.0516
 2644TIP3    H132127   4.755   4.244   8.101 -0.5863  2.1292 -0.1528
 2644TIP3    H232128   4.623   4.184   8.142  0.5066 -0.1649  0.1692
 2645TIP3   OH232129   2.287   5.873   8.614 -0.0138 -0.5881 -0.3262
 2645TIP3    H132130   2.239   5.791   8.602 -0.5987 -0.1232 -1.2686
 2645TIP3    H232131   2.378   5.845   8.625 -0.4380 -1.4518  1.1931
 2646TIP3   OH232132   0.153   0.821   7.641  0.4320 -0.2315 -0.5506
 2646TIP3    H132133   0.240   0.791   7.615  0.1867 -0.1666 -1.4942
 2646TIP3    H232134   0.167   0.871   7.721  1.4248  0.8010 -1.3536
 2647TIP3   OH232135   4.720   5.986   6.780  0.0135  0.3165 -0.0131
 2647TIP3    H132136   4.777   5.981   6.856 -3.0914 -0.1560  2.5056
 2647TIP3    H232137   4.639   5.944   6.808 -2.2740  2.5263 -2.6771
 2648TIP3   OH232138   5.067   6.083   6.934  0.2335  0.2503  0.7972
 2648TIP3    H132139   5.084   6.160   6.880 -1.7706 -0.7690 -1.4978
 2648TIP3    H232140   5.141   6.025   6.917 -0.6654 -0.3292 -1.5717
 2649TIP3   OH232141   2.229   0.861   7.615  0.0761 -0.0391 -0.0274
 2649TIP3    H132142   2.142   0.895   7.634  0.3986  0.5413  0.4312
 2649TIP3    H232143   2.238   0.785   7.672 -0.6966 -1.0021 -1.1496
 2650TIP3   OH232144   4.423   4.444   7.836  0.2894 -0.4600 -0.0573
 2650TIP3    H132145   4.463   4.505   7.897 -0.9128  0.6868 -0.3613
 2650TIP3    H232146   4.372   4.500   7.777 -0.8934 -1.7593 -0.3084
 2651TIP3   OH232147   3.880   1.095   9.438  0.4806  0.0381 -0.0709
 2651TIP3    H132148   3.876   1.041   9.517 -0.2937 -0.4303 -0.4254
 2651TIP3    H232149   3.969   1.131   9.439  0.5153 -0.0340  0.9640
 2652TIP3   OH232150   3.862   0.270   6.679 -0.2522 -0.8343 -0.4800
 2652TIP3    H132151   3.840   0.281   6.586 -0.6388  1.2968 -0.1832
 2652TIP3    H232152   3.797   0.206   6.711 -1.5232  0.0388 -1.2152
 2653TIP3   OH232153   3.553   7.469   6.995 -0.4912 -0.1647 -0.0429
 2653TIP3    H132154   3.527   7.560   7.011  1.1565  0.5654 -1.2050
 2653TIP3    H232155   3.642   7.476   6.959 -0.5551 -2.2071 -0.7043
 2654TIP3   OH232156   7.642   6.458   7.707  0.6189  0.3388  0.3244
 2654TIP3    H132157   7.628   6.527   7.771  1.1209  0.7822 -0.0268
 2654TIP3    H232158   7.733   6.431   7.721  0.7848  0.5441 -0.2802
 2655TIP3   OH232159   6.641   4.993   9.086  0.4123  0.4796  0.0452
 2655TIP3    H132160   6.633   4.994   8.990  1.5225 -0.6741 -0.0900
 2655TIP3    H232161   6.551   5.000   9.118 -0.3955 -2.6118 -1.1524
 2656TIP3   OH232162   1.223   2.291   8.621  0.4914 -0.4195  0.0786
 2656TIP3    H132163   1.255   2.348   8.691 -0.7902 -0.6600  0.8998
 2656TIP3    H232164   1.200   2.209   8.664  0.9966 -1.0733 -0.8646
 2657TIP3   OH232165   1.448   0.190   7.727  0.3431 -0.0762 -0.1009
 2657TIP3    H132166   1.439   0.162   7.818  1.6293 -0.2881 -0.0277
 2657TIP3    H232167   1.465   0.110   7.678 -0.5230  0.0125 -0.5737
 2658TIP3   OH232168   4.352   7.591   9.497  0.1162  0.3759 -0.4825
 2658TIP3    H132169   4.397   7.676   9.503 -1.2880  1.0859  0.3499
 2658TIP3    H232170   4.422   7.527   9.508  0.8020  1.4589  2.4011
 2659TIP3   OH232171   0.578   0.656   8.187 -0.5677  0.0528  0.2457
 2659TIP3    H132172   0.595   0.598   8.261  1.8571 -1.7912 -1.6124
 2659TIP3    H232173   0.637   0.731   8.200  2.0531 -1.6295 -1.1319
 2660TIP3   OH232174   2.096   7.069   9.076  0.5682  0.0437 -0.2226
 2660TIP3    H132175   2.119   7.127   9.003  1.4473 -0.4872 -0.3815
 2660TIP3    H232176   2.034   7.120   9.128 -0.0465  0.4478 -1.3179
 2661TIP3   OH232177   2.476   7.119   9.166  0.3288  0.3408 -0.0523
 2661TIP3    H132178   2.544   7.130   9.232  0.2797  1.2816 -0.1473
 2661TIP3    H232179   2.415   7.191   9.182 -1.7252 -1.5589  1.2749
 2662TIP3   OH232180   4.781   5.707   7.317 -0.1180  0.1744  0.3803
 2662TIP3    H132181   4.742   5.620   7.314 -0.5567  0.3036  1.6712
 2662TIP3    H232182   4.857   5.702   7.259 -0.4805 -0.8869 -0.0123
 2663TIP3   OH232183   6.090   2.811   7.240  0.0937 -0.6687  0.5688
 2663TIP3    H132184   6.143   2.828   7.318 -0.4603 -1.1383  1.0620
 2663TIP3    H232185   6.030   2.885   7.236  0.8723 -0.0631 -0.0732
 2664TIP3   OH232186   2.637   0.530   8.281 -0.2077 -0.4789  0.1683
 2664TIP3    H132187   2.562   0.579   8.315 -0.1471 -0.6082  0.4874
 2664TIP3    H232188   2.632   0.544   8.186 -0.8082 -0.7301  0.1552
 2665TIP3   OH232189   1.434   4.993   8.401  0.5853  0.1835  0.0652
 2665TIP3    H132190   1.398   5.004   8.489  0.8861  1.9412  0.0065
 2665TIP3    H232191   1.522   4.958   8.415 -0.3764 -2.3718  0.2859
 2666TIP3   OH232192   3.152   7.078   9.000 -0.1671  0.1043  0.2101
 2666TIP3    H132193   3.136   6.983   9.004 -0.9722  0.2324  0.2548
 2666TIP3    H232194   3.069   7.117   9.028  0.3372  0.8209  0.7451
 2667TIP3   OH232195   2.547   7.437   7.629 -0.0350 -0.2315  0.4929
 2667TIP3    H132196   2.454   7.459   7.639 -0.1970 -1.7415  2.9981
 2667TIP3    H232197   2.551   7.343   7.644  1.8078 -0.3667 -0.6075
 2668TIP3   OH232198   7.346   2.579   7.256 -0.5740 -0.2301  0.6408
 2668TIP3    H132199   7.344   2.596   7.162 -0.1052 -2.5519  0.1548
 2668TIP3    H232200   7.260   2.541   7.275 -0.2557 -0.8138  0.9233
 2669TIP3   OH232201   3.724   4.197   7.675 -0.8604  0.6169  0.6225
 2669TIP3    H132202   3.723   4.236   7.587 -1.4136  0.7355  0.6739
 2669TIP3    H232203   3.638   4.157   7.684 -0.1507 -1.0237  0.4104
 2670TIP3   OH232204   3.216   2.983   8.719  0.4822  0.0513 -0.1308
 2670TIP3    H132205   3.161   2.953   8.647  1.1675 -0.1597 -0.5743
 2670TIP3    H232206   3.205   3.078   8.720  0.9827  0.1222 -0.9397
 2671TIP3   OH232207   5.401   3.862   9.060  0.0994  0.0600 -0.1432
 2671TIP3    H132208   5.380   3.770   9.043 -0.5035 -0.0143  0.8684
 2671TIP3    H232209   5.334   3.890   9.122 -0.1020  1.3738 -0.9250
 2672TIP3   OH232210   4.434   1.755   9.023  0.1801 -0.0256 -0.0765
 2672TIP3    H132211   4.394   1.759   8.936 -0.9230  0.1661  0.4228
 2672TIP3    H232212   4.411   1.668   9.055 -1.1707  0.6161  0.8055
 2673TIP3   OH232213   0.992   1.792   9.611  0.5271  0.4389  0.1915
 2673TIP3    H132214   1.029   1.851   9.545 -0.2664  1.4602  0.6201
 2673TIP3    H232215   0.906   1.768   9.575  0.4015  0.3998  0.5176
 2674TIP3   OH232216   5.551   5.152   7.324  0.1398 -0.6685 -0.0517
 2674TIP3    H132217   5.522   5.204   7.249  0.9293  0.4471  0.3852
 2674TIP3    H232218   5.493   5.076   7.325 -1.4604  0.4951 -0.3490
 2675TIP3   OH232219   3.210   0.864   9.336 -0.2000  0.8066  0.0418
 2675TIP3    H132220   3.291   0.842   9.290 -0.5170  1.1180 -0.6755
 2675TIP3    H232221   3.223   0.955   9.365 -0.7431  1.2736 -1.1081
 2676TIP3   OH232222   6.825   3.078   9.223 -0.4329 -0.3269 -0.0012
 2676TIP3    H132223   6.856   3.070   9.313 -0.8798 -0.3766  0.1510
 2676TIP3    H232224   6.865   3.004   9.178  1.2922  0.7273 -0.2878
 2677TIP3   OH232225   5.696   0.253   9.256  0.2715  0.0339 -0.7417
 2677TIP3    H132226   5.633   0.318   9.287 -1.1114 -0.8812 -1.5021
 2677TIP3    H232227   5.643   0.191   9.206  2.0372  0.1331 -2.8672
 2678TIP3   OH232228   5.909   6.023   8.416 -0.1118  0.4044  0.0158
 2678TIP3    H132229   5.971   5.995   8.484 -0.6002 -2.0357 -0.4261
 2678TIP3    H232230   5.823   5.999   8.451 -0.4742  0.3549 -0.8772
 2679TIP3   OH232231   4.261   3.509   6.995 -1.0585  0.8668 -0.2463
 2679TIP3    H132232   4.337   3.567   6.986 -0.3436  0.0171  0.1036
 2679TIP3    H232233   4.293   3.423   6.968 -1.9172  0.5003 -0.1326
 2680TIP3   OH232234   6.363   4.858   8.042  0.5511 -0.0334  0.3127
 2680TIP3    H132235   6.306   4.917   8.092  0.5735  0.3489 -0.1036
 2680TIP3    H232236   6.441   4.849   8.096 -0.0486 -0.8763  1.0721
 2681TIP3   OH232237   1.054   1.884   9.343 -0.1024 -0.1648 -0.4666
 2681TIP3    H132238   1.042   1.821   9.273  0.0876  0.0173 -0.6666
 2681TIP3    H232239   1.000   1.959   9.317 -0.5514 -0.3533 -0.0900
 2682TIP3   OH232240   4.775   3.449   7.573 -0.0235  0.0721 -0.0301
 2682TIP3    H132241   4.817   3.534   7.565 -0.0093  0.0098 -0.6806
 2682TIP3    H232242   4.801   3.402   7.494 -1.8623  0.2822 -0.8069
 2683TIP3   OH232243   3.797   6.756   8.230 -0.4598 -0.2735  0.1060
 2683TIP3    H132244   3.731   6.825   8.235 -1.3789 -0.9399 -1.7834
 2683TIP3    H232245   3.838   6.769   8.145  1.9773  0.1751  1.2761
 2684TIP3   OH232246   6.637   0.025   9.312  0.0746  0.0330  0.0228
 2684TIP3    H132247   6.556   0.069   9.285  0.5360  0.6986 -0.2928
 2684TIP3    H232248   6.644   0.045   9.406 -0.5610 -0.7381  0.2478
 2685TIP3   OH232249   2.036   5.012   8.568 -0.2502  0.7750 -0.0992
 2685TIP3    H132250   2.047   4.927   8.526 -0.0157  1.1277 -0.7675
 2685TIP3    H232251   1.943   5.019   8.585 -0.4130  0.8198 -0.9825
 2686TIP3   OH232252   3.267   5.486   9.008 -0.2761  0.1946  0.1839
 2686TIP3    H132253   3.204   5.471   9.078 -0.4179 -2.3286 -0.3867
 2686TIP3    H232254   3.215   5.522   8.936 -0.5348  0.6862  0.6074
 2687TIP3   OH232255   5.315   2.732   7.919  0.1973 -0.2358 -0.1964
 2687TIP3    H132256   5.229   2.772   7.906  0.8132  1.8923  1.6373
 2687TIP3    H232257   5.297   2.649   7.962 -0.9430  0.0469 -0.1117
 2688TIP3   OH232258   6.473   1.262   8.314 -0.1143 -0.1662  0.4671
 2688TIP3    H132259   6.565   1.279   8.293  0.2630 -2.9746 -0.6683
 2688TIP3    H232260   6.472   1.172   8.345 -2.5540 -0.4145 -0.0947
 2689TIP3   OH232261   7.259   5.159   8.481 -0.0742  0.0098  0.1616
 2689TIP3    H132262   7.324   5.215   8.523 -1.0880  0.7997  0.7136
 2689TIP3    H232263   7.262   5.182   8.388 -0.6000  1.1265  0.4064
 2690TIP3   OH232264   5.015   0.541   9.408  0.3316  0.3066  0.1486
 2690TIP3    H132265   4.934   0.526   9.457  0.1719 -1.9322 -0.6882
 2690TIP3    H232266   5.033   0.634   9.420 -0.7445  0.2703  2.8144
 2691TIP3   OH232267   0.873   5.234   9.094  0.6998  0.0469  0.6229
 2691TIP3    H132268   0.916   5.164   9.045  1.5160 -0.1093  1.5300
 2691TIP3    H232269   0.846   5.297   9.027  0.1621 -1.0070 -0.1843
 2692TIP3   OH232270   4.650   3.680   8.986  0.6808 -0.9140 -0.2217
 2692TIP3    H132271   4.600   3.665   9.067  1.7055 -1.0988  0.4021
 2692TIP3    H232272   4.597   3.743   8.937 -0.2676 -1.2735  0.3079
 2693TIP3   OH232273   6.619   6.336   7.934  0.6652  0.0109 -0.2484
 2693TIP3    H132274   6.580   6.258   7.895  0.7116 -0.0434 -0.1871
 2693TIP3    H232275   6.710   6.311   7.952  0.1420 -0.6882  1.7893
 2694TIP3   OH232276   4.577   3.465   7.781 -0.7864  0.2416 -0.6107
 2694TIP3    H132277   4.652   3.446   7.724 -1.3626  0.8420 -1.5992
 2694TIP3    H232278   4.544   3.549   7.750 -1.2540  0.4794  0.4844
 2695TIP3   OH232279   1.332   3.797   7.601  0.5235  0.3917 -0.1068
 2695TIP3    H132280   1.263   3.735   7.625  1.3546 -0.4926  0.0838
 2695TIP3    H232281   1.321   3.870   7.661  0.9126 -0.5936  1.1906
 2696TIP3   OH232282   0.350   3.861   8.731  0.4259 -0.3726 -0.3182
 2696TIP3    H132283   0.319   3.930   8.673  0.2192  1.0925  1.4481
 2696TIP3    H232284   0.376   3.790   8.672 -0.7990  0.5945 -2.1267
 2697TIP3   OH232285   3.064   7.096   7.238  0.2849  0.3353 -0.2329
 2697TIP3    H132286   3.062   7.189   7.259 -1.5262  0.3402 -0.2818
 2697TIP3    H232287   3.073   7.052   7.322 -1.5070  0.5078  0.0855
 2698TIP3   OH232288   2.939   6.653   9.060 -0.4564  0.0790  0.2120
 2698TIP3    H132289   2.860   6.694   9.024 -1.3957 -1.5558  0.3028
 2698TIP3    H232290   2.968   6.713   9.129 -1.1016  1.1398 -0.4059
 2699TIP3   OH232291   7.650   5.806   9.535  0.0160  0.4290 -0.6153
 2699TIP3    H132292   7.608   5.763   9.610  0.7221  1.4048  0.3605
 2699TIP3    H232293   7.615   5.759   9.459 -0.1292 -1.1050  0.3416
 2700TIP3   OH232294   7.156   6.854   7.305 -0.1620 -0.2345 -0.3192
 2700TIP3    H132295   7.072   6.811   7.320 -0.0156 -0.6645 -0.7488
 2700TIP3    H232296   7.137   6.923   7.241 -0.4099  0.4109  0.4229
 2701TIP3   OH232297   6.318   5.850   8.160  0.5553  0.1527 -0.0444
 2701TIP3    H132298   6.292   5.788   8.092 -1.1101  1.1638 -0.3944
 2701TIP3    H232299   6.368   5.918   8.115  0.0636  0.4517 -0.1454
 2702TIP3   OH232300   6.295   6.501   8.775  0.3456  0.3203 -0.2820
 2702TIP3    H132301   6.308   6.550   8.855  2.3579  0.9982 -0.9610
 2702TIP3    H232302   6.255   6.419   8.803  3.4303 -0.6245  1.8253
 2703TIP3   OH232303   5.832   1.622   9.559 -0.3347 -0.0155  0.1074
 2703TIP3    H132304   5.757   1.629   9.500 -0.8560 -2.8922  0.2773
 2703TIP3    H232305   5.799   1.652   9.643 -1.2221 -0.8892  0.0885
 2704TIP3   OH232306   4.272   4.764   7.991  0.2395 -0.0672 -0.9395
 2704TIP3    H132307   4.222   4.687   8.017 -0.2988  0.5245 -0.2050
 2704TIP3    H232308   4.250   4.776   7.899 -1.4960  0.5591 -0.4753
 2705TIP3   OH232309   3.259   7.381   7.754 -0.3805  0.1527  0.4630
 2705TIP3    H132310   3.224   7.311   7.699 -0.4996  0.1703  0.5147
 2705TIP3    H232311   3.184   7.439   7.769 -0.2110  0.4489  0.1762
 2706TIP3   OH232312   0.894   1.860   9.863  0.2113  0.4641  0.3744
 2706TIP3    H132313   0.906   1.832   9.772 -1.9026  1.4203 -0.2472
 2706TIP3    H232314   0.942   1.795   9.914  1.8243  0.1399 -1.4131
 2707TIP3   OH232315   5.957   3.161   8.994  0.2684  0.1790  0.1248
 2707TIP3    H132316   5.923   3.188   8.908  0.8917  3.0169  0.6665
 2707TIP3    H232317   6.052   3.172   8.986  0.3367  0.3442  1.1471
 2708TIP3   OH232318   3.037   6.516   9.459  0.2078  0.7136 -0.5041
 2708TIP3    H132319   2.947   6.495   9.484  0.0427  2.4061  0.4442
 2708TIP3    H232320   3.046   6.478   9.371 -0.7694 -1.1723  0.1519
 2709TIP3   OH232321   0.168   0.575   7.871 -0.2824  0.7893 -0.0417
 2709TIP3    H132322   0.235   0.509   7.851  0.6069  1.7518 -0.2943
 2709TIP3    H232323   0.099   0.525   7.914  1.9363  0.2184  3.2423
 2710TIP3   OH232324   2.214   6.149   9.100 -0.0238 -0.0422 -1.0653
 2710TIP3    H132325   2.261   6.230   9.118 -2.1155  0.4337  3.6540
 2710TIP3    H232326   2.122   6.174   9.103 -0.7575 -2.1521 -2.8789
 2711TIP3   OH232327   6.603   3.226   6.956 -0.3840  0.1737  0.5639
 2711TIP3    H132328   6.627   3.147   7.006 -1.2140  0.1146  0.8814
 2711TIP3    H232329   6.553   3.192   6.882 -2.6511  0.5123  1.8554
 2712TIP3   OH232330   2.172   5.077   8.000  0.8547  0.1929  0.1325
 2712TIP3    H132331   2.195   5.037   7.915  1.1474 -1.6814  1.0413
 2712TIP3    H232332   2.220   5.025   8.064 -2.2465 -0.9203  1.7785
 2713TIP3   OH232333   4.548   1.891   9.433 -0.7515 -0.7345  0.0816
 2713TIP3    H132334   4.463   1.868   9.397 -0.1395 -0.9083 -1.3343
 2713TIP3    H232335   4.550   1.987   9.430 -0.5329 -0.7596 -0.8130
 2714TIP3   OH232336   3.701   1.148   8.291  0.3535 -0.3710 -0.2290
 2714TIP3    H132337   3.746   1.064   8.284  0.1640 -0.4369 -0.6791
 2714TIP3    H232338   3.655   1.158   8.207 -1.6055 -0.9532  0.7214
 2715TIP3   OH232339   5.544   7.240   9.498  0.1517 -0.3109 -0.0783
 2715TIP3    H132340   5.472   7.295   9.529 -0.0118 -0.7914  0.4179
 2715TIP3    H232341   5.511   7.151   9.506  0.5262 -0.4989 -0.5828
 2716TIP3   OH232342   2.155   6.843   7.750  0.7857 -0.0332  0.0120
 2716TIP3    H132343   2.072   6.813   7.712  1.1458  1.9464 -2.6384
 2716TIP3    H232344   2.156   6.804   7.837 -2.3888 -1.0530 -0.2475
 2717TIP3   OH232345   4.984   5.870   7.965 -0.0057  0.2792 -0.4413
 2717TIP3    H132346   5.076   5.856   7.987 -0.4578 -0.1692  1.2691
 2717TIP3    H232347   4.960   5.950   8.010 -0.8031 -0.3442  0.2744
 2718TIP3   OH232348   6.842   1.043   8.481  0.0949 -0.0483  0.2409
 2718TIP3    H132349   6.850   1.077   8.392 -0.5600 -0.2894  0.0869
 2718TIP3    H232350   6.750   1.020   8.490  0.1590 -0.0343  0.9799
 2719TIP3   OH232351   1.086   5.670   8.309 -0.1461 -0.3127 -0.3104
 2719TIP3    H132352   1.110   5.762   8.308  1.3286 -0.6834 -0.3939
 2719TIP3    H232353   1.006   5.666   8.361  1.0292  0.7150  1.6713
 2720TIP3   OH232354   2.929   5.343   7.066 -0.1956 -0.6155 -0.0912
 2720TIP3    H132355   2.950   5.435   7.083 -0.6759 -0.7305  1.2765
 2720TIP3    H232356   3.012   5.297   7.077 -0.4154 -0.6371  1.8027
 2721TIP3   OH232357   3.491   1.569   9.640  0.5442  0.2452 -0.3016
 2721TIP3    H132358   3.439   1.649   9.640 -0.8762 -0.6291  0.0031
 2721TIP3    H232359   3.560   1.585   9.575 -0.4303  1.2652 -1.1346
 2722TIP3   OH232360   0.739   0.273   8.293  0.0808 -0.4405 -0.2811
 2722TIP3    H132361   0.751   0.362   8.328  0.3217 -1.0537  1.2974
 2722TIP3    H232362   0.675   0.283   8.223 -0.2279  0.9179  0.1626
 2723TIP3   OH232363   3.311   7.021   7.130 -0.2484 -0.6583 -0.2100
 2723TIP3    H132364   3.228   7.059   7.161  0.3386  1.5445 -1.2346
 2723TIP3    H232365   3.377   7.086   7.151  0.9346 -1.4552 -1.3483
 2724TIP3   OH232366   1.239   2.846   9.598 -0.0464 -0.5934  0.8161
 2724TIP3    H132367   1.236   2.753   9.622  1.5857 -0.7792  0.4218
 2724TIP3    H232368   1.149   2.876   9.609 -0.8430 -2.4771 -0.0605
 2725TIP3   OH232369   0.296   3.558   8.206  0.3602  0.0086 -0.4886
 2725TIP3    H132370   0.248   3.476   8.191  1.4730 -1.0667  1.4096
 2725TIP3    H232371   0.373   3.551   8.148 -0.4827  0.6268 -1.7312
 2726TIP3   OH232372   6.098   7.452   7.613  0.5122 -0.3267  0.2677
 2726TIP3    H132373   6.186   7.489   7.617  0.4564  0.0065 -0.9533
 2726TIP3    H232374   6.110   7.368   7.567  0.2136 -0.3264  0.1891
 2727TIP3   OH232375   2.648   3.551   7.396  0.4050  0.7513  0.3495
 2727TIP3    H132376   2.666   3.577   7.305 -1.5889  0.3635 -0.2142
 2727TIP3    H232377   2.594   3.621   7.431  1.1540  0.8893  1.2746
 2728TIP3   OH232378   0.585   3.402   7.437 -0.1865 -0.0501  0.4942
 2728TIP3    H132379   0.666   3.442   7.468  0.6360 -0.4595 -1.0229
 2728TIP3    H232380   0.585   3.315   7.476  0.0766 -0.0225  0.5578
 2729TIP3   OH232381   0.675   4.851   8.284 -0.2885 -0.1139  0.3932
 2729TIP3    H132382   0.596   4.820   8.240 -0.1265 -0.0529  0.0570
 2729TIP3    H232383   0.649   4.934   8.324  0.3234  1.3585 -2.0718
 2730TIP3   OH232384   1.222   7.302   8.161  0.3211  0.0658 -0.5243
 2730TIP3    H132385   1.304   7.254   8.170 -1.2738 -2.7964  0.0391
 2730TIP3    H232386   1.188   7.309   8.251  0.4403  2.2699 -0.5975
 2731TIP3   OH232387   3.662   0.457   7.092 -0.1943 -0.4726  0.0602
 2731TIP3    H132388   3.732   0.489   7.035 -0.1732  0.4983  0.6066
 2731TIP3    H232389   3.612   0.396   7.037  0.1736 -0.0084 -0.8130
 2732TIP3   OH232390   2.638   1.571   8.672  0.2680 -0.3533  0.1864
 2732TIP3    H132391   2.696   1.599   8.742  0.4137 -0.5977  0.1683
 2732TIP3    H232392   2.554   1.612   8.691 -0.1019 -1.5401  1.2985
 2733TIP3   OH232393   0.327   2.601   8.665 -0.2198  0.1386 -0.3229
 2733TIP3    H132394   0.395   2.534   8.669 -0.7403 -0.3651  2.3746
 2733TIP3    H232395   0.267   2.572   8.597  0.3017 -1.4206 -0.1414
 2734TIP3   OH232396   7.507   5.024   8.711 -0.0043 -0.2700 -0.4141
 2734TIP3    H132397   7.547   5.107   8.685  0.1953 -0.2867 -0.1615
 2734TIP3    H232398   7.545   4.960   8.651 -0.5706 -0.0993 -0.9732
 2735TIP3   OH232399   1.599   1.140   8.475  0.1741  0.3256 -0.1380
 2735TIP3    H132400   1.627   1.113   8.562  1.5572 -1.0749 -0.9861
 2735TIP3    H232401   1.668   1.200   8.445 -0.6727  1.3998 -0.0073
 2736TIP3   OH232402   0.173   6.780   8.683 -0.2964 -0.5621 -0.0163
 2736TIP3    H132403   0.105   6.721   8.654 -2.1415  0.8105  1.2682
 2736TIP3    H232404   0.214   6.735   8.758 -0.2838 -1.0710 -0.3268
 2737TIP3   OH232405   4.320   5.066   7.677 -0.0992 -0.1042  0.2312
 2737TIP3    H132406   4.392   5.100   7.623 -0.2492 -1.3307 -0.7790
 2737TIP3    H232407   4.250   5.130   7.666  0.0939 -0.0173 -0.5398
 2738TIP3   OH232408   0.517   0.181   8.062  0.5911 -0.5256 -0.0544
 2738TIP3    H132409   0.593   0.179   8.004  0.9624  1.1964  0.3012
 2738TIP3    H232410   0.525   0.103   8.116  0.9244 -1.4873 -1.4539
 2739TIP3   OH232411   3.226   3.150   9.477 -0.0140 -0.0505  0.1420
 2739TIP3    H132412   3.211   3.133   9.570 -2.8262  1.8449  0.1650
 2739TIP3    H232413   3.191   3.073   9.432  1.0186 -0.8055  0.5866
 2740TIP3   OH232414   1.326   0.588   7.671 -0.7153 -0.1405 -1.0019
 2740TIP3    H132415   1.300   0.603   7.762 -1.7346 -0.9405 -1.1445
 2740TIP3    H232416   1.320   0.674   7.630  1.4574  0.5919  0.0664
 2741TIP3   OH232417   2.353   7.427   7.399  0.0848  0.4454 -0.2500
 2741TIP3    H132418   2.444   7.412   7.376 -0.1418 -1.9953  0.2020
 2741TIP3    H232419   2.318   7.478   7.326  1.8390  1.7249 -0.2659
 2742TIP3   OH232420   5.123   0.235   8.829  0.0846 -0.0770  0.1225
 2742TIP3    H132421   5.089   0.218   8.917  0.4051  0.1569  0.2893
 2742TIP3    H232422   5.202   0.181   8.823 -0.3334 -0.6595 -0.2875
 2743TIP3   OH232423   3.081   1.638   9.341  0.0380 -0.5312 -0.1573
 2743TIP3    H132424   3.112   1.728   9.341  1.6675 -1.0466 -0.1885
 2743TIP3    H232425   2.991   1.642   9.374  1.0614  0.7795  2.7856
 2744TIP3   OH232426   3.235   6.550   8.216 -0.3470 -0.8247 -0.3706
 2744TIP3    H132427   3.246   6.459   8.189  0.0463 -1.7192  2.5068
 2744TIP3    H232428   3.288   6.559   8.295  1.6698  2.6550 -1.8868
 2745TIP3   OH232429   0.215   4.565   8.005  1.1230  0.4663  0.4319
 2745TIP3    H132430   0.272   4.593   8.077  2.8809 -0.1546 -0.6648
 2745TIP3    H232431   0.223   4.470   8.003 -1.1187  0.1942  1.1278
 2746TIP3   OH232432   6.679   2.814   8.437  0.0422  0.2514  0.0032
 2746TIP3    H132433   6.632   2.757   8.498  0.0038  0.3505  0.0655
 2746TIP3    H232434   6.638   2.795   8.352 -0.2813  0.5196  0.0968
 2747TIP3   OH232435   5.434   3.862   7.435  0.0914  0.1766 -0.0622
 2747TIP3    H132436   5.450   3.804   7.509  2.0556 -0.5289 -0.9646
 2747TIP3    H232437   5.515   3.914   7.427 -0.9104  1.7535 -0.4107
 2748TIP3   OH232438   2.947   3.279   9.453  0.5683 -0.1776  0.2551
 2748TIP3    H132439   2.926   3.202   9.507  1.6304 -0.8042 -0.1898
 2748TIP3    H232440   3.029   3.255   9.409 -0.3883  0.2023 -1.8381
 2749TIP3   OH232441   1.564   7.641   6.629  0.5394 -0.1104  0.1011
 2749TIP3    H132442   1.529   7.552   6.620  1.4116 -0.7053  2.0668
 2749TIP3    H232443   1.647   7.638   6.580  1.5659 -1.0427  1.7920
 2750TIP3   OH232444   0.242   3.792   6.977 -0.4202  0.5290  0.0771
 2750TIP3    H132445   0.161   3.842   6.963 -0.1556  0.9419 -0.0025
 2750TIP3    H232446   0.306   3.835   6.922 -0.3330 -0.2955 -0.4859
 2751TIP3   OH232447   5.544   2.728   8.575 -0.7733 -0.7740  0.2775
 2751TIP3    H132448   5.548   2.678   8.656 -2.5524 -0.7370  0.4281
 2751TIP3    H232449   5.579   2.814   8.598 -1.6437 -0.6397  1.1241
 2752TIP3   OH232450   2.665   3.677   9.015 -0.3828  0.0374  0.7183
 2752TIP3    H132451   2.727   3.605   9.001  0.5290  0.8043  0.7163
 2752TIP3    H232452   2.581   3.641   8.989  0.1877 -0.7774 -0.0693
 2753TIP3   OH232453   7.053   0.859   9.297  0.4503  0.1756  0.2683
 2753TIP3    H132454   7.087   0.778   9.333  1.0468  0.0291 -0.6013
 2753TIP3    H232455   6.967   0.836   9.262  0.9572 -0.2929 -0.7135
 2754TIP3   OH232456   0.261   6.224   6.988 -0.3569 -0.2967  0.1936
 2754TIP3    H132457   0.186   6.195   6.936 -0.4913 -0.3071  0.3891
 2754TIP3    H232458   0.258   6.320   6.983 -1.4323 -0.2193  1.6301
 2755TIP3   OH232459   3.078   7.575   9.334 -0.0433 -0.5249  0.2847
 2755TIP3    H132460   3.070   7.543   9.244 -0.1779  0.6076 -0.1209
 2755TIP3    H232461   2.995   7.549   9.375 -1.3798  1.6483 -0.8315
 2756TIP3   OH232462   0.401   2.203   7.724 -0.1861  0.2852  0.6649
 2756TIP3    H132463   0.383   2.110   7.709 -1.9130  0.4103  1.7680
 2756TIP3    H232464   0.492   2.205   7.755 -0.3526 -1.1110  1.3261
 2757TIP3   OH232465   3.888   1.057   8.982  0.3104 -0.5755 -0.5408
 2757TIP3    H132466   3.936   1.025   9.058 -0.2838 -0.7715 -0.2350
 2757TIP3    H232467   3.796   1.042   9.005 -0.0706  2.2451  0.0283
 2758TIP3   OH232468   6.895   6.597   6.781  0.6062 -0.1107 -0.2807
 2758TIP3    H132469   6.813   6.555   6.807  0.2704  0.8526  0.2858
 2758TIP3    H232470   6.872   6.689   6.769  2.2078  0.9647  3.3282
 2759TIP3   OH232471   0.733   2.003   8.862 -0.1497 -0.1605 -0.4802
 2759TIP3    H132472   0.796   1.940   8.825 -1.0264  0.7422 -3.8148
 2759TIP3    H232473   0.769   2.024   8.948  2.6374 -1.7379 -1.1314
 2760TIP3   OH232474   0.892   0.888   8.187 -0.2699  0.5059 -0.0365
 2760TIP3    H132475   0.884   0.885   8.091 -0.1734  0.0912 -0.0317
 2760TIP3    H232476   0.986   0.897   8.202 -0.4148  2.7769 -0.0265
 2761TIP3   OH232477   3.809   1.648   8.232 -0.0656 -0.2533  0.1956
 2761TIP3    H132478   3.844   1.621   8.147  0.0608  0.4748  0.0104
 2761TIP3    H232479   3.812   1.569   8.285 -0.5433 -0.8227 -0.6026
 2762TIP3   OH232480   5.082   5.643   8.589 -0.1993 -0.7350  0.1767
 2762TIP3    H132481   5.156   5.583   8.600  0.8243  0.6340  1.0362
 2762TIP3    H232482   5.116   5.713   8.533 -0.7741  0.0332  0.7674
 2763TIP3   OH232483   6.984   1.822   9.114 -0.3177  0.4008  0.2180
 2763TIP3    H132484   7.073   1.844   9.085  0.5970  0.0857  2.5491
 2763TIP3    H232485   6.971   1.732   9.085 -0.0111  0.5692 -0.4550
 2764TIP3   OH232486   0.769   6.151   6.986 -0.1578  0.3760  0.0576
 2764TIP3    H132487   0.715   6.228   7.002 -0.9613 -0.2828  0.5725
 2764TIP3    H232488   0.726   6.105   6.915  0.0894  0.1841  0.0302
 2765TIP3   OH232489   0.262   6.360   9.159 -0.1206  0.3566  0.5403
 2765TIP3    H132490   0.276   6.454   9.170  0.3366  0.5649 -1.4010
 2765TIP3    H232491   0.349   6.321   9.170 -0.2495  0.1966  1.0015
 2766TIP3   OH232492   3.403   2.819   8.839  0.1333  0.0220  0.0145
 2766TIP3    H132493   3.327   2.865   8.804  0.1816 -0.8639 -1.3259
 2766TIP3    H232494   3.458   2.802   8.762  0.9033 -0.7838  0.7257
 2767TIP3   OH232495   3.494   7.131   8.499 -0.5596 -0.3180  0.0095
 2767TIP3    H132496   3.571   7.080   8.525  0.6167  1.1880 -0.3550
 2767TIP3    H232497   3.436   7.068   8.456  0.0455 -1.6710  1.1126
 2768TIP3   OH232498   7.145   2.648   6.896 -0.3113  0.2131  0.3646
 2768TIP3    H132499   7.168   2.618   6.808  2.0239 -1.2697  1.3878
 2768TIP3    H232500   7.065   2.600   6.918 -0.2042 -0.3574 -0.4548
 2769TIP3   OH232501   3.417   2.406   8.223 -0.4727 -0.7601  0.3877
 2769TIP3    H132502   3.494   2.405   8.165  0.4060 -0.0670  1.5146
 2769TIP3    H232503   3.352   2.354   8.176  0.3066 -0.4610 -1.0968
 2770TIP3   OH232504   1.973   5.781   6.897  0.3527  0.4967 -0.1660
 2770TIP3    H132505   1.934   5.865   6.874 -0.2390 -0.0364 -1.1799
 2770TIP3    H232506   1.927   5.754   6.976  0.2661  0.9398 -0.0636
 2771TIP3   OH232507   3.912   4.180   8.598  0.0915 -0.5013  0.2573
 2771TIP3    H132508   3.903   4.109   8.534  0.3142 -1.7907  1.5918
 2771TIP3    H232509   3.986   4.232   8.565 -0.7356 -0.2247 -1.2950
 2772TIP3   OH232510   1.536   3.061   8.625  0.3126  0.1939  0.5232
 2772TIP3    H132511   1.558   2.968   8.618  1.0008  0.3756  0.2007
 2772TIP3    H232512   1.612   3.106   8.589 -0.2215  0.8715  0.2243
 2773TIP3   OH232513   5.984   3.962   8.976 -0.0204 -0.4382  0.5270
 2773TIP3    H132514   5.911   3.952   9.037  0.3940 -0.4861  1.0145
 2773TIP3    H232515   6.054   3.907   9.012  0.1348 -0.6879 -0.1383
 2774TIP3   OH232516   2.818   5.906   8.930 -0.0565  0.3946 -0.0156
 2774TIP3    H132517   2.729   5.895   8.899  0.1855 -0.3495 -0.4633
 2774TIP3    H232518   2.873   5.871   8.860  0.5018 -1.1742  1.1481
 2775TIP3   OH232519   2.331   2.804   9.486 -0.3038 -0.2365  0.5409
 2775TIP3    H132520   2.381   2.723   9.474  1.4494  0.8063  0.4420
 2775TIP3    H232521   2.398   2.871   9.504 -1.1697  2.1118 -3.6374
 2776TIP3   OH232522   3.436   0.576   7.270  0.1732 -0.3652  0.2984
 2776TIP3    H132523   3.485   0.593   7.190  0.2328 -0.1219  0.3853
 2776TIP3    H232524   3.346   0.605   7.250  0.1190 -0.5930  0.2163
 2777TIP3   OH232525   4.749   0.954   7.327  0.2815  0.6743  0.1243
 2777TIP3    H132526   4.841   0.976   7.311  0.5232 -0.0533  0.4615
 2777TIP3    H232527   4.699   1.022   7.282  0.9707  0.4769 -0.9527
 2778TIP3   OH232528   0.299   5.158   7.298 -0.0328  0.2482  0.2773
 2778TIP3    H132529   0.252   5.240   7.313 -0.1306  0.2060  0.1947
 2778TIP3    H232530   0.385   5.186   7.265 -0.7920  0.2648 -1.7946
 2779TIP3   OH232531   6.173   5.205   8.677  0.1370  0.1703 -0.5661
 2779TIP3    H132532   6.120   5.282   8.661  0.6708  0.3736 -1.4308
 2779TIP3    H232533   6.220   5.224   8.758 -0.2498  0.4597 -0.4074
 2780TIP3   OH232534   7.659   5.863   8.214 -0.7969 -0.0319  0.1315
 2780TIP3    H132535   7.638   5.935   8.155 -1.5583 -0.6234 -0.3296
 2780TIP3    H232536   7.745   5.886   8.250  0.1831 -0.1489 -1.9825
 2781TIP3   OH232537   4.975   0.370   8.658 -0.0277  0.4631 -0.6974
 2781TIP3    H132538   5.033   0.331   8.724  0.9891  0.5543 -1.5187
 2781TIP3    H232539   4.887   0.364   8.697  0.4959  0.1170  0.4693
 2782TIP3   OH232540   1.269   5.884   8.796 -0.0833 -0.5352 -0.1459
 2782TIP3    H132541   1.291   5.977   8.801  0.6538 -0.7554  1.3021
 2782TIP3    H232542   1.321   5.851   8.722 -1.2524  0.4054 -1.4314
 2783TIP3   OH232543   0.415   6.792   7.587  0.4763  0.1759 -0.2202
 2783TIP3    H132544   0.441   6.837   7.506 -3.8974 -0.6017 -2.3818
 2783TIP3    H232545   0.427   6.699   7.567 -1.9006 -0.1053 -0.6781
 2784TIP3   OH232546   4.531   7.191   6.798 -0.2491  0.0267  0.1823
 2784TIP3    H132547   4.464   7.187   6.867 -1.8884  0.0577 -1.3229
 2784TIP3    H232548   4.582   7.111   6.809  0.1369  0.4799  1.9858
 2785TIP3   OH232549   4.773   5.283   7.693  0.0604 -0.1075 -0.0775
 2785TIP3    H132550   4.844   5.328   7.647 -0.5265 -0.8565 -1.7767
 2785TIP3    H232551   4.811   5.199   7.719  0.0415 -0.1784 -0.2756
 2786TIP3   OH232552   3.818   1.766   8.917 -0.2092 -0.8104  0.4023
 2786TIP3    H132553   3.866   1.755   8.835  2.4136  0.9622  1.5598
 2786TIP3    H232554   3.743   1.820   8.894  1.2739  0.8985 -0.6418
 2787TIP3   OH232555   7.578   1.643   8.589 -0.2014  0.2168 -0.1680
 2787TIP3    H132556   7.541   1.654   8.677  0.7389  0.1991  0.2426
 2787TIP3    H232557   7.552   1.556   8.562  1.3272 -0.6591  1.0153
 2788TIP3   OH232558   6.434   3.947   7.909  0.6573  0.0451 -0.2469
 2788TIP3    H132559   6.503   3.907   7.963  0.3027  0.6838  0.7124
 2788TIP3    H232560   6.432   4.038   7.936  0.0065  0.2274 -0.8813
 2789TIP3   OH232561   2.603   4.296   8.622 -0.3203  0.0862 -0.2996
 2789TIP3    H132562   2.544   4.234   8.580 -0.4203  0.1132 -0.1985
 2789TIP3    H232563   2.610   4.265   8.712 -0.2239  0.1144 -0.2979
 2790TIP3   OH232564   2.282   4.674   7.900  0.4056  0.4062  0.1150
 2790TIP3    H132565   2.217   4.716   7.956 -0.8179  1.3767 -1.9519
 2790TIP3    H232566   2.347   4.742   7.882  1.2770 -0.1517  0.9854
 2791TIP3   OH232567   5.848   4.963   9.001 -0.1376 -0.2402 -0.4936
 2791TIP3    H132568   5.846   4.906   8.924 -0.0984  0.5002 -1.0529
 2791TIP3    H232569   5.907   4.919   9.061  0.4513 -0.4433 -1.1997
 2792TIP3   OH232570   6.016   2.227   7.581  0.0108  0.3829 -0.2824
 2792TIP3    H132571   5.923   2.218   7.560 -0.1322  1.4321 -0.1862
 2792TIP3    H232572   6.046   2.301   7.529  0.0435  1.9793  1.8417
 2793TIP3   OH232573   6.982   2.815   9.042  0.3678 -0.1180  0.3970
 2793TIP3    H132574   7.056   2.762   9.012  0.6548  1.0114 -0.9812
 2793TIP3    H232575   6.905   2.764   9.019  0.6304  0.1223 -1.1005
 2794TIP3   OH232576   1.989   0.799   6.894  0.3909  0.0232 -0.6139
 2794TIP3    H132577   2.069   0.848   6.912  0.7210 -0.4481 -0.7606
 2794TIP3    H232578   1.924   0.834   6.955  1.2474 -0.9527  0.9416
 2795TIP3   OH232579   3.771   6.250   8.463 -0.2439 -0.1888  0.1969
 2795TIP3    H132580   3.816   6.235   8.546  0.5523 -0.4057 -0.2580
 2795TIP3    H232581   3.818   6.324   8.424 -0.3433 -0.3554 -0.2394
 2796TIP3   OH232582   3.167   1.944   8.157 -0.3081 -0.1012 -0.1429
 2796TIP3    H132583   3.204   1.872   8.207 -1.7282 -0.8009 -0.0397
 2796TIP3    H232584   3.073   1.926   8.156 -0.4581  0.5925 -1.9382
 2797TIP3   OH232585   2.741   0.916   7.374 -0.0497  0.3290  0.1266
 2797TIP3    H132586   2.788   0.999   7.380  0.0429  0.2986 -0.1659
 2797TIP3    H232587   2.683   0.916   7.450 -0.5972  1.0018 -0.2785
 2798TIP3   OH232588   2.756   6.433   7.438 -0.6558  0.0811 -0.3630
 2798TIP3    H132589   2.819   6.472   7.498 -1.4380 -0.0786  0.5830
 2798TIP3    H232590   2.677   6.422   7.490 -0.6364 -2.2919 -0.7552
 2799TIP3   OH232591   7.215   2.597   8.685  0.5311  0.0458  0.1229
 2799TIP3    H132592   7.194   2.630   8.773  0.5132  0.1167  0.0927
 2799TIP3    H232593   7.202   2.672   8.628  1.3718  0.2298  0.1665
 2800TIP3   OH232594   5.075   2.311   7.686  0.4668  0.0369  0.2060
 2800TIP3    H132595   4.994   2.352   7.717 -0.4644 -0.1592 -1.8454
 2800TIP3    H232596   5.058   2.288   7.595  3.1980  0.9452 -0.6428
 2801TIP3   OH232597   5.717   2.479   7.711 -0.4986 -0.0486 -0.5810
 2801TIP3    H132598   5.766   2.433   7.644  1.3289  0.1542  0.5520
 2801TIP3    H232599   5.667   2.410   7.756  0.5866 -0.6478 -0.2519
 2802TIP3   OH232600   1.398   5.222   6.746  0.3537 -0.3281  0.2509
 2802TIP3    H132601   1.354   5.189   6.825 -0.2734  2.6982  1.2846
 2802TIP3    H232602   1.327   5.252   6.690  0.9305  0.3605 -0.1189
 2803TIP3   OH232603   4.325   4.162   8.456 -0.0014  0.5681 -0.6285
 2803TIP3    H132604   4.267   4.138   8.384  0.2572  1.2404 -1.0687
 2803TIP3    H232605   4.409   4.181   8.415  0.5037 -0.2581 -0.0100
 2804TIP3   OH232606   2.496   1.564   8.036 -0.3643  0.3209 -0.7242
 2804TIP3    H132607   2.490   1.577   7.942  0.8939  1.6029 -0.6686
 2804TIP3    H232608   2.539   1.479   8.046 -0.1609  0.3502 -1.3147
 2805TIP3   OH232609   3.117   4.455   8.599  0.4531  0.3665  0.2181
 2805TIP3    H132610   3.106   4.508   8.519  0.4243 -1.0123 -0.7298
 2805TIP3    H232611   3.068   4.375   8.581  0.6192 -0.0531  1.5612
 2806TIP3   OH232612   1.728   3.856   7.124  0.3081  0.0745  0.6154
 2806TIP3    H132613   1.642   3.819   7.144  0.2019  0.6679  1.3196
 2806TIP3    H232614   1.717   3.900   7.040 -0.7610  2.1876  1.7754
 2807TIP3   OH232615   4.380   6.698   9.257  0.5239 -0.7602 -0.0093
 2807TIP3    H132616   4.420   6.613   9.240  2.1729  0.0614 -0.4140
 2807TIP3    H232617   4.453   6.755   9.282 -0.0919  1.1887 -2.2626
 2808TIP3   OH232618   5.393   5.553   9.330 -0.3504  0.3068  0.6350
 2808TIP3    H132619   5.299   5.555   9.313 -0.4596  1.3996  1.2767
 2808TIP3    H232620   5.429   5.626   9.279 -0.2062  1.4002  2.2071
 2809TIP3   OH232621   6.226   7.606   8.214  0.0684 -0.6373  0.2240
 2809TIP3    H132622   6.309   7.561   8.231 -0.2410 -1.4540 -0.3267
 2809TIP3    H232623   6.208   7.655   8.294  2.1994  1.4157 -0.4542
 2810TIP3   OH232624   3.901   0.406   9.495 -0.0963  0.2746  0.4565
 2810TIP3    H132625   3.807   0.422   9.489  0.1367  1.2720 -1.1547
 2810TIP3    H232626   3.933   0.473   9.555 -0.1156  1.4699 -0.8225
 2811TIP3   OH232627   0.086   7.256   9.521  0.0366 -0.4012 -0.5683
 2811TIP3    H132628   0.036   7.222   9.446 -1.2995  1.3011 -0.5394
 2811TIP3    H232629   0.021   7.262   9.591  1.5563 -3.2697  1.2636
 2812TIP3   OH232630   3.966   5.082   9.087 -0.7702 -0.2188 -0.3508
 2812TIP3    H132631   3.962   5.099   9.181  1.0744  1.8283 -0.5766
 2812TIP3    H232632   3.961   4.987   9.080  0.3020 -0.5039  1.9045
 2813TIP3   OH232633   3.930   6.805   9.100  0.6195  0.2724 -0.0530
 2813TIP3    H132634   3.872   6.882   9.101  1.0968  0.6476  1.1739
 2813TIP3    H232635   4.018   6.842   9.101  0.9253 -0.2978 -1.9868
 2814TIP3   OH232636   5.075   0.845   7.666 -0.0085  0.3489 -0.8710
 2814TIP3    H132637   5.070   0.915   7.731 -1.1149 -1.3500  0.9878
 2814TIP3    H232638   5.145   0.872   7.607 -0.7220  3.2391 -0.5526
 2815TIP3   OH232639   2.436   4.767   8.541  0.0003 -0.0186 -0.6528
 2815TIP3    H132640   2.450   4.673   8.540 -1.0561 -0.1860 -1.1689
 2815TIP3    H232641   2.467   4.795   8.627 -1.3467 -1.1149  0.2364
 2816TIP3   OH232642   3.884   5.807   7.459  0.0413  0.1171  0.4794
 2816TIP3    H132643   3.799   5.822   7.500  0.1529 -0.1222  0.8017
 2816TIP3    H232644   3.945   5.857   7.513  0.1303  0.1423  0.3549
 2817TIP3   OH232645   1.450   3.214   8.840 -0.0094 -0.6643  0.2832
 2817TIP3    H132646   1.479   3.164   8.764  0.3129 -0.7908  0.4877
 2817TIP3    H232647   1.383   3.273   8.806  0.5802 -0.2789 -0.2210
 2818TIP3   OH232648   4.074   3.474   8.865 -0.3999  0.0703  0.4593
 2818TIP3    H132649   3.993   3.522   8.849 -0.4895  0.3957  1.7510
 2818TIP3    H232650   4.053   3.383   8.842 -0.4741  0.4797 -1.2151
 2819TIP3   OH232651   4.995   6.228   8.466  0.3088  0.0680  0.2104
 2819TIP3    H132652   4.998   6.321   8.440 -0.0032  0.4129  1.3558
 2819TIP3    H232653   4.927   6.224   8.533  1.5525 -0.6424  1.4766
 2820TIP3   OH232654   7.270   4.055   6.913  0.5537 -0.2463  0.5873
 2820TIP3    H132655   7.292   4.132   6.860  0.3201  0.8408  1.9952
 2820TIP3    H232656   7.348   4.039   6.966  0.4291 -0.6870  0.6368
 2821TIP3   OH232657   2.752   4.274   9.086 -0.3397  0.0911  0.2113
 2821TIP3    H132658   2.760   4.186   9.124  3.4837 -0.0759 -0.6643
 2821TIP3    H232659   2.791   4.332   9.151 -1.6251  1.0161  0.1976
 2822TIP3   OH232660   5.286   0.202   9.638  0.2049 -0.2863  0.3091
 2822TIP3    H132661   5.245   0.116   9.645 -0.7566  0.1726  0.6550
 2822TIP3    H232662   5.226   0.260   9.685 -0.3714  0.9609 -1.8254
 2823TIP3   OH232663   2.933   4.470   6.559 -0.5936 -0.0360  0.1201
 2823TIP3    H132664   2.848   4.498   6.526 -1.2070  1.9887  3.0059
 2823TIP3    H232665   2.913   4.409   6.629  0.5359 -1.8208 -1.0216
 2824TIP3   OH232666   7.275   1.957   8.140 -0.3580  0.1677 -0.4409
 2824TIP3    H132667   7.252   1.865   8.143  0.7542 -0.2423 -2.4092
 2824TIP3    H232668   7.204   1.999   8.092 -1.6337  0.6651  1.7773
 2825TIP3   OH232669   0.142   0.756   8.320  0.0129  0.1770 -0.4754
 2825TIP3    H132670   0.092   0.837   8.335  1.5413  1.4327 -1.7656
 2825TIP3    H232671   0.182   0.737   8.405 -0.9339  0.3389  0.0304
 2826TIP3   OH232672   4.708   1.558   8.016  0.4187 -0.0915  0.4908
 2826TIP3    H132673   4.647   1.566   7.942  2.3101  1.5229 -1.0075
 2826TIP3    H232674   4.724   1.464   8.024 -0.6110 -0.3656 -0.4803
 2827TIP3   OH232675   4.643   6.150   9.036 -0.1394  0.0833 -0.1360
 2827TIP3    H132676   4.640   6.056   9.017  0.3612 -0.1746  0.9435
 2827TIP3    H232677   4.620   6.156   9.129  1.3643  0.8684  0.2237
 2828TIP3   OH232678   1.610   3.492   6.937  0.6341 -0.3965  0.0398
 2828TIP3    H132679   1.634   3.402   6.917  0.6976 -0.3258 -0.2092
 2828TIP3    H232680   1.687   3.527   6.982  1.3086  0.0491 -1.4231
 2829TIP3   OH232681   0.139   0.185   8.394 -0.1904  0.2718  0.0317
 2829TIP3    H132682   0.065   0.192   8.334 -0.6151  0.9360  0.6118
 2829TIP3    H232683   0.207   0.239   8.354 -0.9568  1.8972  0.8241
 2830TIP3   OH232684   6.579   0.955   8.462  0.2260 -0.0830  0.2335
 2830TIP3    H132685   6.485   0.945   8.449  0.2683  1.2801 -1.4743
 2830TIP3    H232686   6.614   0.867   8.451 -0.8634 -0.6780  1.2770
 2831TIP3   OH232687   1.775   5.306   8.128 -0.2020  0.1622  0.1002
 2831TIP3    H132688   1.765   5.346   8.042  0.3995  0.2386  0.0622
 2831TIP3    H232689   1.836   5.363   8.174 -0.7857  0.3075  0.7030
 2832TIP3   OH232690   0.578   1.334   7.964  0.1364 -0.3505 -0.1049
 2832TIP3    H132691   0.658   1.371   8.001  0.7597 -1.4074 -0.3450
 2832TIP3    H232692   0.530   1.300   8.039  0.2322 -0.3010 -0.0205
 2833TIP3   OH232693   3.824   0.827   8.293 -0.7877  0.3318  0.1231
 2833TIP3    H132694   3.744   0.835   8.240  0.6183 -0.0677 -2.1784
 2833TIP3    H232695   3.819   0.739   8.331 -0.9801 -0.0665 -0.8120
 2834TIP3   OH232696   7.047   3.329   7.691 -0.4876  0.3414 -0.4087
 2834TIP3    H132697   7.056   3.382   7.770 -2.1357  1.2380 -0.7795
 2834TIP3    H232698   7.081   3.243   7.716  1.1912  1.2345  0.5432
 2835TIP3   OH232699   3.699   2.197   9.175  0.2765 -0.3287  0.4180
 2835TIP3    H132700   3.744   2.164   9.096  0.3080  1.1095 -0.1900
 2835TIP3    H232701   3.672   2.286   9.152 -1.5357 -0.5901  1.3213
 2836TIP3   OH232702   4.226   6.469   7.869 -0.2697 -0.4832  0.3607
 2836TIP3    H132703   4.179   6.399   7.916  2.0907 -1.0605  2.0398
 2836TIP3    H232704   4.313   6.470   7.908  0.2424  2.5027 -0.6014
 2837TIP3   OH232705   2.176   0.742   7.295  0.1632 -0.4897  0.3548
 2837TIP3    H132706   2.094   0.764   7.339 -1.4430 -0.9225 -2.2258
 2837TIP3    H232707   2.234   0.816   7.313 -1.7139  1.1222  0.0656
 2838TIP3   OH232708   5.589   5.440   6.775 -0.1345  0.5191 -0.3797
 2838TIP3    H132709   5.652   5.415   6.843 -0.2810 -0.3239 -0.5447
 2838TIP3    H232710   5.519   5.375   6.781 -1.8108  2.3113  0.8338
 2839TIP3   OH232711   0.786   6.965   9.387  0.1597 -0.3539  0.3504
 2839TIP3    H132712   0.744   7.006   9.462  0.3884  0.6317 -0.0470
 2839TIP3    H232713   0.790   7.034   9.321  1.8410 -0.5926  0.1561
 2840TIP3   OH232714   3.643   6.072   7.957 -0.2682 -0.1146  0.2475
 2840TIP3    H132715   3.571   6.134   7.948 -0.1136  0.0029 -0.1917
 2840TIP3    H232716   3.707   6.098   7.890 -0.0941 -0.5920  0.2207
 2841TIP3   OH232717   3.250   4.255   7.346 -0.2281  0.3341  0.0992
 2841TIP3    H132718   3.178   4.293   7.397 -0.8422 -1.1983  0.4521
 2841TIP3    H232719   3.270   4.173   7.392  2.3658  1.1144  0.5228
 2842TIP3   OH232720   6.146   5.927   8.942  0.1199 -0.0349  0.4307
 2842TIP3    H132721   6.202   5.850   8.931 -1.5587 -1.0663 -1.7018
 2842TIP3    H232722   6.162   5.980   8.864 -2.1166 -0.5971 -0.4863
 2843TIP3   OH232723   2.196   2.747   8.003  0.6316  0.0216 -0.0641
 2843TIP3    H132724   2.228   2.670   8.051 -0.9324 -0.4358  0.3174
 2843TIP3    H232725   2.101   2.734   7.998  0.3647  1.8103 -0.2360
 2844TIP3   OH232726   6.895   3.881   9.286  0.0420 -0.0803  0.1577
 2844TIP3    H132727   6.961   3.923   9.340  0.6498  0.0425 -0.6556
 2844TIP3    H232728   6.945   3.837   9.217 -0.6087 -1.6522  0.6457
 2845TIP3   OH232729   1.405   0.439   8.617  0.1243  0.3584  0.3595
 2845TIP3    H132730   1.460   0.362   8.602 -1.1860 -0.9125  1.7105
 2845TIP3    H232731   1.339   0.409   8.680 -0.3738  2.6282  1.0082
 2846TIP3   OH232732   0.428   3.427   9.621 -0.4488 -0.1171  0.5485
 2846TIP3    H132733   0.379   3.493   9.669  0.7918  0.4317  1.0992
 2846TIP3    H232734   0.371   3.402   9.548 -0.8078  1.8177  0.1178
 2847TIP3   OH232735   4.998   5.723   6.695 -0.0287 -0.5838 -0.1029
 2847TIP3    H132736   4.987   5.799   6.638 -0.8655 -1.2240 -0.8294
 2847TIP3    H232737   4.908   5.701   6.722  0.1469 -1.6047 -0.3147
 2848TIP3   OH232738   2.637   3.806   9.232  0.0116  0.2617  0.1798
 2848TIP3    H132739   2.594   3.751   9.297  2.0021 -0.6649  0.7884
 2848TIP3    H232740   2.636   3.753   9.152  0.5157 -0.0243  0.3539
 2849TIP3   OH232741   5.765   2.711   8.984  0.4315 -0.1073 -0.5341
 2849TIP3    H132742   5.814   2.776   9.034 -0.4990 -0.3182  0.6891
 2849TIP3    H232743   5.809   2.628   9.005  0.7614 -0.0590 -1.0081
 2850TIP3   OH232744   7.613   7.663   8.782  0.1519 -0.4616  0.3098
 2850TIP3    H132745   7.548   7.720   8.741 -1.0204 -1.4864  0.6882
 2850TIP3    H232746   7.594   7.669   8.876  0.1101 -1.3294  0.3637
 2851TIP3   OH232747   4.919   6.195   9.058  0.3049 -0.3365 -0.1583
 2851TIP3    H132748   4.923   6.186   8.963 -1.9445  0.7806 -0.4447
 2851TIP3    H232749   4.829   6.222   9.075  1.4769  2.8742  1.9567
 2852TIP3   OH232750   2.737   2.741   8.801  0.4606 -0.0705  0.4703
 2852TIP3    H132751   2.645   2.715   8.811  0.6301 -0.9128 -0.0435
 2852TIP3    H232752   2.767   2.757   8.891 -0.1019 -0.0982  0.6703
 2853TIP3   OH232753   5.197   7.529   8.294 -0.0508  0.3170  0.6698
 2853TIP3    H132754   5.289   7.525   8.269  0.0904 -0.3202  1.2486
 2853TIP3    H232755   5.162   7.603   8.246  0.6659  0.3036  0.1073
 2854TIP3   OH232756   1.371   1.819   7.791 -0.1111  1.2183 -0.3829
 2854TIP3    H132757   1.413   1.734   7.802 -0.8788  0.9194  0.2892
 2854TIP3    H232758   1.387   1.842   7.699 -1.2541 -0.3928 -1.0358
 2855TIP3   OH232759   7.108   0.590   7.190  0.4099 -0.2913  0.1152
 2855TIP3    H132760   7.202   0.581   7.176  0.1554 -1.0818 -1.2084
 2855TIP3    H232761   7.068   0.531   7.127 -1.0285  1.2356 -0.4773
 2856TIP3   OH232762   7.478   6.287   7.848  0.0217 -0.3508  0.3108
 2856TIP3    H132763   7.540   6.350   7.812  0.9327 -0.5046  1.5520
 2856TIP3    H232764   7.435   6.249   7.771  1.0156  0.2089 -0.5454
 2857TIP3   OH232765   7.047   6.413   6.899  0.0268  1.1054  0.1746
 2857TIP3    H132766   7.016   6.493   6.856  2.2308  2.8153  1.5681
 2857TIP3    H232767   6.978   6.392   6.963 -1.5141  0.6607 -1.5506
 2858TIP3   OH232768   4.327   7.263   8.728  0.1695 -0.3000 -0.1501
 2858TIP3    H132769   4.341   7.186   8.783  0.7084 -2.0112 -2.5533
 2858TIP3    H232770   4.415   7.291   8.702 -0.1050 -0.9443 -1.9293
 2859TIP3   OH232771   4.614   0.002   9.153 -0.6836 -0.1471 -0.7308
 2859TIP3    H132772   4.636  -0.062   9.220 -1.3230  1.6749  1.3314
 2859TIP3    H232773   4.695   0.051   9.138 -0.9504  0.5479  0.0156
 2860TIP3   OH232774   3.930   3.128   8.394  0.1716  0.2220  0.6437
 2860TIP3    H132775   4.011   3.082   8.371 -0.4214 -0.1676 -0.7711
 2860TIP3    H232776   3.869   3.059   8.418 -0.5549  0.2509 -0.9595
 2861TIP3   OH232777   2.453   7.262   8.688  0.3232  0.1975  0.3327
 2861TIP3    H132778   2.440   7.266   8.593  1.9461  2.1421  0.1365
 2861TIP3    H232779   2.404   7.184   8.715 -1.2161  0.2807 -1.9003
 2862TIP3   OH232780   1.670   4.476   8.240 -0.0380  0.4200  0.5700
 2862TIP3    H132781   1.601   4.480   8.306  1.3419  1.8953  2.0337
 2862TIP3    H232782   1.651   4.548   8.180 -0.9065 -0.4913 -0.2831
 2863TIP3   OH232783   1.245   1.626   9.085  0.3082 -0.2339  0.4205
 2863TIP3    H132784   1.272   1.633   9.177  0.9214  0.7836  0.1869
 2863TIP3    H232785   1.296   1.553   9.051  0.2289 -0.4899  0.8435
 2864TIP3   OH232786   2.655   3.370   7.074 -0.4639 -0.0642 -0.7132
 2864TIP3    H132787   2.619   3.454   7.102  1.4983  0.8003 -0.6283
 2864TIP3    H232788   2.740   3.364   7.119 -0.3661 -1.9035 -1.0463
 2865TIP3   OH232789   5.338   0.166   7.385  0.3570 -0.2502  0.1023
 2865TIP3    H132790   5.386   0.248   7.376  0.6665 -0.4247  0.1457
 2865TIP3    H232791   5.253   0.192   7.421  0.8145 -0.0532  1.0695
 2866TIP3   OH232792   4.975   4.381   8.550  0.5231  0.5504 -0.2859
 2866TIP3    H132793   4.977   4.395   8.644 -2.4188  0.0720 -0.0589
 2866TIP3    H232794   5.064   4.354   8.527  1.0461 -0.3527  2.5079
 2867TIP3   OH232795   6.861   4.639   8.657  0.4443 -1.0165 -0.1665
 2867TIP3    H132796   6.860   4.597   8.743 -1.5977 -0.0258  0.3696
 2867TIP3    H232797   6.768   4.648   8.635  0.8555  1.1422 -1.2563
 2868TIP3   OH232798   4.182   3.910   8.907  0.0686  0.4794  0.7543
 2868TIP3    H132799   4.220   3.982   8.857  0.5452 -0.0389  0.3437
 2868TIP3    H232800   4.176   3.838   8.843 -0.7069  0.2575  1.0662
 2869TIP3   OH232801   4.600   6.636   7.297  0.5315  0.2054 -0.6486
 2869TIP3    H132802   4.562   6.722   7.315  0.5005  0.0246  0.1595
 2869TIP3    H232803   4.674   6.629   7.356  0.2422 -0.5244 -0.3646
 2870TIP3   OH232804   0.540   1.377   8.435 -0.2663  0.5218 -0.1084
 2870TIP3    H132805   0.489   1.326   8.372 -0.3169  1.4917 -0.8679
 2870TIP3    H232806   0.479   1.391   8.508 -0.9810  1.3468 -0.8420
 2871TIP3   OH232807   0.532   4.626   7.693 -0.4409 -0.2199 -0.2339
 2871TIP3    H132808   0.610   4.587   7.655  0.0991 -0.1580  0.7783
 2871TIP3    H232809   0.494   4.557   7.748 -2.4167 -1.0435 -2.4504
 2872TIP3   OH232810   0.604   3.011   9.411  0.4928 -0.2902 -0.0491
 2872TIP3    H132811   0.665   3.035   9.480 -0.8931  0.8575  0.8202
 2872TIP3    H232812   0.532   3.074   9.418 -0.3959 -1.0551 -1.5864
 2873TIP3   OH232813   4.874   7.337   8.271 -0.2680 -0.0832  0.2898
 2873TIP3    H132814   4.805   7.271   8.267 -0.3667 -0.0403  1.0789
 2873TIP3    H232815   4.909   7.341   8.182 -0.9951 -0.4096 -0.0186
 2874TIP3   OH232816   2.963   1.327   9.477 -0.3854 -0.5767  0.3886
 2874TIP3    H132817   3.017   1.317   9.398 -0.9903  0.0820 -0.1267
 2874TIP3    H232818   3.026   1.327   9.549  0.1898 -1.0636 -0.0989
 2875TIP3   OH232819   1.709   7.664   9.364  0.2381 -0.0918  0.0093
 2875TIP3    H132820   1.744   7.622   9.285 -0.1903 -2.4443  0.9936
 2875TIP3    H232821   1.780   7.660   9.427  0.1737  0.6766  0.1426
 2876TIP3   OH232822   4.351   7.031   8.922  0.6411  0.5564  0.2030
 2876TIP3    H132823   4.289   7.007   8.991  0.1267  1.9983  0.2827
 2876TIP3    H232824   4.411   6.957   8.917 -1.6667 -1.3804 -0.6016
 2877TIP3   OH232825   5.615   0.438   9.523 -0.6054 -0.0748  0.1589
 2877TIP3    H132826   5.583   0.349   9.534 -1.3837  0.2543  0.6016
 2877TIP3    H232827   5.707   0.434   9.550 -0.5547 -0.8005 -0.1136
 2878TIP3   OH232828   0.238   5.915   8.298 -0.3737  0.0623 -0.2756
 2878TIP3    H132829   0.288   5.983   8.343 -0.5291  0.4122 -0.6232
 2878TIP3    H232830   0.289   5.896   8.219  0.1164 -0.8508  0.2447
 2879TIP3   OH232831   2.915   2.329   9.012 -0.3942 -0.2532  0.4288
 2879TIP3    H132832   3.008   2.313   8.995 -0.4423 -0.1435  0.0615
 2879TIP3    H232833   2.895   2.410   8.964 -0.9996 -0.9855 -0.5891
 2880TIP3   OH232834   5.191   4.556   7.620  0.0726  0.1725  0.1963
 2880TIP3    H132835   5.158   4.493   7.556 -0.1400  0.5695 -0.0938
 2880TIP3    H232836   5.280   4.575   7.592  0.4607 -0.6790  0.8104
 2881TIP3   OH232837   5.756   2.564   8.200  0.4001 -0.0001 -0.1877
 2881TIP3    H132838   5.794   2.652   8.197  3.6950 -1.2617  0.5382
 2881TIP3    H232839   5.812   2.511   8.143 -0.9853 -1.8436  0.0483
 2882TIP3   OH232840   6.619   7.008   7.920  0.1188 -0.2361 -0.0443
 2882TIP3    H132841   6.548   6.968   7.869 -1.1944 -1.5616  2.6164
 2882TIP3    H232842   6.685   6.939   7.928  0.1807 -0.1412  0.2897
 2883TIP3   OH232843   2.526   3.895   8.778 -0.5341 -0.1314  0.5507
 2883TIP3    H132844   2.490   3.914   8.865  1.2391 -0.2141  1.3444
 2883TIP3    H232845   2.601   3.953   8.770  0.7443 -1.7850  0.0628
 2884TIP3   OH232846   0.395   1.630   7.937 -0.3149  0.5871  0.2101
 2884TIP3    H132847   0.352   1.590   8.013 -0.2999  1.6589  0.8109
 2884TIP3    H232848   0.432   1.556   7.888  0.0183 -0.1036  1.4602
 2885TIP3   OH232849   7.573   6.646   7.901  0.3457  0.7348 -0.0212
 2885TIP3    H132850   7.653   6.691   7.928 -0.2170  1.0106  1.2389
 2885TIP3    H232851   7.528   6.626   7.983 -1.0821  0.9517 -0.7317
 2886TIP3   OH232852   3.114   0.777   8.255  0.1506 -0.5869  0.1530
 2886TIP3    H132853   3.118   0.689   8.217  1.2123 -0.1213 -0.9220
 2886TIP3    H232854   3.194   0.819   8.223 -0.2977  0.7394  0.7274
 2887TIP3   OH232855   2.670   2.395   9.176 -0.0358 -0.3332 -0.2513
 2887TIP3    H132856   2.720   2.313   9.173 -0.3421 -0.5532  0.4620
 2887TIP3    H232857   2.738   2.463   9.182  0.2081 -0.5872 -0.0422
 2888TIP3   OH232858   4.619   7.078   7.172  0.0141  0.0064 -0.3027
 2888TIP3    H132859   4.604   6.990   7.206  1.2033 -0.6678 -1.4056
 2888TIP3    H232860   4.542   7.095   7.117 -1.3465  0.6384  1.7233
 2889TIP3   OH232861   1.131   4.757   7.442  0.2040 -0.6738 -0.4210
 2889TIP3    H132862   1.123   4.828   7.377 -0.1612 -0.1262  0.2108
 2889TIP3    H232863   1.185   4.794   7.511  0.4212 -1.1894 -0.3131
 2890TIP3   OH232864   2.195   7.298   7.877 -0.1861 -0.3756 -0.0102
 2890TIP3    H132865   2.110   7.260   7.901  0.3935 -0.2438  2.5339
 2890TIP3    H232866   2.233   7.234   7.817 -0.2534 -2.7721  2.2697
 2891TIP3   OH232867   7.383   6.030   6.870  0.0755 -0.1616  0.0140
 2891TIP3    H132868   7.330   6.036   6.949  0.4453 -1.2180  0.3604
 2891TIP3    H232869   7.335   6.080   6.804  0.2350  1.5301  1.1362
 2892TIP3   OH232870   5.870   0.058   9.423 -0.1797 -0.4693  0.1772
 2892TIP3    H132871   5.844   0.138   9.469  2.9005  0.4052  0.6274
 2892TIP3    H232872   5.850   0.075   9.331 -0.9280  0.2079  0.4586
 2893TIP3   OH232873   3.328   2.499   7.780  0.2166 -0.3727 -0.6345
 2893TIP3    H132874   3.298   2.527   7.694 -0.4756 -0.0763 -0.3092
 2893TIP3    H232875   3.422   2.486   7.770  0.0754 -0.7693 -1.5385
 2894TIP3   OH232876   2.784   5.866   9.271  0.0023 -0.2278  0.0068
 2894TIP3    H132877   2.774   5.782   9.227  1.8349  0.2486 -1.4398
 2894TIP3    H232878   2.861   5.855   9.326 -0.7703  0.0009  1.1763
 2895TIP3   OH232879   2.867   0.789   7.639  0.2716 -0.1568 -0.7875
 2895TIP3    H132880   2.810   0.826   7.707  0.5947  2.7139 -1.9533
 2895TIP3    H232881   2.815   0.718   7.601 -0.3929 -1.0497  1.5745
 2896TIP3   OH232882   6.431   3.337   9.267 -0.7542  0.0655 -0.1160
 2896TIP3    H132883   6.500   3.307   9.326 -0.9177 -0.0802  0.0035
 2896TIP3    H232884   6.368   3.381   9.324 -0.6971  0.3125 -0.2421
 2897TIP3   OH232885   1.993   1.635   8.585 -0.1214  0.5698  0.1451
 2897TIP3    H132886   1.927   1.702   8.567 -0.1763  0.9529  1.5792
 2897TIP3    H232887   1.950   1.553   8.562 -0.2515  0.9663 -1.1108
 2898TIP3   OH232888   1.545   0.533   8.921 -0.7846  0.1763 -0.8284
 2898TIP3    H132889   1.616   0.486   8.877 -0.1784  0.1597  0.1238
 2898TIP3    H232890   1.514   0.596   8.857  1.2231  1.3341 -0.7452
 2899TIP3   OH232891   1.230   2.024   9.509 -0.1099 -0.4011  0.4445
 2899TIP3    H132892   1.208   2.091   9.573 -2.3613 -0.6910  0.0385
 2899TIP3    H232893   1.192   2.055   9.426 -0.7243 -1.8849  0.1347
 2900TIP3   OH232894   6.433   0.835   8.971  0.0615  0.2640 -0.0577
 2900TIP3    H132895   6.520   0.844   8.933 -0.7146  1.7828 -1.6056
 2900TIP3    H232896   6.381   0.904   8.930 -2.1082 -1.1319  0.1432
 2901TIP3   OH232897   4.939   1.489   9.327 -0.1196 -0.0818 -0.3029
 2901TIP3    H132898   4.965   1.397   9.322  0.4558  0.1322 -3.1864
 2901TIP3    H232899   4.846   1.489   9.305  0.0558  0.0584 -1.0795
 2902TIP3   OH232900   4.101   2.934   9.598 -0.1601 -0.5109  0.1974
 2902TIP3    H132901   4.063   3.015   9.633 -1.3722 -1.0296  0.1620
 2902TIP3    H232902   4.180   2.961   9.553 -1.7670  1.0020 -1.9034
 2903TIP3   OH232903   0.703   2.293   9.266  0.1949  0.2251 -0.0916
 2903TIP3    H132904   0.683   2.386   9.257  1.3997  0.4103 -1.2038
 2903TIP3    H232905   0.667   2.253   9.187 -0.9616 -0.4023  0.7201
 2904TIP3   OH232906   0.347   1.353   9.376  0.0119  0.1505 -0.0423
 2904TIP3    H132907   0.394   1.376   9.296 -1.8066 -3.1070 -2.2668
 2904TIP3    H232908   0.256   1.374   9.357 -0.5596 -1.4427  0.7946
 2905TIP3   OH232909   0.993   1.435   8.702 -0.4178 -0.0594  0.5636
 2905TIP3    H132910   0.956   1.460   8.786  1.5586  0.7682  1.2179
 2905TIP3    H232911   1.082   1.468   8.703 -0.0951 -0.7054 -1.5579
 2906TIP3   OH232912   5.976   3.792   7.281 -0.1693 -0.0429  0.1076
 2906TIP3    H132913   6.064   3.827   7.296  0.8749 -1.4466 -2.1670
 2906TIP3    H232914   5.962   3.804   7.187 -0.7132 -3.4045 -0.3611
 2907TIP3   OH232915   3.757   1.556   9.081  0.2575 -0.0705 -0.4330
 2907TIP3    H132916   3.763   1.640   9.035  0.1923 -0.0361 -0.3799
 2907TIP3    H232917   3.674   1.519   9.052  0.9336 -0.7792 -1.5612
 2908TIP3   OH232918   7.163   7.111   8.889  0.3338  0.4275  0.3016
 2908TIP3    H132919   7.176   7.184   8.950 -1.1524 -0.4612  1.7724
 2908TIP3    H232920   7.105   7.146   8.822 -0.0823  0.7144  0.7995
 2909TIP3   OH232921   5.954   2.502   8.576 -0.1009 -0.8134  0.2739
 2909TIP3    H132922   6.045   2.487   8.599  0.0062 -0.5245  0.0402
 2909TIP3    H232923   5.918   2.415   8.559 -0.1231 -1.0230  1.2979
 2910TIP3   OH232924   5.128   0.460   8.216 -0.5450  0.6871 -0.5933
 2910TIP3    H132925   5.086   0.411   8.145 -0.3719  1.6844 -1.4113
 2910TIP3    H232926   5.149   0.545   8.177  3.1699 -0.0577 -0.5693
 2911TIP3   OH232927   2.079   4.160   7.937 -0.0565 -0.1365 -0.1786
 2911TIP3    H132928   2.132   4.239   7.927  0.3879 -0.7082 -2.9241
 2911TIP3    H232929   1.992   4.193   7.961  0.6453  1.0124  0.9017
 2912TIP3   OH232930   2.337   3.214   8.348  0.8010  0.3193  0.2531
 2912TIP3    H132931   2.366   3.128   8.377  0.8771  0.4363  0.5330
 2912TIP3    H232932   2.355   3.271   8.423  2.8159  1.0081 -0.6827
 2913TIP3   OH232933   2.042   0.306   8.146  0.3933  0.7150  0.8480
 2913TIP3    H132934   2.004   0.368   8.084 -0.5695 -0.9893 -0.3411
 2913TIP3    H232935   1.989   0.227   8.137  2.7413 -0.9717  0.8718
 2914TIP3   OH232936   4.483   4.751   8.751  0.0586  0.2547 -0.9697
 2914TIP3    H132937   4.413   4.801   8.795  1.5587  0.7348  1.0137
 2914TIP3    H232938   4.442   4.668   8.730 -0.6010 -0.4165  2.3052
 2915TIP3   OH232939   3.939   0.851   7.241  0.1758 -0.4897 -0.5113
 2915TIP3    H132940   4.015   0.872   7.186 -0.9663  0.2577 -1.8923
 2915TIP3    H232941   3.930   0.756   7.235 -0.2419 -0.3926 -2.1616
 2916TIP3   OH232942   4.737   6.206   8.601 -0.8871 -0.1928  0.3319
 2916TIP3    H132943   4.665   6.227   8.661  0.4886  1.0271  1.6123
 2916TIP3    H232944   4.747   6.111   8.608  0.0438  0.0223  3.0526
 2917TIP3   OH232945   1.795   5.430   6.741  0.2905 -0.0811  0.0379
 2917TIP3    H132946   1.821   5.493   6.674  2.3057 -0.2463  0.6076
 2917TIP3    H232947   1.877   5.390   6.770 -0.6852 -1.1368  1.5044
 2918TIP3   OH232948   2.849   0.940   9.253  0.3592  0.0513 -0.7055
 2918TIP3    H132949   2.921   0.906   9.306 -0.3352 -1.5034 -0.7033
 2918TIP3    H232950   2.786   0.867   9.249 -0.4552  0.8019 -2.0809
 2919TIP3   OH232951   7.334   7.499   7.682  0.5693 -0.2194  0.0669
 2919TIP3    H132952   7.409   7.472   7.735  0.8800 -0.7793 -0.6480
 2919TIP3    H232953   7.366   7.495   7.592 -0.3809 -0.6762 -0.2576
 2920TIP3   OH232954   6.174   2.959   8.245 -0.5054 -0.4868 -0.1279
 2920TIP3    H132955   6.147   3.046   8.217 -1.0111 -0.5546  0.1410
 2920TIP3    H232956   6.270   2.963   8.246 -0.4917 -0.3070 -1.2580
 2921TIP3   OH232957   6.044   4.353   7.614  0.0934  0.2826  0.3863
 2921TIP3    H132958   5.999   4.395   7.687  0.7659  0.5860  0.6334
 2921TIP3    H232959   5.988   4.279   7.591 -1.3539  1.5693 -0.3604
 2922TIP3   OH232960   2.676   2.854   7.895  0.3136  0.2023 -0.0478
 2922TIP3    H132961   2.588   2.817   7.898  0.0081  0.9788  0.8025
 2922TIP3    H232962   2.721   2.802   7.829 -1.2173  0.7654 -1.6132
 2923TIP3   OH232963   6.244   1.066   8.541 -0.0689 -0.8230  0.0433
 2923TIP3    H132964   6.162   1.039   8.583  0.2155 -0.7852  0.6381
 2923TIP3    H232965   6.266   0.993   8.484 -0.9486 -0.4721 -0.7592
 2924TIP3   OH232966   2.258   4.943   7.730  0.0978  0.2693 -0.1790
 2924TIP3    H132967   2.345   4.904   7.731 -0.4720 -1.0625 -0.0521
 2924TIP3    H232968   2.266   5.019   7.673  1.8150  1.3386  1.3766
 2925TIP3   OH232969   4.545   0.249   9.020  0.1062 -0.3256 -0.1445
 2925TIP3    H132970   4.500   0.214   8.944  1.2449  0.3822 -1.1771
 2925TIP3    H232971   4.534   0.182   9.088 -0.3639 -1.2619 -1.1222
 2926TIP3   OH232972   1.449   2.898   8.375 -0.0628  0.0225  0.7058
 2926TIP3    H132973   1.354   2.906   8.384 -0.2178  1.3504 -1.3689
 2926TIP3    H232974   1.465   2.805   8.360 -1.3256  0.0491 -1.1245
 2927TIP3   OH232975   0.406   2.976   9.124  0.4916  0.4378  0.3888
 2927TIP3    H132976   0.341   2.986   9.193 -0.3064 -1.3357 -0.0638
 2927TIP3    H232977   0.473   2.918   9.162 -0.0645 -0.7289 -0.3707
 2928TIP3   OH232978   5.632   1.027   7.701 -0.2251  0.8534  0.2898
 2928TIP3    H132979   5.691   0.977   7.756  0.0545  0.5213 -0.3082
 2928TIP3    H232980   5.611   1.105   7.754  0.2020  0.6469  0.7758
 2929TIP3   OH232981   1.678   5.994   7.719  0.4591  0.0570 -0.1327
 2929TIP3    H132982   1.689   5.970   7.628 -1.9079 -0.7719 -0.2828
 2929TIP3    H232983   1.712   5.919   7.769 -0.0677 -0.3712 -0.4067
 2930TIP3   OH232984   0.989   7.657   8.019 -0.4433 -0.3715 -0.1302
 2930TIP3    H132985   0.908   7.612   8.044 -0.5949  0.5950  1.2201
 2930TIP3    H232986   0.980   7.744   8.057  2.0350 -0.8144  1.7145
 2931TIP3   OH232987   5.901   3.546   8.878  0.1381 -0.1663 -0.2636
 2931TIP3    H132988   5.968   3.546   8.809  1.0175 -1.5210  0.5420
 2931TIP3    H232989   5.820   3.525   8.832  0.5889 -0.3952 -0.9786
 2932TIP3   OH232990   0.152   6.581   8.924  0.1596  0.2322 -0.0268
 2932TIP3    H132991   0.172   6.577   9.017 -0.7554  0.2868  0.1838
 2932TIP3    H232992   0.056   6.585   8.920  0.1427 -0.5777 -0.9882
 2933TIP3   OH232993   4.996   2.315   9.490  0.4702 -0.9768 -0.6651
 2933TIP3    H132994   4.965   2.254   9.424 -1.8908 -1.8061  1.0794
 2933TIP3    H232995   4.932   2.386   9.490  0.4346 -0.9783  0.6863
 2934TIP3   OH232996   2.419   5.575   8.240 -0.5057  0.3577  0.1484
 2934TIP3    H132997   2.394   5.494   8.286 -2.4974  0.7658 -0.1065
 2934TIP3    H232998   2.497   5.605   8.286 -0.7583 -0.7819  1.4115
 2935TIP3   OH232999   5.874   0.397   8.105  0.1532  0.0445  0.3432
 2935TIP3    H133000   5.840   0.428   8.021  1.7592  0.4071 -0.2039
 2935TIP3    H233001   5.797   0.392   8.162 -1.1363 -1.1300 -1.4012
 2936TIP3   OH233002   2.823   5.327   7.811 -0.0329 -0.1685 -0.2072
 2936TIP3    H133003   2.757   5.264   7.842  1.8795 -2.0590  0.2248
 2936TIP3    H233004   2.855   5.290   7.729 -0.4452  1.4480 -1.1247
 2937TIP3   OH233005   5.130   0.090   8.187  0.0894 -0.1258  0.2367
 2937TIP3    H133006   5.099   0.165   8.236 -0.6481 -1.0634  1.2462
 2937TIP3    H233007   5.114   0.113   8.095 -2.7371 -0.1374  0.6368
 2938TIP3   OH233008   6.116   0.280   7.287  0.2228  0.7682 -0.1917
 2938TIP3    H133009   6.023   0.261   7.293 -0.3967  3.0716 -1.2788
 2938TIP3    H233010   6.135   0.331   7.366 -0.0858  2.4366 -1.1400
 2939TIP3   OH233011   6.907   5.965   8.166 -0.3311  0.3423 -0.5504
 2939TIP3    H133012   6.936   5.911   8.093  2.7239  0.9360  0.1060
 2939TIP3    H233013   6.918   5.909   8.243 -1.3060  0.4980 -0.2812
 2940TIP3   OH233014   6.040   5.428   9.282  0.1033 -0.1139 -0.0047
 2940TIP3    H133015   6.007   5.342   9.258 -0.0816  0.1256 -0.6383
 2940TIP3    H233016   5.963   5.485   9.277  0.3998  0.2509 -0.4611
 2941TIP3   OH233017   3.638   3.104   8.071  0.2518 -0.0566 -0.0668
 2941TIP3    H133018   3.561   3.101   8.129 -0.1497  0.5200 -0.5543
 2941TIP3    H233019   3.670   3.014   8.068 -0.0801 -0.2022  0.5775
 2942TIP3   OH233020   0.983   5.273   9.732  0.1463  0.1848  0.1702
 2942TIP3    H133021   0.949   5.267   9.821 -0.9776  0.4852 -0.2271
 2942TIP3    H233022   0.974   5.365   9.709 -2.1869 -0.3349 -1.2379
 2943TIP3   OH233023   6.226   2.845   8.682 -0.0792 -0.6867  0.4631
 2943TIP3    H133024   6.302   2.898   8.660 -0.5592 -0.5470 -0.9627
 2943TIP3    H233025   6.258   2.755   8.682  0.3376 -0.5462  1.0792
 2944TIP3   OH233026   0.431   6.733   9.038 -0.0272  0.0212 -0.9167
 2944TIP3    H133027   0.347   6.775   9.024  0.2547  0.6565 -0.7394
 2944TIP3    H233028   0.477   6.791   9.099 -0.4029 -1.5326  0.9538
 2945TIP3   OH233029   1.944   5.526   8.561  0.1345  0.5429 -0.4256
 2945TIP3    H133030   1.926   5.442   8.518  2.9636  0.2409 -1.1677
 2945TIP3    H233031   1.881   5.530   8.633  1.1012 -3.1194  0.8152
 2946TIP3   OH233032   5.222   6.060   9.354  0.2872  0.3868  0.0260
 2946TIP3    H133033   5.287   5.990   9.348 -0.4091 -0.2105 -0.9056
 2946TIP3    H233034   5.271   6.136   9.384  1.3463 -0.1482 -0.3003
 2947TIP3   OH233035   1.239   4.415   6.668 -0.3791 -0.3808 -0.3803
 2947TIP3    H133036   1.307   4.348   6.675  0.0256  0.0777  0.1462
 2947TIP3    H233037   1.285   4.498   6.685 -0.9850 -0.0245 -0.4513
 2948TIP3   OH233038   0.820   3.897   7.766  0.2912 -0.4659  0.0869
 2948TIP3    H133039   0.912   3.895   7.739  0.0432 -1.3078 -0.7178
 2948TIP3    H233040   0.771   3.913   7.686 -0.3171 -0.8432  0.3745
 2949TIP3   OH233041   4.080   5.942   7.619 -0.7323  0.2046 -0.1549
 2949TIP3    H133042   4.138   6.003   7.574 -0.4058 -0.3794 -0.5478
 2949TIP3    H233043   4.138   5.893   7.677 -0.7065 -0.8289 -1.0256
 2950TIP3   OH233044   0.322   6.774   8.254  0.2414 -0.1334 -0.7566
 2950TIP3    H133045   0.407   6.808   8.226 -0.0973  0.0119 -1.6525
 2950TIP3    H233046   0.268   6.776   8.175 -0.3472 -1.0185 -0.4022
 2951TIP3   OH233047   0.290   6.193   8.092  0.1134  0.0312  0.0798
 2951TIP3    H133048   0.248   6.140   8.024 -0.2278 -0.3466  0.5811
 2951TIP3    H233049   0.370   6.144   8.115 -0.2276 -0.2980  0.5788
 2952TIP3   OH233050   2.146   1.421   9.299  0.1721 -0.1901  0.8200
 2952TIP3    H133051   2.194   1.502   9.281  0.0037 -0.7750 -3.0734
 2952TIP3    H233052   2.055   1.443   9.278 -0.3017 -0.7533  2.2141
 2953TIP3   OH233053   5.722   0.927   8.467  0.3426 -0.7038 -0.4659
 2953TIP3    H133054   5.731   0.954   8.558  0.4153 -0.7767 -0.4513
 2953TIP3    H233055   5.637   0.883   8.463  0.1243 -0.2788 -0.5385
 2954TIP3   OH233056   7.396   6.540   8.706  0.1467  0.1767 -0.4413
 2954TIP3    H133057   7.332   6.553   8.776  0.5699  0.4219 -0.0976
 2954TIP3    H233058   7.405   6.445   8.699  0.4717  0.1632  0.1709
 2955TIP3   OH233059   5.810   1.510   8.423 -0.2444  0.2128 -0.4133
 2955TIP3    H133060   5.850   1.573   8.484 -1.3634  2.5763 -1.9628
 2955TIP3    H233061   5.883   1.482   8.368  0.5630 -1.0875  1.2305
 2956TIP3   OH233062   6.307   2.397   9.191  0.2359 -0.3507  0.2253
 2956TIP3    H133063   6.309   2.439   9.106  1.2035 -1.3341 -0.2693
 2956TIP3    H233064   6.263   2.459   9.248  0.1471  0.5948 -0.8471
 2957TIP3   OH233065   1.550   5.575   7.942  0.0554  0.8586  0.2246
 2957TIP3    H133066   1.631   5.526   7.951 -1.1306 -0.8652  3.1710
 2957TIP3    H233067   1.572   5.663   7.972  0.9608  0.5578  0.4771
 2958TIP3   OH233068   6.487   2.925   8.672 -0.2042  0.0310 -0.2183
 2958TIP3    H133069   6.569   2.876   8.669  0.5387  1.1280  0.8502
 2958TIP3    H233070   6.482   2.969   8.587  1.0754  1.0606  0.1862
 2959TIP3   OH233071   3.550   0.352   9.203 -0.3400 -0.6327  0.5397
 2959TIP3    H133072   3.494   0.423   9.174 -0.5501 -0.2654  1.7702
 2959TIP3    H233073   3.490   0.291   9.247  0.0984 -0.6424  1.1408
 2960TIP3   OH233074   1.654   7.094   7.585 -0.2361 -0.1280  0.0648
 2960TIP3    H133075   1.696   7.103   7.500  1.4222  1.2562  0.9848
 2960TIP3    H233076   1.572   7.142   7.577 -0.0467  0.0731 -0.7112
 2961TIP3   OH233077   1.262   7.526   6.818  0.1757 -0.1800 -0.0816
 2961TIP3    H133078   1.292   7.465   6.885 -1.1377 -0.3187  0.3986
 2961TIP3    H233079   1.301   7.493   6.737 -2.5511 -3.2857 -0.3122
 2962TIP3   OH233080   7.015   1.551   7.426 -0.4456 -0.3434  0.0047
 2962TIP3    H133081   6.985   1.474   7.377 -0.0685 -0.5246  0.0581
 2962TIP3    H233082   7.070   1.598   7.363  1.0451 -1.2062  0.6185
 2963TIP3   OH233083   3.947   4.337   7.567 -0.0054 -0.0027 -0.2189
 2963TIP3    H133084   3.989   4.397   7.629 -1.2900  0.1409  0.5704
 2963TIP3    H233085   3.974   4.250   7.595  1.1163  0.1432 -0.7912
 2964TIP3   OH233086   6.813   3.862   8.286  0.2623  0.4827  0.8861
 2964TIP3    H133087   6.726   3.843   8.322  0.3717  0.1637  0.9830
 2964TIP3    H233088   6.874   3.818   8.346  0.5408  1.4309  1.3125
 2965TIP3   OH233089   3.636   5.038   9.168  0.1958 -0.4251  0.4095
 2965TIP3    H133090   3.667   5.007   9.253  1.9127  0.1292  0.0409
 2965TIP3    H233091   3.652   5.132   9.169  0.5409 -0.4517 -0.6174
 2966TIP3   OH233092   5.816   6.050   7.828 -0.3613  0.6311  0.4415
 2966TIP3    H133093   5.850   6.067   7.916 -1.5035  1.2977  0.7685
 2966TIP3    H233094   5.821   6.135   7.784 -1.8947  0.8371  0.6165
 2967TIP3   OH233095   0.862   2.410   8.331 -0.0188 -0.6697  0.0866
 2967TIP3    H133096   0.806   2.345   8.289  0.0707 -0.9456  0.3918
 2967TIP3    H233097   0.813   2.492   8.325  0.9776 -0.1625 -2.6847
 2968TIP3   OH233098   4.316   4.624   8.393 -0.5861  0.0225 -0.3897
 2968TIP3    H133099   4.305   4.566   8.318 -0.5810  1.0031 -1.1572
 2968TIP3    H233100   4.380   4.579   8.448 -2.1979 -1.7689  0.1373
 2969TIP3   OH233101   3.671   1.917   9.238 -0.0832 -0.3509  0.1689
 2969TIP3    H133102   3.616   1.868   9.176  1.2262  0.9097 -2.1347
 2969TIP3    H233103   3.631   2.004   9.242  0.2260 -0.2262  0.6152
 2970TIP3   OH233104   3.125   5.494   9.229  0.0388 -0.7707 -0.1228
 2970TIP3    H133105   3.059   5.437   9.268  0.0776  0.4881  1.9101
 2970TIP3    H233106   3.075   5.557   9.178 -0.0653 -1.9278 -1.5086
 2971TIP3   OH233107   1.382   5.582   9.181 -0.0466  0.2820  0.3240
 2971TIP3    H133108   1.444   5.655   9.177  0.4441 -0.1832 -1.7389
 2971TIP3    H233109   1.299   5.619   9.153 -0.3721  0.5481  1.5757
 2972TIP3   OH233110   4.782   6.780   8.469  0.5201  0.0165 -0.0725
 2972TIP3    H133111   4.744   6.694   8.487 -0.2098  0.7458  2.1972
 2972TIP3    H233112   4.872   6.775   8.502  0.9433 -0.2874 -1.2343
 2973TIP3   OH233113   1.358   4.754   8.590 -0.3421 -0.0939  0.4946
 2973TIP3    H133114   1.340   4.662   8.570 -2.2623  0.5565 -1.0471
 2973TIP3    H233115   1.272   4.795   8.596  0.4547  2.0045 -0.9464
 2974TIP3   OH233116   3.531   2.557   9.648  0.2816  0.2295 -0.2884
 2974TIP3    H133117   3.464   2.602   9.597  0.3923  1.3706  0.5393
 2974TIP3    H233118   3.614   2.596   9.620  0.4467  0.0126 -0.1103
 2975TIP3   OH233119   7.207   1.968   9.620  0.1548  0.1213 -0.3193
 2975TIP3    H133120   7.127   2.018   9.603 -0.2847 -0.5231 -0.1962
 2975TIP3    H233121   7.205   1.898   9.554  0.6922  0.1884 -0.4073
 2976TIP3   OH233122   5.676   5.154   8.822 -0.4106 -0.6337 -0.0095
 2976TIP3    H133123   5.714   5.122   8.904  1.0428 -2.0688 -1.1672
 2976TIP3    H233124   5.616   5.085   8.795  0.3844 -0.9737 -0.9651
 2977TIP3   OH233125   0.063   2.107   8.067  0.4466  0.2622 -0.5330
 2977TIP3    H133126   0.088   2.193   8.034 -1.6030  0.5466 -1.4929
 2977TIP3    H233127  -0.029   2.116   8.094 -0.5137 -2.0923 -2.6077
 2978TIP3   OH233128   6.118   4.412   8.682  0.5804 -0.1696 -0.0648
 2978TIP3    H133129   6.074   4.340   8.637  1.1686 -0.8903  0.4827
 2978TIP3    H233130   6.112   4.389   8.775  0.1222  0.8731  0.1858
 2979TIP3   OH233131   5.486   6.145   8.247 -0.3062 -0.2394  0.3591
 2979TIP3    H133132   5.542   6.205   8.199  0.3281 -0.0055  1.3750
 2979TIP3    H233133   5.516   6.058   8.221  0.6966 -0.1163  1.0853
 2980TIP3   OH233134   3.913   2.629   7.256 -0.6760  0.0341  0.6394
 2980TIP3    H133135   3.916   2.610   7.350 -1.1846  0.3003  0.7121
 2980TIP3    H233136   3.882   2.548   7.216  2.4506 -1.1650  0.3543
 2981TIP3   OH233137   2.458   2.373   7.962 -0.5718  0.2732  0.2475
 2981TIP3    H133138   2.538   2.322   7.977 -1.7976 -1.9347 -0.1891
 2981TIP3    H233139   2.449   2.376   7.867 -0.3208  1.7224  0.2479
 2982TIP3   OH233140   0.665   1.219   7.733 -0.1254 -0.1217 -0.0556
 2982TIP3    H133141   0.661   1.274   7.811  0.9151  1.0933 -0.8214
 2982TIP3    H233142   0.579   1.227   7.692 -0.5435 -0.4535  0.7367
 2983TIP3   OH233143   4.452   0.915   8.649 -0.1229 -0.1951  0.8637
 2983TIP3    H133144   4.400   0.983   8.605 -2.2624 -2.7698 -0.8878
 2983TIP3    H233145   4.526   0.901   8.590 -0.8583 -0.8501  0.0593
 2984TIP3   OH233146   1.265   4.953   8.176  0.1563  0.3403  0.2749
 2984TIP3    H133147   1.205   5.027   8.177  1.9855  1.9024  0.2063
 2984TIP3    H233148   1.319   4.965   8.254  0.3401 -1.0713  0.3904
 2985TIP3   OH233149   7.121   0.299   7.306  0.4275  0.6551 -0.2372
 2985TIP3    H133150   7.114   0.316   7.212  0.2091  0.7157 -0.2085
 2985TIP3    H233151   7.133   0.386   7.345  1.2762  0.5658 -0.2794
 2986TIP3   OH233152   2.146   0.592   8.437  0.0591 -0.0159  0.0533
 2986TIP3    H133153   2.172   0.503   8.413 -1.7385 -0.7268  0.6202
 2986TIP3    H233154   2.094   0.623   8.363 -1.8807 -0.6126  1.1110
 2987TIP3   OH233155   5.069   2.077   9.187 -0.5878 -0.0026  0.2270
 2987TIP3    H133156   5.160   2.048   9.180 -0.7081 -0.8022  1.6698
 2987TIP3    H233157   5.021   2.000   9.217 -1.6192  0.6136  0.2029
 2988TIP3   OH233158   4.436   5.369   7.230 -0.4182  0.3579  0.5967
 2988TIP3    H133159   4.488   5.424   7.172 -0.4526  0.4330  0.6371
 2988TIP3    H233160   4.370   5.330   7.173 -0.2451  0.1700  0.5235
 2989TIP3   OH233161   5.230   2.914   8.471  0.1323 -0.6464 -0.3483
 2989TIP3    H133162   5.251   2.915   8.564 -2.2139 -2.4146  0.3142
 2989TIP3    H233163   5.215   2.821   8.451 -1.5082 -0.1080 -1.9333
 2990TIP3   OH233164   4.405   5.447   7.487 -0.3318  0.0783 -0.4926
 2990TIP3    H133165   4.313   5.455   7.512 -0.1664 -0.0403  0.1832
 2990TIP3    H233166   4.406   5.458   7.392 -0.9684  0.7495 -0.4273
 2991TIP3   OH233167   1.037   5.477   7.531 -0.1695 -0.0787 -0.2450
 2991TIP3    H133168   1.066   5.408   7.470 -0.3550 -0.0614 -0.3532
 2991TIP3    H233169   1.065   5.445   7.617  0.7095  0.2186 -0.4053
 2992TIP3   OH233170   6.819   2.476   8.117 -0.2690 -0.9079 -0.1149
 2992TIP3    H133171   6.811   2.571   8.102  0.8170 -0.3477  2.3187
 2992TIP3    H233172   6.739   2.453   8.163  0.3752 -0.6744  1.1853
 2993TIP3   OH233173   3.990   2.181   8.422  0.1396 -0.1389  0.3857
 2993TIP3    H133174   4.046   2.112   8.389  0.2550  0.2755 -0.3005
 2993TIP3    H233175   4.049   2.237   8.473  0.3212  0.2107 -0.2056
 2994TIP3   OH233176   2.491   7.552   8.792  0.2560 -0.3160  0.1252
 2994TIP3    H133177   2.407   7.519   8.758  0.2771  0.3518 -0.6085
 2994TIP3    H233178   2.557   7.498   8.750  0.3255  1.0030 -1.5763
 2995TIP3   OH233179   7.468   1.653   9.368  0.1993  0.0828  0.5476
 2995TIP3    H133180   7.441   1.601   9.444 -1.2357  1.6049  1.1462
 2995TIP3    H233181   7.441   1.601   9.293  0.8009 -1.0310  1.0820
 2996TIP3   OH233182   2.198   1.970   8.724 -0.3081  0.3923  0.1229
 2996TIP3    H133183   2.231   1.940   8.809 -1.3574 -0.8683  0.1154
 2996TIP3    H233184   2.103   1.970   8.734 -0.4335  0.5322 -0.9517
 2997TIP3   OH233185   0.891   4.455   7.204 -0.4565 -0.6744  0.3764
 2997TIP3    H133186   0.797   4.468   7.205 -0.7075 -1.9436 -1.7254
 2997TIP3    H233187   0.904   4.370   7.164  1.6258  0.0502 -0.6677
 2998TIP3   OH233188   3.614   1.324   9.042  0.2153  0.5459 -0.0898
 2998TIP3    H133189   3.591   1.233   9.023 -0.5376  0.5423  0.7757
 2998TIP3    H233190   3.708   1.322   9.057  0.2570 -0.0354 -0.3932
 2999TIP3   OH233191   6.560   2.260   8.033 -0.4478 -0.1329 -0.3914
 2999TIP3    H133192   6.471   2.227   8.037 -1.0814  1.5977  2.9836
 2999TIP3    H233193   6.602   2.226   8.111  1.3879  0.4027 -1.0820
 3000TIP3   OH233194   6.575   6.354   8.352  0.3921 -0.1503 -0.2509
 3000TIP3    H133195   6.559   6.288   8.285 -1.0067 -0.4016  0.3018
 3000TIP3    H233196   6.508   6.421   8.337  0.3430  0.0093  0.6134
 3001TIP3   OH233197   1.749   2.646   9.118 -0.1340 -0.0122 -0.3100
 3001TIP3    H133198   1.836   2.609   9.099 -0.2664 -0.1525 -0.6521
 3001TIP3    H233199   1.706   2.579   9.172 -0.7527 -0.8507 -1.7740
 3002TIP3   OH233200   0.515   7.186   9.377  0.0426  0.3698  0.4020
 3002TIP3    H133201   0.539   7.171   9.468  0.3036  1.6467  0.5682
 3002TIP3    H233202   0.596   7.176   9.328 -0.2904 -1.3898  0.1337
 3003TIP3   OH233203   6.395   2.084   8.992 -0.0159  0.2472  0.0099
 3003TIP3    H133204   6.339   2.149   8.950  1.7517  1.3055 -0.8435
 3003TIP3    H233205   6.381   2.005   8.941  0.3945  0.9102 -1.1722
 3004TIP3   OH233206   3.110   2.575   8.904  0.4287 -0.4093 -0.3491
 3004TIP3    H133207   3.116   2.525   8.822  3.0199 -0.0522 -0.4840
 3004TIP3    H233208   3.047   2.645   8.885 -0.4936 -1.4690 -1.3671
 3005TIP3   OH233209   7.494   1.387   8.453 -0.1132  0.0026  0.1954
 3005TIP3    H133210   7.402   1.378   8.480 -0.3534  1.7697  0.0618
 3005TIP3    H233211   7.521   1.297   8.431 -1.5544 -0.6683  1.0017
 3006TIP3   OH233212   1.473   3.755   7.175 -0.3384  0.1843 -0.0143
 3006TIP3    H133213   1.474   3.762   7.079 -0.0535  1.2741  0.0590
 3006TIP3    H233214   1.406   3.817   7.203 -0.8653 -0.5938  0.4714
 3007TIP3   OH233215   2.562   7.139   6.676  0.3547  0.3192 -0.1424
 3007TIP3    H133216   2.540   7.221   6.632  1.0303 -0.1470 -1.4155
 3007TIP3    H233217   2.648   7.115   6.640 -1.0582 -2.3976 -2.0777
 3008TIP3   OH233218   1.568   4.641   8.038 -0.3812  0.5477 -0.1010
 3008TIP3    H133219   1.561   4.595   7.954  0.5569  0.6455 -0.2380
 3008TIP3    H233220   1.588   4.731   8.014  2.3520  0.1100  0.2394
 3009TIP3   OH233221   3.116   5.875   6.476  0.0998 -0.0257  0.2888
 3009TIP3    H133222   3.052   5.806   6.460  1.3884 -1.0681 -0.6035
 3009TIP3    H233223   3.189   5.854   6.417  0.6694  1.9158  0.2465
 3010TIP3   OH233224   2.400   5.983   9.015 -0.2371 -0.7902 -0.1023
 3010TIP3    H133225   2.341   6.056   9.034  0.4208 -0.5199  0.9407
 3010TIP3    H233226   2.342   5.912   8.986 -0.8263  0.3711 -1.9649
 3011TIP3   OH233227   4.303   5.492   8.300 -0.3354  0.5965 -0.3140
 3011TIP3    H133228   4.221   5.538   8.285 -2.2885 -2.7314 -0.7013
 3011TIP3    H233229   4.279   5.415   8.352  2.6365 -0.2362  0.0241
 3012TIP3   OH233230   2.189   2.639   8.686 -0.5415 -0.5873  0.0827
 3012TIP3    H133231   2.221   2.729   8.692  0.4928 -1.0549  2.5884
 3012TIP3    H233232   2.255   2.587   8.731 -2.4626 -2.2411  1.1387
 3013TIP3   OH233233   1.159   7.660   9.358 -0.1666  0.2533  0.3706
 3013TIP3    H133234   1.132   7.749   9.336  0.0343  0.7247  1.9284
 3013TIP3    H233235   1.227   7.670   9.423  0.8051 -1.0357 -0.3875
 3014TIP3   OH233236   7.493   5.957   8.433 -0.4411  0.5938 -0.5046
 3014TIP3    H133237   7.512   5.946   8.340 -0.9740  2.1570 -0.8146
 3014TIP3    H233238   7.570   5.920   8.477  0.3118  0.8319 -1.5811
 3015TIP3   OH233239   4.085   5.722   8.312 -0.3326  0.2952 -0.3146
 3015TIP3    H133240   4.145   5.790   8.341 -2.0267  1.6068  0.2755
 3015TIP3    H233241   4.014   5.723   8.377 -1.3851 -0.6423 -1.3894
 3016TIP3   OH233242   2.757   5.415   9.101  0.8741 -0.4241 -0.4639
 3016TIP3    H133243   2.805   5.458   9.172  0.6071  2.0289 -1.6608
 3016TIP3    H233244   2.819   5.412   9.029  0.7279 -1.7055 -0.5562
 3017TIP3   OH233245   1.396   1.432   8.971 -0.4646 -0.0085  0.3961
 3017TIP3    H133246   1.472   1.462   9.020 -1.3464 -3.4648  4.4769
 3017TIP3    H233247   1.423   1.436   8.879  3.8927  0.6875  1.4948
 3018TIP3   OH233248   0.159   1.588   8.668  0.3729  0.3882  0.2059
 3018TIP3    H133249   0.159   1.675   8.706 -0.5343  0.9042 -0.9132
 3018TIP3    H233250   0.078   1.585   8.616  1.8610 -0.0382 -2.1991
 3019TIP3   OH233251   4.786   1.141   9.236 -0.2560 -0.6947  0.2049
 3019TIP3    H133252   4.716   1.196   9.271 -0.9557 -1.4359  0.0024
 3019TIP3    H233253   4.867   1.184   9.265 -0.7280  1.0977 -0.9388
 3020TIP3   OH233254   1.152   2.834   6.718 -0.2549 -0.1220  0.1443
 3020TIP3    H133255   1.217   2.902   6.701 -0.4572 -0.2097 -1.0525
 3020TIP3    H233256   1.200   2.752   6.705 -1.1906 -0.2610 -3.7668
 3021TIP3   OH233257   3.884   7.067   6.704  0.0009  0.5343 -0.1721
 3021TIP3    H133258   3.863   7.161   6.709  0.8141  0.8560 -2.0325
 3021TIP3    H233259   3.972   7.060   6.740 -1.1991 -0.0695  2.9677
 3022TIP3   OH233260   1.014   1.090   7.138 -0.2419  0.0364 -0.6620
 3022TIP3    H133261   1.108   1.072   7.142 -0.3011 -0.1956 -0.1326
 3022TIP3    H233262   0.977   1.013   7.095 -0.4908 -1.1861  1.5798
 3023TIP3   OH233263   4.288   0.282   7.633 -0.4528  0.1180 -0.3715
 3023TIP3    H133264   4.358   0.321   7.580 -0.2382  0.7631  0.3773
 3023TIP3    H233265   4.312   0.302   7.723 -0.4523 -1.5816  0.0249
 3024TIP3   OH233266   5.771   1.806   7.796 -0.0031 -0.2740 -0.0509
 3024TIP3    H133267   5.680   1.780   7.783  0.2794 -0.9876 -0.6948
 3024TIP3    H233268   5.770   1.902   7.790 -0.9816 -0.1274  1.8084
 3025TIP3   OH233269   0.600   4.365   7.492  0.4025 -0.2483 -0.3434
 3025TIP3    H133270   0.639   4.321   7.416  0.3686 -1.3114  0.2373
 3025TIP3    H233271   0.536   4.425   7.454  0.2371 -0.9120 -1.1581
 3026TIP3   OH233272   6.586   7.520   7.948 -0.2037 -0.4804 -0.3732
 3026TIP3    H133273   6.611   7.434   7.915 -1.3588 -0.4305 -1.4391
 3026TIP3    H233274   6.668   7.558   7.981  0.5113 -1.5554 -0.8577
 3027TIP3   OH233275   4.270   1.332   7.130 -0.3116 -0.3163  0.0508
 3027TIP3    H133276   4.346   1.335   7.071 -0.4225 -0.5093 -0.1021
 3027TIP3    H233277   4.259   1.239   7.150  1.0660 -0.0894  2.1195
 3028TIP3   OH233278   1.026   4.044   7.629  0.0305  0.0946 -0.5313
 3028TIP3    H133279   1.078   4.060   7.708  0.8768 -0.6539 -0.9224
 3028TIP3    H233280   0.996   4.131   7.602  0.0511  0.3924  0.3956
 3029TIP3   OH233281   1.136   2.239   8.297  0.2870  0.4625  0.1316
 3029TIP3    H133282   1.163   2.293   8.223 -0.5401  1.1785  0.3448
 3029TIP3    H233283   1.213   2.184   8.316  1.8669  2.8779  1.1332
 3030TIP3   OH233284   4.801   4.636   8.890  0.3577  0.0678 -0.3242
 3030TIP3    H133285   4.765   4.725   8.893  0.9099  0.2789  0.2565
 3030TIP3    H233286   4.878   4.640   8.945  0.7547 -0.6181 -0.8196
 3031TIP3   OH233287   5.647   6.292   8.092 -0.3439 -0.0699  0.1112
 3031TIP3    H133288   5.609   6.342   8.019 -0.4340 -1.0178 -0.5145
 3031TIP3    H233289   5.674   6.358   8.155 -3.7847  0.6643  1.0233
 3032TIP3   OH233290   5.655   4.364   8.720  0.2692  0.2457 -0.9846
 3032TIP3    H133291   5.737   4.385   8.765  1.6075 -0.8700 -2.7696
 3032TIP3    H233292   5.669   4.277   8.683 -2.7407 -1.2047  0.8682
 3033TIP3   OH233293   1.157   0.863   8.302 -0.4648 -0.0230 -0.7260
 3033TIP3    H133294   1.241   0.846   8.344 -1.0662 -0.8493  0.1869
 3033TIP3    H233295   1.179   0.915   8.224  0.8581 -0.0662 -0.4031
 3034TIP3   OH233296   4.854   5.127   8.257 -0.3963  0.0157 -0.0906
 3034TIP3    H133297   4.896   5.190   8.315 -0.6637  1.2242 -1.1646
 3034TIP3    H233298   4.781   5.175   8.217 -0.6166 -0.9679 -0.9313
 3035TIP3   OH233299   3.754   3.326   8.727 -0.7282  0.3593 -0.0163
 3035TIP3    H133300   3.726   3.253   8.671 -1.1323  0.6932 -0.2588
 3035TIP3    H233301   3.818   3.374   8.674 -0.2056 -0.0080  0.2728
 3036TIP3   OH233302   1.606   6.968   6.492  0.1706 -0.4666  0.0490
 3036TIP3    H133303   1.693   6.930   6.481  0.2889  0.0958 -1.0776
 3036TIP3    H233304   1.547   6.901   6.457  0.0571 -1.2060  1.5765
 3037TIP3   OH233305   3.379   3.758   9.101 -0.0663 -0.1149 -0.1916
 3037TIP3    H133306   3.417   3.748   9.188  0.4926 -0.4014 -0.4623
 3037TIP3    H233307   3.302   3.701   9.101 -0.3698  0.2936  0.2859
 3038TIP3   OH233308   0.837   3.096   9.570 -0.5558 -0.5131 -0.3602
 3038TIP3    H133309   0.910   3.093   9.631  0.0733 -1.9326 -1.1332
 3038TIP3    H233310   0.772   3.153   9.612 -0.0319 -1.2168  1.4855
 3039TIP3   OH233311   1.770   6.901   8.973  0.1487  0.0748  0.1852
 3039TIP3    H133312   1.821   6.893   8.892  0.6781  1.7695  0.2994
 3039TIP3    H233313   1.764   6.996   8.988 -1.4169 -0.1430  1.2135
 3040TIP3   OH233314   0.903   1.063   9.129  0.3078 -0.3333  0.5873
 3040TIP3    H133315   0.920   1.042   9.037  1.0982 -1.1050  0.8941
 3040TIP3    H233316   0.820   1.111   9.127  0.5491  0.0930 -0.5713
 3041TIP3   OH233317   3.275   6.063   7.376  0.0868  0.0015 -0.1322
 3041TIP3    H133318   3.308   6.000   7.313 -1.8301 -0.0269 -1.1746
 3041TIP3    H233319   3.196   6.023   7.412 -0.6578  1.3939 -0.1285
 3042TIP3   OH233320   7.277   3.229   8.061  0.6814  0.4492  0.2416
 3042TIP3    H133321   7.357   3.256   8.107 -0.7232  2.2406  1.8475
 3042TIP3    H233322   7.220   3.197   8.131 -0.4050  0.2847 -0.6996
 3043TIP3   OH233323   7.021   2.150   9.470 -0.0088 -0.3055 -0.0196
 3043TIP3    H133324   6.927   2.159   9.483 -0.0666  0.8409 -1.0343
 3043TIP3    H233325   7.032   2.139   9.375  0.9081  0.1877  0.0137
 3044TIP3   OH233326   6.155   5.350   7.429  0.0889 -0.1033  0.2632
 3044TIP3    H133327   6.073   5.304   7.446  0.5633 -1.3613 -0.6687
 3044TIP3    H233328   6.222   5.295   7.469  0.5294  0.6694  0.6048
 3045TIP3   OH233329   1.624   0.593   7.637  0.6386 -0.2862  0.0277
 3045TIP3    H133330   1.531   0.569   7.640  0.7097 -0.8131 -1.2573
 3045TIP3    H233331   1.667   0.531   7.695  0.6250 -2.4410 -2.0978
 3046TIP3   OH233332   6.711   4.142   9.257  0.4844 -0.2619 -0.3976
 3046TIP3    H133333   6.617   4.143   9.239  0.2501  2.6311  0.5293
 3046TIP3    H233334   6.727   4.055   9.295 -2.4293  0.1329  2.1383
 3047TIP3   OH233335   1.016   5.179   8.025  0.2260  0.4515  0.0808
 3047TIP3    H133336   0.973   5.215   8.102 -0.0722  0.2461  0.0089
 3047TIP3    H233337   1.107   5.208   8.033  0.4184 -0.3556  1.0002
 3048TIP3   OH233338   6.062   7.468   8.776  0.5679 -0.0002  0.4546
 3048TIP3    H133339   6.005   7.401   8.816 -1.7184  0.7399 -1.3365
 3048TIP3    H233340   6.062   7.540   8.840  1.2800 -0.8218  1.4188
 3049TIP3   OH233341   0.680   6.005   6.612  0.3618  0.1167  0.0977
 3049TIP3    H133342   0.700   5.944   6.683 -0.6786 -0.4151 -0.0537
 3049TIP3    H233343   0.744   5.984   6.544  1.5239  0.7889  0.9436
 3050TIP3   OH233344   2.996   5.687   9.073 -0.2994  0.0094 -0.0744
 3050TIP3    H133345   2.918   5.739   9.054 -0.3122  0.0185  0.0065
 3050TIP3    H233346   3.066   5.733   9.026 -0.3375  0.0134 -0.1284
 3051TIP3   OH233347   0.550   1.480   6.938  0.0843 -0.5634  0.0707
 3051TIP3    H133348   0.543   1.543   6.867 -0.5618 -0.5109  0.1682
 3051TIP3    H233349   0.640   1.487   6.969  0.0997  0.0921 -0.1191
 3052TIP3   OH233350   3.427   6.206   7.549  0.8569  0.0460 -0.5262
 3052TIP3    H133351   3.384   6.172   7.471  0.0752  1.4313 -0.7400
 3052TIP3    H233352   3.420   6.135   7.614 -0.7497 -0.1922 -0.9194
 3053TIP3   OH233353   5.878   6.277   8.740 -0.3146 -0.6205 -0.2625
 3053TIP3    H133354   5.799   6.257   8.690 -0.5472 -2.2619  0.6742
 3053TIP3    H233355   5.863   6.238   8.827  0.9399  0.2703  0.3953
 3054TIP3   OH233356   7.121   7.414   8.694 -0.3875 -0.1756 -0.8110
 3054TIP3    H133357   7.183   7.425   8.765  0.5932 -0.3146 -1.6296
 3054TIP3    H233358   7.035   7.411   8.737  0.2743 -1.6196  0.4745
 3055TIP3   OH233359   1.060   4.597   7.963 -0.3451 -0.2919 -0.2308
 3055TIP3    H133360   1.103   4.632   8.041  1.2208 -1.0491 -0.7002
 3055TIP3    H233361   1.011   4.521   7.994 -1.8535  0.8889  0.4012
 3056TIP3   OH233362   0.083   1.840   8.810  0.1628  0.1688  0.0632
 3056TIP3    H133363   0.100   1.891   8.889 -0.8586  0.6241 -0.0003
 3056TIP3    H233364  -0.009   1.813   8.817 -0.0068  0.3928 -1.0638
 3057TIP3   OH233365   3.413   3.738   7.865  0.1378 -0.2987  0.5382
 3057TIP3    H133366   3.434   3.813   7.921  2.2388  0.5813 -1.2428
 3057TIP3    H233367   3.478   3.672   7.887  1.5466  0.3833 -1.3426
 3058TIP3   OH233368   0.517   4.463   8.339 -0.3908  0.9849 -0.3155
 3058TIP3    H133369   0.546   4.375   8.314  2.4581  1.5703  0.5199
 3058TIP3    H233370   0.517   4.511   8.256 -0.4003  0.5827 -0.5552
 3059TIP3   OH233371   6.857   2.564   8.719  0.2833  0.0290 -0.0828
 3059TIP3    H133372   6.898   2.478   8.710  2.1458  0.9539 -0.9305
 3059TIP3    H233373   6.874   2.590   8.810 -0.8549 -0.7393  0.3723
 3060TIP3   OH233374   2.301   2.253   6.971 -0.4778 -0.1229 -0.6396
 3060TIP3    H133375   2.214   2.292   6.982  0.0171  0.5975  1.0039
 3060TIP3    H233376   2.358   2.327   6.950 -0.2453 -0.5945 -1.7202
 3061TIP3   OH233377   1.125   2.884   9.239 -0.1330 -1.2772 -0.0199
 3061TIP3    H133378   1.072   2.888   9.318 -1.4534 -2.1535 -0.8279
 3061TIP3    H233379   1.155   2.793   9.235 -1.3442 -1.6570 -1.2871
 3062TIP3   OH233380   6.214   7.047   7.333 -0.1454 -0.0722  0.3578
 3062TIP3    H133381   6.235   7.140   7.327 -0.3197  0.3446  4.0679
 3062TIP3    H233382   6.293   7.007   7.370 -1.1887 -0.7611  1.9652
 3063TIP3   OH233383   7.171   7.194   9.205 -0.7062 -0.2306  0.5943
 3063TIP3    H133384   7.159   7.238   9.121 -0.0787 -2.8123 -0.9605
 3063TIP3    H233385   7.098   7.225   9.259 -1.8979  0.5079 -1.3312
 3064TIP3   OH233386   5.433   2.873   9.429 -0.3281 -0.3887  0.1464
 3064TIP3    H133387   5.337   2.871   9.423 -0.3315 -0.6962  0.2578
 3064TIP3    H233388   5.459   2.782   9.414  0.0407 -0.0508 -1.3049
 3065TIP3   OH233389   4.753   1.998   8.815 -0.0704  0.8778  0.0078
 3065TIP3    H133390   4.758   2.019   8.721  0.4362 -0.7034 -0.3448
 3065TIP3    H233391   4.804   2.067   8.857 -2.2941  3.0188 -0.5997
 3066TIP3   OH233392   6.103   1.417   7.573  0.4378 -0.3179  0.6564
 3066TIP3    H133393   6.095   1.444   7.664  1.0837 -1.0795  0.9466
 3066TIP3    H233394   6.015   1.428   7.537  0.3225  0.6062  1.1888
 3067TIP3   OH233395   0.735   0.453   7.535 -0.3322 -0.1689 -0.4204
 3067TIP3    H133396   0.671   0.403   7.586  0.3848 -1.7082 -0.9620
 3067TIP3    H233397   0.770   0.390   7.472 -0.3929  1.3744 -2.1006
 3068TIP3   OH233398   1.312   0.819   7.555 -0.5045 -1.0255  0.4418
 3068TIP3    H133399   1.326   0.912   7.573 -0.5039 -0.9179 -0.0975
 3068TIP3    H233400   1.383   0.795   7.496  2.0655 -2.4150  3.7302
 3069TIP3   OH233401   1.021   6.280   7.623 -0.0666  0.2010 -0.4573
 3069TIP3    H133402   0.975   6.238   7.551  0.1315  0.6186 -0.8367
 3069TIP3    H233403   1.096   6.223   7.640  0.4140  0.5797 -1.2247
 3070TIP3   OH233404   6.286   5.627   7.998 -0.7047 -0.4422  0.7014
 3070TIP3    H133405   6.331   5.543   8.012 -1.8652 -1.0406  1.0217
 3070TIP3    H233406   6.198   5.612   8.033 -1.4317  0.4099 -0.7008
 3071TIP3   OH233407   1.727   7.605   8.581  0.0557  0.4188 -0.0193
 3071TIP3    H133408   1.680   7.631   8.660  0.7762  1.3370  0.1326
 3071TIP3    H233409   1.677   7.642   8.509 -0.4326 -0.1521  0.0239
 3072TIP3   OH233410   5.211   1.531   8.089  0.2054  0.9042 -0.2783
 3072TIP3    H133411   5.280   1.585   8.129  2.4851 -1.9606 -0.0089
 3072TIP3    H233412   5.149   1.515   8.160  3.0201 -2.2344  1.7509
 3073TIP3   OH233413   3.727   3.578   9.149  0.1343 -0.1913 -0.0002
 3073TIP3    H133414   3.770   3.497   9.175  1.0634  0.1927 -0.2923
 3073TIP3    H233415   3.750   3.589   9.057  0.8254  0.8940  0.2884
 3074TIP3   OH233416   1.132   7.266   8.819  0.0651 -0.1202  0.3819
 3074TIP3    H133417   1.219   7.289   8.786  0.9203  0.1091  2.6115
 3074TIP3    H233418   1.122   7.174   8.798  0.2770  0.1496 -1.0238
 3075TIP3   OH233419   6.088   0.015   8.479  0.0655 -0.0488  0.7051
 3075TIP3    H133420   6.056   0.096   8.440  1.9562  0.5149  0.2339
 3075TIP3    H233421   6.028  -0.052   8.447 -1.3578  1.0992  0.8623
 3076TIP3   OH233422   6.915   0.972   8.927  0.5108  0.5056  0.1779
 3076TIP3    H133423   7.000   0.928   8.926  0.6182  0.4665 -3.2471
 3076TIP3    H233424   6.853   0.904   8.954  1.3201 -0.0606  0.6642
 3077TIP3   OH233425   2.247   5.775   8.277  0.3666  0.0690  0.5074
 3077TIP3    H133426   2.266   5.783   8.371  0.1721 -1.3390  0.6964
 3077TIP3    H233427   2.295   5.697   8.250  0.4226  0.4677 -0.5791
 3078TIP3   OH233428   4.643   1.645   8.752  0.1379  0.7672  0.2281
 3078TIP3    H133429   4.560   1.692   8.746  0.4491  1.3621  0.4037
 3078TIP3    H233430   4.634   1.588   8.828 -0.6650 -0.3314 -0.6696
 3079TIP3   OH233431   2.553   6.911   6.798 -0.4393  0.5989 -0.0909
 3079TIP3    H133432   2.626   6.859   6.765 -1.3527 -0.5840 -0.3143
 3079TIP3    H233433   2.571   7.000   6.767  1.8539  0.7507  1.4258
 3080TIP3   OH233434   5.847   0.672   8.155  0.0023  0.1727 -0.1887
 3080TIP3    H133435   5.843   0.583   8.120 -1.3624  0.1014  0.1152
 3080TIP3    H233436   5.758   0.691   8.184  0.0960  1.9308 -0.9388
 3081TIP3   OH233437   0.337   0.366   8.082 -0.1170 -0.4464 -0.0267
 3081TIP3    H133438   0.300   0.401   8.162  2.5683  2.6335  0.1031
 3081TIP3    H233439   0.413   0.315   8.110 -0.7264 -1.6602 -0.5192
 3082TIP3   OH233440   5.465   0.567   7.854 -0.4172 -0.8958  0.1675
 3082TIP3    H133441   5.378   0.540   7.825 -0.1485 -0.3359 -1.2290
 3082TIP3    H233442   5.521   0.555   7.777  0.2266  1.0956  0.2752
 3083TIP3   OH233443   0.633   2.576   9.243  0.3957  1.0592 -0.2136
 3083TIP3    H133444   0.542   2.595   9.221  0.3694 -0.2915 -1.4518
 3083TIP3    H233445   0.641   2.598   9.336 -1.5419  0.0468  0.2395
 3084TIP3   OH233446   2.926   0.835   6.962  0.2566 -0.4885 -0.3067
 3084TIP3    H133447   2.969   0.880   7.035  0.2290 -1.0720  0.0743
 3084TIP3    H233448   2.942   0.742   6.978 -1.9171 -0.7932  0.3467
 3085TIP3   OH233449   4.004   7.397   7.549  0.3941  0.6176  0.0103
 3085TIP3    H133450   4.012   7.446   7.467 -2.6032 -0.7013 -1.1868
 3085TIP3    H233451   3.940   7.447   7.600 -0.5213 -0.5049 -0.0199
 3086TIP3   OH233452   2.460   7.291   8.392  0.0505 -0.2348  0.2749
 3086TIP3    H133453   2.513   7.370   8.402  1.6078 -1.2259  0.2162
 3086TIP3    H233454   2.395   7.314   8.326  0.6876  0.8905  0.0144
 3087TIP3   OH233455   4.169   0.533   8.035 -0.2193 -0.2859  0.2213
 3087TIP3    H133456   4.189   0.441   8.047 -1.2556 -0.5066  0.3034
 3087TIP3    H233457   4.115   0.557   8.110 -0.3790  0.2491 -0.0554
 3088TIP3   OH233458   0.755   2.434   9.862  0.8882  0.7043 -0.0131
 3088TIP3    H133459   0.758   2.498   9.933  1.1638  0.3625  0.2889
 3088TIP3    H233460   0.684   2.464   9.805 -0.1145  0.3522  1.0137
 3089TIP3   OH233461   4.947   5.435   9.134 -0.2785 -0.5638  0.3972
 3089TIP3    H133462   4.878   5.471   9.190 -0.8543 -2.0441  0.6825
 3089TIP3    H233463   4.903   5.414   9.052  0.3999  0.8580 -0.3816
 3090TIP3   OH233464   6.698   1.659   7.485  0.7023 -0.4951 -0.4117
 3090TIP3    H133465   6.665   1.634   7.399 -1.3607 -0.3020  0.2628
 3090TIP3    H233466   6.721   1.576   7.527 -0.0185 -0.7597 -0.5159
 3091TIP3   OH233467   4.118   4.100   8.244 -0.3790  0.3402  0.4395
 3091TIP3    H133468   4.067   4.174   8.211 -1.9495 -0.7721  0.2973
 3091TIP3    H233469   4.054   4.031   8.259  0.6850 -0.2043  2.9567
 3092TIP3   OH233470   7.324   5.203   8.862  0.1448  0.4709 -0.8514
 3092TIP3    H133471   7.346   5.140   8.793 -1.4993  1.3802 -2.2704
 3092TIP3    H233472   7.309   5.148   8.939  2.5517 -0.5322 -0.9826
 3093TIP3   OH233473   0.888   6.599   8.514 -0.2109  0.3813 -0.3020
 3093TIP3    H133474   0.925   6.666   8.456  0.6177 -0.8251 -1.2215
 3093TIP3    H233475   0.837   6.543   8.456  2.6812 -2.3551 -0.4723
 3094TIP3   OH233476   5.063   6.773   9.411 -0.1584  0.2543  0.7160
 3094TIP3    H133477   5.081   6.682   9.431 -2.3454 -0.0780  1.5147
 3094TIP3    H233478   5.130   6.798   9.347  0.9952 -1.6331  1.1183
 3095TIP3   OH233479   2.348   4.392   8.967 -0.0013  0.3623  0.1252
 3095TIP3    H133480   2.392   4.448   9.031  0.5753  0.5363 -0.4099
 3095TIP3    H233481   2.282   4.345   9.017  0.9963 -0.1324  1.0150
 3096TIP3   OH233482   1.447   0.062   7.983 -0.3199 -0.5390 -0.1967
 3096TIP3    H133483   1.371   0.098   8.030 -2.1956 -2.0674 -1.9014
 3096TIP3    H233484   1.461  -0.024   8.023 -0.1932 -0.7229 -0.6341
 3097TIP3   OH233485   1.136   5.453   6.981 -0.6293 -0.3823 -0.7557
 3097TIP3    H133486   1.086   5.507   7.041 -0.4490 -1.4080  0.3627
 3097TIP3    H233487   1.131   5.365   7.018 -0.3747 -1.0204 -2.1681
 3098TIP3   OH233488   2.554   4.063   8.222  0.5290 -0.3200  0.6321
 3098TIP3    H133489   2.556   4.158   8.207  0.8040 -0.4027  0.1200
 3098TIP3    H233490   2.619   4.049   8.290 -0.8188  0.0755  2.0535
 3099TIP3   OH233491   3.013   2.431   7.526 -0.0775  0.0188 -0.3050
 3099TIP3    H133492   2.962   2.375   7.467 -1.4048  1.5425 -0.6519
 3099TIP3    H233493   2.971   2.421   7.611  0.9742 -1.0813  0.1217
 3100TIP3   OH233494   6.414   1.464   8.489  0.0200 -0.5168  0.6723
 3100TIP3    H133495   6.432   1.399   8.421 -0.6412 -0.2649  0.2512
 3100TIP3    H233496   6.364   1.532   8.444  1.1162  0.5284  0.9859
 3101TIP3   OH233497   5.807   7.322   9.556  0.1405  0.9552  0.0249
 3101TIP3    H133498   5.792   7.379   9.631  0.7160  1.3525 -0.1469
 3101TIP3    H233499   5.724   7.276   9.543  0.5283 -0.4674  2.0067
 3102TIP3   OH233500   5.579   4.270   9.000 -0.4926 -0.1748  0.2001
 3102TIP3    H133501   5.582   4.185   9.043 -0.2701  0.2884  1.1423
 3102TIP3    H233502   5.664   4.310   9.019 -0.6530  0.3226 -0.0902
 3103TIP3   OH233503   7.382   2.185   6.727  0.5940  0.3858 -0.5236
 3103TIP3    H133504   7.449   2.120   6.705  1.2405  0.4116  1.2273
 3103TIP3    H233505   7.335   2.146   6.802  1.0991  1.9671  0.6611
 3104TIP3   OH233506   6.536   1.164   8.693 -0.3557  0.5185  0.3961
 3104TIP3    H133507   6.590   1.215   8.633  0.6650 -0.3110  0.5909
 3104TIP3    H233508   6.486   1.106   8.635  1.9400 -1.5620  0.3502
 3105TIP3   OH233509   4.908   2.040   8.324 -0.1611  0.0357  0.0576
 3105TIP3    H133510   4.971   2.109   8.342  0.5425 -0.1490 -1.5298
 3105TIP3    H233511   4.961   1.967   8.293 -1.0268 -0.7034  0.2787
 3106TIP3   OH233512   3.830   6.004   8.155  0.0301  0.2542 -0.0704
 3106TIP3    H133513   3.923   6.005   8.132  0.0528 -2.1250 -0.3450
 3106TIP3    H233514   3.784   6.003   8.070 -0.2268  0.4425  0.0626
 3107TIP3   OH233515   7.022   5.257   7.979  0.4480 -0.5360  0.0590
 3107TIP3    H133516   6.933   5.293   7.983  0.5868 -0.2295  0.4990
 3107TIP3    H233517   7.032   5.228   7.889  0.3117  0.4803 -0.2996
 3108TIP3   OH233518   0.238   3.456   9.422  0.0002  0.2450 -0.1752
 3108TIP3    H133519   0.219   3.550   9.432 -1.1418 -0.0686  0.9336
 3108TIP3    H233520   0.161   3.422   9.375  0.8092 -0.0152 -1.3603
 3109TIP3   OH233521   6.820   6.333   7.033 -0.4437 -0.1515  0.4290
 3109TIP3    H133522   6.735   6.296   7.009 -0.8342  0.2302  1.1998
 3109TIP3    H233523   6.841   6.293   7.117  0.0342 -0.0792  0.3433
 3110TIP3   OH233524   3.395   0.154   9.327  0.6009  0.4428 -0.1870
 3110TIP3    H133525   3.388   0.086   9.260  1.1881 -0.3660  0.5518
 3110TIP3    H233526   3.336   0.125   9.397 -1.2480  2.0890 -0.9863
 3111TIP3   OH233527   4.614   5.206   8.117  0.1113  0.2413  1.0798
 3111TIP3    H133528   4.579   5.153   8.045  1.1013 -0.1134  0.8473
 3111TIP3    H233529   4.571   5.291   8.107  0.4672  0.2960 -0.1259
 3112TIP3   OH233530   0.921   4.232   7.061 -0.3223 -0.0534  0.0073
 3112TIP3    H133531   0.847   4.262   7.009  0.0629  0.1554 -0.4268
 3112TIP3    H233532   0.998   4.265   7.015 -0.0235  2.4004  2.0773
 3113TIP3   OH233533   5.047   1.765   8.299 -0.0211 -0.1557 -0.2882
 3113TIP3    H133534   5.136   1.730   8.302 -0.2806 -0.8614 -0.4566
 3113TIP3    H233535   5.000   1.716   8.368 -1.0585 -2.1343 -2.2510
 3114TIP3   OH233536   0.238   6.077   7.859  0.4338  0.3690 -0.5909
 3114TIP3    H133537   0.155   6.104   7.819  0.2844 -1.0768 -1.3319
 3114TIP3    H233538   0.305   6.126   7.812 -0.0026  2.0259  0.4365
 3115TIP3   OH233539   4.508   5.228   9.123 -0.5098  0.0095 -0.1736
 3115TIP3    H133540   4.469   5.225   9.035  1.0064 -0.2386 -0.8729
 3115TIP3    H233541   4.473   5.150   9.167 -1.3964  0.2137 -0.4982
 3116TIP3   OH233542   0.140   3.913   7.662 -0.0077  0.3465 -0.2244
 3116TIP3    H133543   0.064   3.896   7.607 -0.1584  2.0082 -0.5778
 3116TIP3    H233544   0.109   3.896   7.751 -0.2477 -0.7369 -0.5047
 3117TIP3   OH233545   0.334   7.149   7.257  0.0668 -0.3670  0.1883
 3117TIP3    H133546   0.327   7.243   7.241  2.1139 -0.3345 -0.8308
 3117TIP3    H233547   0.354   7.112   7.171 -1.1941 -1.8135  0.4780
 3118TIP3   OH233548   6.819   0.213   9.183 -0.2957 -0.6520 -0.1326
 3118TIP3    H133549   6.847   0.124   9.162 -0.2689 -1.1295  1.7426
 3118TIP3    H233550   6.735   0.202   9.228  0.0446  0.2017  0.7552
 3119TIP3   OH233551   5.537   0.498   9.257  0.1316 -0.1535 -0.5025
 3119TIP3    H133552   5.568   0.581   9.221  1.2153 -0.5682 -0.5590
 3119TIP3    H233553   5.554   0.504   9.351  0.0555 -0.2413 -0.4829
 3120TIP3   OH233554   3.218   1.943   7.488 -0.2839  0.4362 -0.2198
 3120TIP3    H133555   3.286   1.985   7.436 -0.7462 -0.3034 -1.4579
 3120TIP3    H233556   3.180   2.014   7.540 -0.0923  1.2736 -1.2023
 3121TIP3   OH233557   6.085   2.143   7.854  0.0299 -0.3562  0.0556
 3121TIP3    H133558   5.998   2.104   7.863  0.3907 -0.8762  1.6832
 3121TIP3    H233559   6.073   2.212   7.789 -2.0018  0.6539  1.3726
 3122TIP3   OH233560   1.846   6.105   7.967  0.2568 -0.5274  0.1733
 3122TIP3    H133561   1.844   6.200   7.978 -0.4998 -0.6555  1.4414
 3122TIP3    H233562   1.938   6.084   7.949  0.8198  0.2848  1.8773
 3123TIP3   OH233563   3.897   6.541   8.377  0.0390  0.1661  0.2676
 3123TIP3    H133564   3.851   6.595   8.312 -0.3904  0.5683  0.8933
 3123TIP3    H233565   3.915   6.601   8.449  0.6359 -0.2449  0.4687
 3124TIP3   OH233566   1.568   4.601   7.744 -0.8278  0.1696 -0.2085
 3124TIP3    H133567   1.525   4.635   7.665 -0.5203  1.6191  0.2158
 3124TIP3    H233568   1.642   4.660   7.759 -0.5993 -0.3628  0.8917
 3125TIP3   OH233569   2.935   2.593   9.489  0.6153  0.0744  0.2483
 3125TIP3    H133570   2.873   2.537   9.535 -1.0001  1.6617  0.1224
 3125TIP3    H233571   3.001   2.533   9.455 -1.4750 -1.8544 -0.6509
 3126TIP3   OH233572   5.194   2.583   7.660  0.2926 -0.4314  0.1457
 3126TIP3    H133573   5.148   2.501   7.642 -0.0347 -0.0222 -0.9443
 3126TIP3    H233574   5.276   2.575   7.613  0.1621 -0.0397 -0.1471
 3127TIP3   OH233575   2.928   0.474   7.964  0.1490 -0.4643 -0.5959
 3127TIP3    H133576   2.887   0.391   7.989  1.5349 -0.5317  1.7293
 3127TIP3    H233577   2.856   0.537   7.961 -0.5483 -1.2009  0.3299
 3128TIP3   OH233578   0.746   4.132   7.384 -0.6422  0.0077  0.2926
 3128TIP3    H133579   0.687   4.072   7.430  0.4326 -1.4586 -0.1460
 3128TIP3    H233580   0.784   4.078   7.314  1.2314  0.8925  0.5794
 3129TIP3   OH233581   5.412   4.079   8.815 -0.2842  0.5222  0.0365
 3129TIP3    H133582   5.501   4.067   8.782  0.2293  1.7110  0.8974
 3129TIP3    H233583   5.406   4.022   8.891 -0.7122 -0.5173 -0.7482
 3130TIP3   OH233584   6.311   1.461   9.093 -0.2354 -0.8737 -0.1384
 3130TIP3    H133585   6.351   1.547   9.103  0.4014 -1.2996  1.1174
 3130TIP3    H233586   6.382   1.399   9.112 -1.4500 -1.6509  2.2164
 3131TIP3   OH233587   3.351   5.142   7.439 -0.1154 -0.8084  0.2919
 3131TIP3    H133588   3.277   5.081   7.439  0.1430 -1.1298  0.2170
 3131TIP3    H233589   3.323   5.214   7.495  0.1891 -1.7639  1.7184
 3132TIP3   OH233590   1.210   1.965   8.219  0.1536 -0.4021  0.0696
 3132TIP3    H133591   1.257   2.011   8.150 -0.4668  1.7637  0.9976
 3132TIP3    H233592   1.120   1.957   8.187 -0.1695  0.7357  0.6290
 3133TIP3   OH233593   5.921   3.383   8.285  0.2040  0.1839  0.3224
 3133TIP3    H133594   5.831   3.355   8.267  0.3647 -1.4200  1.7815
 3133TIP3    H233595   5.912   3.475   8.310 -1.4224 -0.5390  2.7935
 3134TIP3   OH233596   7.268   4.973   6.730 -0.0371 -0.3142  0.2066
 3134TIP3    H133597   7.240   5.038   6.796 -1.9875 -3.0678  2.3339
 3134TIP3    H233598   7.203   4.982   6.660 -0.4297 -0.1163  0.5867
 3135TIP3   OH233599   3.871   2.108   8.936 -0.5293 -0.3559 -0.1829
 3135TIP3    H133600   3.919   2.188   8.955  1.2514 -1.2229 -0.7612
 3135TIP3    H233601   3.930   2.038   8.965 -1.1429 -1.4889 -1.5615
 3136TIP3   OH233602   3.581   3.000   7.187 -0.7296  0.2586 -0.2907
 3136TIP3    H133603   3.614   2.913   7.209 -2.0223  0.2036  1.6236
 3136TIP3    H233604   3.516   2.984   7.118 -2.0959 -0.5296  1.1230
 3137TIP3   OH233605   6.318   6.171   8.680  0.1643  0.1366  0.3807
 3137TIP3    H133606   6.288   6.093   8.635 -3.7172  1.0305  1.0347
 3137TIP3    H233607   6.396   6.198   8.633 -0.8471 -1.7301 -2.6253
 3138TIP3   OH233608   7.037   2.517   7.951  0.0841 -0.2588 -0.0576
 3138TIP3    H133609   6.975   2.489   8.018 -2.2852 -0.0041 -2.0165
 3138TIP3    H233610   7.054   2.609   7.970  0.7817 -0.6085  1.1224
 3139TIP3   OH233611   3.673   5.356   8.015 -0.9841  0.7100  0.7957
 3139TIP3    H133612   3.755   5.403   8.030  0.1333 -0.0672 -2.1651
 3139TIP3    H233613   3.666   5.296   8.089  0.8825  1.1463  1.3741
 3140TIP3   OH233614   3.027   6.044   9.385 -0.2345  0.2369  0.1961
 3140TIP3    H133615   3.048   5.956   9.418  0.3914  0.0930 -0.5555
 3140TIP3    H233616   3.063   6.045   9.296  0.8809  1.6620  0.6247
 3141TIP3   OH233617   2.229   4.399   7.876 -0.2330  0.2472  0.4278
 3141TIP3    H133618   2.267   4.487   7.865  2.1079 -0.8599 -1.1954
 3141TIP3    H233619   2.202   4.374   7.788  0.1006 -1.0499  0.6769
 3142TIP3   OH233620   0.677   0.177   8.892  0.3380 -0.2481  0.1406
 3142TIP3    H133621   0.685   0.266   8.860 -0.0837  0.4712  1.9056
 3142TIP3    H233622   0.607   0.181   8.957  0.7511 -1.7233  0.7277
 3143TIP3   OH233623   1.250   3.795   9.437  0.3104  0.0083  0.1388
 3143TIP3    H133624   1.219   3.770   9.524 -0.8681  1.1111  0.0692
 3143TIP3    H233625   1.341   3.766   9.435 -0.2217 -1.8849  0.9732
 3144TIP3   OH233626   2.649   5.942   7.853  0.2380  0.0992  0.1231
 3144TIP3    H133627   2.600   5.869   7.816  0.4308 -0.6934  1.3771
 3144TIP3    H233628   2.583   6.011   7.864  0.4128  0.8550 -2.8044
 3145TIP3   OH233629   6.130   6.264   8.849 -0.1099  0.1725 -0.3826
 3145TIP3    H133630   6.194   6.228   8.787  0.8229  2.8483 -1.1033
 3145TIP3    H233631   6.047   6.258   8.802  0.2931  0.4811 -1.1616
 3146TIP3   OH233632   4.009   1.953   7.987  0.3877 -0.0112  0.1112
 3146TIP3    H133633   4.059   1.880   7.953 -0.0869  0.5569 -1.9182
 3146TIP3    H233634   4.071   2.026   7.989  0.1153  0.2540 -0.7278
 3147TIP3   OH233635   5.853   5.339   8.096 -0.3004  0.8156 -0.4557
 3147TIP3    H133636   5.781   5.329   8.033 -1.0704 -2.3977  0.7201
 3147TIP3    H233637   5.912   5.266   8.077  1.3851  1.9377  0.2311
 3148TIP3   OH233638   2.457   1.614   8.921 -0.2562 -0.9097 -0.5208
 3148TIP3    H133639   2.485   1.625   9.013 -0.7975  0.1073 -0.4655
 3148TIP3    H233640   2.434   1.522   8.914 -0.2257 -0.9944  0.3794
 3149TIP3   OH233641   4.758   5.706   7.920 -0.0542 -0.1483  0.2767
 3149TIP3    H133642   4.792   5.623   7.886 -1.6290 -1.1234  0.9786
 3149TIP3    H233643   4.834   5.746   7.963  0.2516 -2.3455  2.0199
 3150TIP3   OH233644   2.777   3.540   7.982  0.2837 -0.0038  0.5674
 3150TIP3    H133645   2.836   3.614   7.969  1.0547 -0.8204 -0.8744
 3150TIP3    H233646   2.697   3.564   7.936  0.0395  0.4670  1.2232
 3151TIP3   OH233647   7.215   3.437   8.709 -0.0390  0.4732  0.4180
 3151TIP3    H133648   7.308   3.441   8.732 -0.0179  0.5713  0.3178
 3151TIP3    H233649   7.171   3.412   8.790  0.3290 -2.1343 -0.1082
 3152TIP3   OH233650   2.688   2.348   8.285 -0.3871 -0.5776  0.1874
 3152TIP3    H133651   2.652   2.338   8.373 -0.9591 -0.1945  0.0024
 3152TIP3    H233652   2.642   2.283   8.233  0.1873 -1.0261  0.2399
 3153TIP3   OH233653   5.944   0.359   9.228 -0.1098 -0.0282  0.2863
 3153TIP3    H133654   5.910   0.449   9.237  0.1469  0.5333 -3.2157
 3153TIP3    H233655   5.866   0.304   9.231 -0.7340  0.7084 -1.4209
 3154TIP3   OH233656   1.123   0.892   9.486  0.3479  0.5555 -0.1076
 3154TIP3    H133657   1.145   0.917   9.575 -1.4641 -0.5529  0.7121
 3154TIP3    H233658   1.173   0.812   9.469  0.4901  0.6179  0.0208
 3155TIP3   OH233659   7.552   6.332   7.121  0.0080  0.4711 -0.3594
 3155TIP3    H133660   7.593   6.335   7.034 -0.2405 -2.8835 -0.7362
 3155TIP3    H233661   7.615   6.375   7.178  0.9305  1.3267 -1.9361
 3156TIP3   OH233662   3.258   4.580   7.316  0.5779 -0.8476 -0.9270
 3156TIP3    H133663   3.195   4.554   7.384  0.5613 -1.0062 -1.0045
 3156TIP3    H233664   3.341   4.543   7.345  0.6168 -0.7257 -0.8793
 3157TIP3   OH233665   1.251   4.696   8.173 -0.0415  0.1137  0.3417
 3157TIP3    H133666   1.326   4.662   8.222 -0.4632 -1.4091 -0.0183
 3157TIP3    H233667   1.264   4.791   8.174  0.7930  0.0379  2.0357
 3158TIP3   OH233668   4.550   2.647   8.762  0.6455  0.0547  0.1475
 3158TIP3    H133669   4.542   2.552   8.755 -0.9541  0.1496  0.3948
 3158TIP3    H233670   4.575   2.675   8.673  1.7061 -0.6219  0.2125
 3159TIP3   OH233671   7.612   4.767   8.811  0.3846  0.2566 -0.4810
 3159TIP3    H133672   7.702   4.776   8.780  0.5829  1.5078  0.3585
 3159TIP3    H233673   7.580   4.857   8.817 -0.5414 -0.1058  0.2851
 3160TIP3   OH233674   4.404   6.157   8.491 -0.3903  0.5379  0.2245
 3160TIP3    H133675   4.452   6.223   8.440  0.4479 -1.2290 -1.4153
 3160TIP3    H233676   4.347   6.208   8.549 -2.1000  2.7601 -3.0800
 3161TIP3   OH233677   7.465   4.622   6.763  0.3023 -0.2156  0.4329
 3161TIP3    H133678   7.532   4.626   6.831  1.4712  2.3534 -0.7352
 3161TIP3    H233679   7.503   4.564   6.696 -0.0498 -1.2640  1.1156
 3162TIP3   OH233680   2.360   6.393   9.160 -0.4820 -0.0357  0.2221
 3162TIP3    H133681   2.440   6.345   9.142 -0.3851  0.5698 -1.0879
 3162TIP3    H233682   2.371   6.477   9.115 -2.0762 -0.1674 -0.5033
 3163TIP3   OH233683   1.707   0.337   7.713  0.2115 -0.5989  0.2363
 3163TIP3    H133684   1.775   0.283   7.673  0.8200  0.7499 -0.6266
 3163TIP3    H233685   1.625   0.293   7.691  0.4903  0.2067 -2.8349
 3164TIP3   OH233686   6.479   6.078   8.044 -0.4958  0.0472  0.1186
 3164TIP3    H133687   6.532   6.058   7.968 -0.5386 -1.8364  0.5360
 3164TIP3    H233688   6.541   6.085   8.116 -0.5872  0.3698  0.1674
 3165TIP3   OH233689   0.807   2.160   8.181  0.3737 -0.6459 -0.1674
 3165TIP3    H133690   0.884   2.114   8.147  1.8486  0.2038  1.8113
 3165TIP3    H233691   0.762   2.095   8.235  2.0958 -0.1048  2.0908
 3166TIP3   OH233692   6.785   6.849   8.185 -0.4813  0.2337  0.0367
 3166TIP3    H133693   6.821   6.774   8.231 -1.1361 -0.5370 -0.6802
 3166TIP3    H233694   6.695   6.824   8.163 -0.2194  0.5819 -1.5834
 3167TIP3   OH233695   4.476   0.158   9.567  0.0500  0.5393 -0.2174
 3167TIP3    H133696   4.566   0.186   9.586  0.9224 -1.5431 -0.9642
 3167TIP3    H233697   4.445   0.219   9.499  1.2547  0.7063 -0.6396
 3168TIP3   OH233698   5.430   6.376   7.379 -0.2758 -0.4110  0.0833
 3168TIP3    H133699   5.379   6.302   7.345  0.6919 -0.4058 -1.5305
 3168TIP3    H233700   5.435   6.437   7.305 -1.7032  1.7001  1.5871
 3169TIP3   OH233701   4.217   0.521   8.594 -0.7586  0.7567  0.1383
 3169TIP3    H133702   4.267   0.548   8.671  0.4703 -0.2442 -0.2724
 3169TIP3    H233703   4.270   0.452   8.554 -1.5202  1.0443 -1.4416
 3170TIP3   OH233704   5.973   5.920   7.273 -0.0546  0.2109 -0.2416
 3170TIP3    H133705   5.950   5.999   7.324  0.2370 -0.5070  1.0425
 3170TIP3    H233706   6.046   5.948   7.218  0.8954  0.5372  1.1171
 3171TIP3   OH233707   3.463   4.357   8.394 -0.9326  0.2835 -0.1156
 3171TIP3    H133708   3.428   4.380   8.481 -0.2085  2.2381 -0.2800
 3171TIP3    H233709   3.392   4.308   8.352 -1.0803 -1.2094  1.7577
 3172TIP3   OH233710   5.477   0.848   8.451  0.4580  0.5542  0.1039
 3172TIP3    H133711   5.408   0.863   8.515  0.8404 -0.6883  0.8315
 3172TIP3    H233712   5.446   0.774   8.398  0.1028  1.6141 -1.2284
 3173TIP3   OH233713   2.453   3.270   6.776 -0.1212  0.5712 -0.5241
 3173TIP3    H133714   2.529   3.211   6.782 -0.7875 -0.3051 -0.4085
 3173TIP3    H233715   2.487   3.348   6.732  1.1488  0.7304  0.6670
 3174TIP3   OH233716   0.158   3.021   7.450 -0.4362  0.4442 -0.1615
 3174TIP3    H133717   0.199   3.098   7.410 -2.2200  0.3555 -2.3552
 3174TIP3    H233718   0.225   2.987   7.509  1.7966  1.5640 -1.8721
 3175TIP3   OH233719   6.529   4.375   9.190 -0.3904 -0.5108  0.4702
 3175TIP3    H133720   6.506   4.368   9.097 -0.1120 -1.2647  0.4503
 3175TIP3    H233721   6.603   4.315   9.201 -0.3157 -0.3024  1.1454
 3176TIP3   OH233722   4.644   7.537   8.255  0.5655  0.4501 -0.1100
 3176TIP3    H133723   4.730   7.496   8.264  0.1594 -0.6167 -0.8518
 3176TIP3    H233724   4.582   7.468   8.277 -0.1205  0.9748 -0.3555
 3177TIP3   OH233725   1.451   3.711   6.916 -0.1882 -0.0906 -0.7191
 3177TIP3    H133726   1.359   3.684   6.912  0.0224 -0.6720 -3.3576
 3177TIP3    H233727   1.500   3.630   6.902  0.7094  0.3631 -0.2748
 3178TIP3   OH233728   0.154   6.047   9.268  0.0415 -0.0435  0.3501
 3178TIP3    H133729   0.124   6.137   9.254 -1.5055 -0.1184  2.7154
 3178TIP3    H233730   0.117   5.998   9.195 -1.6866  0.7267  0.6632
 3179TIP3   OH233731   6.359   7.666   7.951  0.1513 -0.2573 -0.2784
 3179TIP3    H133732   6.326   7.645   8.039  1.3545 -0.1500  0.2225
 3179TIP3    H233733   6.444   7.621   7.947  0.7048  0.8211 -0.8944
 3180TIP3   OH233734   2.249   1.542   8.623  0.3067  0.2731 -0.6065
 3180TIP3    H133735   2.158   1.565   8.603 -0.1374 -0.8903 -0.0189
 3180TIP3    H233736   2.299   1.579   8.550 -0.8772 -0.8015 -2.0327
 3181TIP3   OH233737   3.826   2.679   9.270 -0.2726  0.3319  0.4620
 3181TIP3    H133738   3.843   2.767   9.235 -0.9155  2.3037  4.5382
 3181TIP3    H233739   3.910   2.653   9.309 -0.3765 -0.4382  0.1889
 3182TIP3   OH233740   0.739   7.270   8.249 -0.4205 -0.0906  0.2077
 3182TIP3    H133741   0.677   7.205   8.218  0.3546 -0.0573 -1.4978
 3182TIP3    H233742   0.693   7.315   8.320 -1.8642 -0.8839 -0.1957
 3183TIP3   OH233743   0.565   0.464   8.619  0.5853 -0.1477  0.1846
 3183TIP3    H133744   0.503   0.460   8.692 -0.1802 -1.0206 -0.5026
 3183TIP3    H233745   0.647   0.431   8.656  0.4918  0.4168  0.9272
 3184TIP3   OH233746   6.103   0.079   7.601  0.6153 -0.0567  0.1207
 3184TIP3    H133747   6.065   0.165   7.582  1.2134 -0.0874 -1.3875
 3184TIP3    H233748   6.184   0.098   7.648  0.9215  0.2257 -0.5193
 3185TIP3   OH233749   0.557   6.314   9.086 -0.3117  0.1626  0.1300
 3185TIP3    H133750   0.551   6.220   9.073  0.1249  0.3262 -1.3494
 3185TIP3    H233751   0.523   6.353   9.005 -1.2664  1.2998  1.0312
 3186TIP3   OH233752   1.624   6.861   7.338 -0.5563  0.0113 -0.0532
 3186TIP3    H133753   1.557   6.929   7.337 -0.6621 -0.0862  0.3276
 3186TIP3    H233754   1.616   6.820   7.424  0.9081  0.9046  0.5532
 3187TIP3   OH233755   2.149   2.142   9.286 -0.2497  0.0650 -0.4558
 3187TIP3    H133756   2.099   2.223   9.286 -0.3051  0.0618  1.5018
 3187TIP3    H233757   2.130   2.102   9.200 -0.6538  1.8176 -1.2161
 3188TIP3   OH233758   1.398   1.027   9.741  0.1888 -0.6659  0.4014
 3188TIP3    H133759   1.467   1.076   9.785  0.3840 -2.2256  1.9283
 3188TIP3    H233760   1.442   0.980   9.670  0.2652  0.1165 -0.0825
 3189TIP3   OH233761   5.427   6.941   6.652  0.1846  0.4643 -0.4963
 3189TIP3    H133762   5.491   6.891   6.602  0.7959 -0.9274  1.5348
 3189TIP3    H233763   5.477   7.013   6.691  0.9114 -1.3075  2.0742
 3190TIP3   OH233764   6.629   5.549   8.149 -0.1907 -0.0429 -0.0114
 3190TIP3    H133765   6.583   5.466   8.158  0.0768 -0.1075  0.8539
 3190TIP3    H233766   6.592   5.605   8.217  1.4642 -0.3230  1.2057
 3191TIP3   OH233767   3.589   6.102   8.832  0.3917 -0.0874 -0.3437
 3191TIP3    H133768   3.517   6.160   8.856  1.8262  1.9222 -0.6169
 3191TIP3    H233769   3.579   6.090   8.737 -0.3573 -0.9568 -0.1624
 3192TIP3   OH233770   1.705   5.901   6.590  0.2415  1.0523 -0.0218
 3192TIP3    H133771   1.625   5.954   6.590 -0.6960 -0.3098  0.8616
 3192TIP3    H233772   1.757   5.935   6.663  0.6476  2.1591 -0.8017
 3193TIP3   OH233773   2.600   6.307   9.074 -0.3780  0.8212 -0.3019
 3193TIP3    H133774   2.683   6.348   9.051 -0.4030  1.4453  0.6536
 3193TIP3    H233775   2.624   6.219   9.103 -0.3007  0.1895 -2.1439
 3194TIP3   OH233776   0.319   3.361   9.016 -0.3821  0.4976 -0.4766
 3194TIP3    H133777   0.236   3.376   8.972 -0.1013  1.0907 -0.8093
 3194TIP3    H233778   0.359   3.447   9.023 -0.3516  0.4004  0.8028
 3195TIP3   OH233779   5.519   0.994   9.650 -0.0299  0.1664 -0.5231
 3195TIP3    H133780   5.480   1.052   9.585 -0.9080  1.0178  0.7174
 3195TIP3    H233781   5.498   0.906   9.619 -0.2315  0.5435 -1.5016
 3196TIP3   OH233782   0.818   4.799   9.624  0.1742  0.7652 -0.3259
 3196TIP3    H133783   0.895   4.831   9.577  0.5607 -1.4082 -1.3267
 3196TIP3    H233784   0.853   4.751   9.698 -0.3726  2.3133  0.9903
 3197TIP3   OH233785   0.172   5.331   8.499 -0.1725  0.9157  0.4998
 3197TIP3    H133786   0.148   5.398   8.435  1.5213 -0.7531 -2.0752
 3197TIP3    H233787   0.227   5.270   8.450  1.6003 -0.2836  3.6864
 3198TIP3   OH233788   6.797   5.267   8.709 -0.1541 -0.8359  0.7927
 3198TIP3    H133789   6.844   5.329   8.764 -0.3458  0.6265 -0.6327
 3198TIP3    H233790   6.857   5.249   8.636 -0.3945 -1.7662  0.8112
 3199TIP3   OH233791   1.928   3.259   8.900  0.2412  0.0345 -0.0470
 3199TIP3    H133792   1.891   3.175   8.926  1.6782 -0.5302  0.3018
 3199TIP3    H233793   1.861   3.300   8.847 -0.3731 -1.4731 -0.4741
 3200TIP3   OH233794   3.883   3.991   8.390 -0.2037  0.2794  0.3331
 3200TIP3    H133795   3.795   4.028   8.401  0.1837  0.8986  1.5616
 3200TIP3    H233796   3.869   3.913   8.336 -1.4110  0.7358 -0.0549
 3201TIP3   OH233797   4.231   7.550   8.083  0.0986 -0.3340  0.6432
 3201TIP3    H133798   4.182   7.556   8.001 -1.3778 -0.3561  1.4804
 3201TIP3    H233799   4.232   7.456   8.104  0.0390 -0.2828  0.8823
 3202TIP3   OH233800   4.290   5.204   8.075 -0.3863 -0.5139 -0.2688
 3202TIP3    H133801   4.196   5.186   8.080 -0.4248  0.0435  2.4396
 3202TIP3    H233802   4.296   5.290   8.033 -1.0693 -0.5842 -0.5262
 3203TIP3   OH233803   2.609   5.704   7.253  0.1668  0.5988 -0.2453
 3203TIP3    H133804   2.603   5.796   7.280  0.0615  0.0339  1.7958
 3203TIP3    H233805   2.570   5.702   7.166  0.2792  2.5058 -0.3700
 3204TIP3   OH233806   4.258   0.917   9.012  0.9258  0.8588  0.0808
 3204TIP3    H133807   4.342   0.960   8.998  0.6437  1.0691 -1.0396
 3204TIP3    H233808   4.261   0.889   9.103  2.4827  0.2748 -0.1097
 3205TIP3   OH233809   0.237   5.524   8.704  0.2238 -0.0488  0.4433
 3205TIP3    H133810   0.214   5.462   8.636 -0.4378  0.8250 -0.1528
 3205TIP3    H233811   0.302   5.582   8.663 -1.4177  1.5356 -0.0625
 3206TIP3   OH233812   5.459   0.627   8.794 -0.0877 -0.0045 -0.0575
 3206TIP3    H133813   5.439   0.537   8.820 -0.8051 -0.0228 -0.6396
 3206TIP3    H233814   5.546   0.623   8.754  0.2148 -0.2979  0.6208
 3207TIP3   OH233815   3.168   1.294   9.648  0.3073  0.0445  0.4654
 3207TIP3    H133816   3.247   1.302   9.701  0.2432 -1.4127  0.8166
 3207TIP3    H233817   3.184   1.217   9.593  0.1882  1.2580 -1.3322
 3208TIP3   OH233818   0.796   3.737   9.398  0.2834 -0.0504  0.4987
 3208TIP3    H133819   0.777   3.778   9.314  0.4185  0.7140  0.8335
 3208TIP3    H233820   0.842   3.656   9.375 -0.8580 -0.5405 -0.2122
 3209TIP3   OH233821   4.422   5.269   8.621  0.2170 -0.2267 -0.0882
 3209TIP3    H133822   4.327   5.283   8.617  0.1345 -0.6095  0.3729
 3209TIP3    H233823   4.447   5.249   8.531 -0.1853 -0.3777 -0.1715
 3210TIP3   OH233824   6.913   1.775   9.398 -0.0251 -0.4244 -0.0303
 3210TIP3    H133825   6.841   1.819   9.355  0.8325  0.9527 -0.1263
 3210TIP3    H233826   6.980   1.766   9.330  0.3993 -0.4741  0.3906
 3211TIP3   OH233827   3.063   4.053   8.698 -0.7157  0.3545 -0.6223
 3211TIP3    H133828   3.047   3.985   8.632 -1.1494  0.0426 -0.2056
 3211TIP3    H233829   3.141   4.024   8.744 -1.9181 -0.8416  0.7636
 3212TIP3   OH233830   2.209   6.045   7.019 -0.0001  0.0377 -0.1570
 3212TIP3    H133831   2.167   6.125   6.988 -0.5573 -0.6380 -1.2053
 3212TIP3    H233832   2.245   6.005   6.940  1.4065 -0.1054  0.5388
 3213TIP3   OH233833   0.364   4.553   9.425 -0.1089  0.3107  0.5067
 3213TIP3    H133834   0.325   4.584   9.344  0.8809 -0.3164 -0.2216
 3213TIP3    H233835   0.457   4.572   9.417 -0.1417  1.2532  1.9729
 3214TIP3   OH233836   1.854   4.751   8.172  0.5510  0.4343  0.1872
 3214TIP3    H133837   1.826   4.835   8.137 -0.6278 -0.4901 -1.2273
 3214TIP3    H233838   1.858   4.764   8.267 -0.5745  1.7994  0.0728
 3215TIP3   OH233839   3.354   6.187   7.876 -0.1280 -0.0358  0.0201
 3215TIP3    H133840   3.369   6.194   7.971 -0.6083 -1.4309  0.2205
 3215TIP3    H233841   3.260   6.173   7.867  0.1623 -1.8589 -0.5103
 3216TIP3   OH233842   2.573   5.944   8.811 -0.2157  0.1487  0.3119
 3216TIP3    H133843   2.526   5.936   8.894 -0.1281  0.7412  0.4224
 3216TIP3    H233844   2.586   6.038   8.800  0.4373  0.0230 -0.0026
 3217TIP3   OH233845   2.700   6.585   6.931  0.2783  0.1130 -0.5721
 3217TIP3    H133846   2.728   6.676   6.923 -0.8583  0.5425  0.1749
 3217TIP3    H233847   2.682   6.558   6.841  2.5898 -0.0609 -1.0506
 3218TIP3   OH233848   0.864   4.529   7.709 -0.6444 -0.6152 -0.1240
 3218TIP3    H133849   0.879   4.512   7.616 -0.0067 -0.0389 -0.1324
 3218TIP3    H233850   0.940   4.491   7.754  0.0971  0.8737 -0.0282
 3219TIP3   OH233851   4.002   4.817   7.327  0.5153  0.1447 -0.3537
 3219TIP3    H133852   4.010   4.832   7.232  2.2940 -0.6742 -0.3679
 3219TIP3    H233853   3.969   4.728   7.334  1.2313 -0.1152 -0.2130
 3220TIP3   OH233854   3.829   0.710   8.940 -0.2849  0.2951  0.0833
 3220TIP3    H133855   3.787   0.706   8.855 -0.2501 -2.5163  0.1114
 3220TIP3    H233856   3.904   0.651   8.933 -0.7566 -0.6832  2.2827
 3221TIP3   OH233857   1.128   1.728   7.892  0.0149 -0.1442 -0.5536
 3221TIP3    H133858   1.217   1.739   7.860  0.4440 -0.2686  0.5318
 3221TIP3    H233859   1.086   1.671   7.828  0.3025  0.9634 -1.7651
 3222TIP3   OH233860   0.430   3.378   8.494 -0.0917  0.2134 -0.1084
 3222TIP3    H133861   0.364   3.345   8.433 -1.0869  0.4021  0.8366
 3222TIP3    H233862   0.513   3.353   8.454 -0.7483 -1.0284 -0.7700
 3223TIP3   OH233863   6.744   2.143   9.429  0.6375 -0.4510 -0.0836
 3223TIP3    H133864   6.780   2.121   9.344  1.1126  1.5914 -0.4693
 3223TIP3    H233865   6.655   2.175   9.410  0.3439 -1.0104  0.3209
 3224TIP3   OH233866   6.947   1.099   8.202  0.7227 -0.0394 -0.5683
 3224TIP3    H133867   6.972   1.010   8.178  0.6057  0.6302 -3.4820
 3224TIP3    H233868   7.025   1.135   8.244  0.6508 -1.5601  0.9957
 3225TIP3   OH233869   2.257   6.048   8.196 -0.2480 -0.1898 -0.2049
 3225TIP3    H133870   2.176   6.086   8.230  0.3678  0.7479  0.2695
 3225TIP3    H233871   2.279   5.978   8.258  0.2573  0.7555  0.7230
 3226TIP3   OH233872   0.944   5.736   7.516 -0.2624  0.2703  0.3008
 3226TIP3    H133873   0.952   5.643   7.496 -3.2665  0.0191 -0.0943
 3226TIP3    H233874   0.914   5.738   7.607  2.3925  1.0449  1.2718
 3227TIP3   OH233875   4.152   7.290   8.031  0.1862 -0.3323 -0.5395
 3227TIP3    H133876   4.204   7.211   8.046 -1.8577 -1.9963 -1.6834
 3227TIP3    H233877   4.075   7.279   8.087  0.4449  1.5063  0.2370
 3228TIP3   OH233878   7.339   3.899   9.097 -0.2157 -0.2082  0.0876
 3228TIP3    H133879   7.390   3.952   9.035 -0.7127 -0.8037 -0.8478
 3228TIP3    H233880   7.405   3.850   9.146  0.1802  0.1967 -0.0262
 3229TIP3   OH233881   4.951   3.270   9.349 -0.2018  0.0721 -0.2988
 3229TIP3    H133882   5.019   3.315   9.400 -0.9925  0.4709  0.4187
 3229TIP3    H233883   4.888   3.339   9.326 -1.3070 -0.6124  0.6088
 3230TIP3   OH233884   7.170   1.589   7.866  0.1739 -0.2838  0.0858
 3230TIP3    H133885   7.184   1.548   7.952  2.5386  1.9538  0.8964
 3230TIP3    H233886   7.141   1.678   7.887 -1.8798 -0.4804 -1.5560
 3231TIP3   OH233887   6.249   0.350   7.951 -0.0009  0.1720  0.0555
 3231TIP3    H133888   6.261   0.276   7.893  0.5365 -0.3742  0.8386
 3231TIP3    H233889   6.159   0.379   7.935 -0.1223 -0.4648 -0.4566
 3232TIP3   OH233890   1.692   5.946   9.020 -0.1303  0.4035 -0.7114
 3232TIP3    H133891   1.788   5.942   9.018 -0.0620  0.8162  0.7555
 3232TIP3    H233892   1.666   5.885   9.089 -0.8512  1.1794 -0.2789
 3233TIP3   OH233893   1.646   1.408   6.703  0.0204  0.0964  0.1077
 3233TIP3    H133894   1.723   1.355   6.683 -1.0551 -1.8806  0.9427
 3233TIP3    H233895   1.577   1.371   6.648 -0.6155  1.0866  0.2255
 3234TIP3   OH233896   4.778   7.290   7.224  0.0481 -0.6104 -0.1066
 3234TIP3    H133897   4.725   7.370   7.214 -0.7674 -1.4160 -3.0271
 3234TIP3    H233898   4.718   7.219   7.204  1.5790 -1.7398 -0.8771
 3235TIP3   OH233899   0.184   6.614   9.265  0.2876  0.1850  0.3972
 3235TIP3    H133900   0.106   6.633   9.212  1.0065 -1.2699 -1.2927
 3235TIP3    H233901   0.164   6.532   9.309  0.5667  0.1951  0.5449
 3236TIP3   OH233902   1.448   5.342   8.440 -0.3397  0.0542 -0.2026
 3236TIP3    H133903   1.529   5.314   8.485  0.6053  1.9168 -0.6562
 3236TIP3    H233904   1.454   5.302   8.353 -0.0984 -0.1459 -0.0951
 3237TIP3   OH233905   6.666   0.952   7.799  0.1742 -0.4349 -0.0902
 3237TIP3    H133906   6.713   0.927   7.720 -0.5175 -1.7110 -0.1257
 3237TIP3    H233907   6.698   0.893   7.866  1.4622  1.2560  0.8617
 3238TIP3   OH233908   1.316   3.484   7.462 -0.0613 -0.5808 -0.1675
 3238TIP3    H133909   1.262   3.536   7.402  0.2124  0.2658  0.3020
 3238TIP3    H233910   1.268   3.486   7.545  0.0138 -0.9816 -0.1133
 3239TIP3   OH233911   2.422   1.666   9.591  0.7708 -0.3377  0.5494
 3239TIP3    H133912   2.457   1.749   9.561  0.1020  0.0193  0.7256
 3239TIP3    H233913   2.336   1.659   9.550  0.5235 -0.6016  1.0875
 3240TIP3   OH233914   6.998   0.054   7.402  0.1609 -0.1701 -0.5405
 3240TIP3    H133915   7.040   0.055   7.488 -1.0530 -0.3427  0.0786
 3240TIP3    H233916   7.028   0.135   7.360  0.0662  0.3728  0.4017
 3241TIP3   OH233917   4.286   1.083   7.494  0.3751  0.1685 -0.3330
 3241TIP3    H133918   4.224   1.010   7.500  1.5759 -0.7838  1.2392
 3241TIP3    H233919   4.300   1.095   7.400  0.1435 -1.6231 -0.6210
 3242TIP3   OH233920   2.661   0.040   7.975 -0.1619 -0.5710  0.3774
 3242TIP3    H133921   2.700   0.034   7.888 -0.4048  0.7575  0.1586
 3242TIP3    H233922   2.567   0.032   7.959 -0.1716 -0.9029  0.5894
 3243TIP3   OH233923   1.813   3.809   7.506  0.1639  0.0564  0.5915
 3243TIP3    H133924   1.808   3.869   7.580 -0.2710  2.5490 -1.3281
 3243TIP3    H233925   1.723   3.805   7.472  0.8660  1.7476 -1.7705
 3244TIP3   OH233926   5.730   2.391   8.888 -0.2614 -0.4923 -0.1031
 3244TIP3    H133927   5.820   2.399   8.858 -0.1267  0.5099  0.5131
 3244TIP3    H233928   5.681   2.360   8.812  0.4407 -0.1354 -0.7055
 3245TIP3   OH233929   2.494   3.584   8.705 -0.1248  0.3232  0.0419
 3245TIP3    H133930   2.530   3.662   8.748  1.6477 -0.1568 -0.5133
 3245TIP3    H233931   2.473   3.614   8.617  1.4929 -0.0441 -0.4880
 3246TIP3   OH233932   2.302   1.372   8.865 -0.0563 -0.5480 -0.6978
 3246TIP3    H133933   2.237   1.368   8.935  1.3035  0.1173  0.6542
 3246TIP3    H233934   2.255   1.411   8.791 -0.7126  1.7758  0.8529
 3247TIP3   OH233935   4.535   4.667   8.044 -0.1409 -0.3177  0.1856
 3247TIP3    H133936   4.533   4.644   8.136 -0.1574 -0.2260  0.2083
 3247TIP3    H233937   4.460   4.725   8.032  0.7974  0.9976  0.4654
 3248TIP3   OH233938   7.263   5.584   8.080 -0.0730  0.3835 -0.6610
 3248TIP3    H133939   7.355   5.577   8.106  0.1272  1.7610 -0.9154
 3248TIP3    H233940   7.219   5.623   8.156 -0.4813 -0.3776 -0.4951
 3249TIP3   OH233941   2.466   2.027   9.130 -0.8516  0.0234 -0.4432
 3249TIP3    H133942   2.441   2.120   9.133  0.2004  0.3102  2.4034
 3249TIP3    H233943   2.559   2.027   9.111 -0.5963 -0.3399  0.7045
 3250TIP3   OH233944   2.445   2.428   7.681  0.0154  0.3472  0.2214
 3250TIP3    H133945   2.528   2.474   7.680  0.0454  0.3318  1.2161
 3250TIP3    H233946   2.380   2.494   7.656  0.1550  0.7307  0.8630
 3251TIP3   OH233947   5.744   0.521   8.740  0.3815  0.0589 -0.1776
 3251TIP3    H133948   5.710   0.433   8.723 -0.6623  0.1250  1.3885
 3251TIP3    H233949   5.828   0.505   8.784 -0.3851 -0.2050  1.2427
 3252TIP3   OH233950   0.636   3.192   9.037 -0.3294 -0.1641  0.3244
 3252TIP3    H133951   0.720   3.147   9.029  0.4785  1.2518  0.5577
 3252TIP3    H233952   0.659   3.282   9.058 -1.8334  0.7610 -1.6809
 3253TIP3   OH233953   3.679   2.802   8.151 -0.1182  0.4321  0.0025
 3253TIP3    H133954   3.768   2.796   8.184  0.5431  3.8398 -0.8207
 3253TIP3    H233955   3.684   2.764   8.063  0.7204  1.2630 -0.3238
 3254TIP3   OH233956   1.226   5.664   9.508  0.2359  0.5678 -0.1400
 3254TIP3    H133957   1.238   5.644   9.601  0.8903 -0.4451 -0.4403
 3254TIP3    H233958   1.234   5.580   9.463  1.0837  1.2042 -1.2331
 3255TIP3   OH233959   4.060   7.214   8.656  0.1800  0.4246  0.1512
 3255TIP3    H133960   4.094   7.253   8.576 -0.1746 -0.2069 -0.3081
 3255TIP3    H233961   4.133   7.219   8.718  1.1164 -0.8803 -0.7992
 3256TIP3   OH233962   6.394   1.498   7.510  0.7972  0.1269  0.1766
 3256TIP3    H133963   6.415   1.492   7.417  0.8009  1.2268  0.0958
 3256TIP3    H233964   6.478   1.488   7.555  0.6636 -1.4772  0.1338
 3257TIP3   OH233965   7.334   0.924   9.514  0.1268 -0.2163 -0.0841
 3257TIP3    H133966   7.361   0.959   9.429  0.0391 -3.1164 -1.4522
 3257TIP3    H233967   7.416   0.906   9.560  0.2171 -0.0658 -0.1862
 3258TIP3   OH233968   4.664   4.890   6.996 -0.6444 -0.0558 -0.1256
 3258TIP3    H133969   4.646   4.800   6.967 -1.8310  0.0439  0.2518
 3258TIP3    H233970   4.586   4.940   6.969 -0.2164  0.7594  0.1087
 3259TIP3   OH233971   7.067   6.581   7.469  0.0593  0.1367 -0.0404
 3259TIP3    H133972   7.087   6.551   7.380  0.4129  0.4480 -0.0697
 3259TIP3    H233973   7.147   6.564   7.519  0.2086  0.8468 -0.0154
 3260TIP3   OH233974   2.669   2.201   7.963  0.1779 -0.1685 -0.1110
 3260TIP3    H133975   2.756   2.169   7.986  0.2016  0.3463  0.5459
 3260TIP3    H233976   2.644   2.150   7.886  0.6620 -0.9895  0.2658
 3261TIP3   OH233977   1.207   3.375   8.244 -0.2964 -0.0745 -0.0414
 3261TIP3    H133978   1.232   3.463   8.218  0.1958 -0.1195  0.2571
 3261TIP3    H233979   1.278   3.320   8.213 -0.9157 -0.4640 -0.8094
 3262TIP3   OH233980   0.634   0.843   7.178 -0.2435 -0.0278 -0.2610
 3262TIP3    H133981   0.539   0.849   7.168 -0.3909 -1.8460 -0.1872
 3262TIP3    H233982   0.647   0.797   7.260  0.7444  0.9344  0.1492
 3263TIP3   OH233983   4.282   0.709   8.782 -0.2427  0.4151  0.1303
 3263TIP3    H133984   4.320   0.777   8.727  1.3728  0.5317  1.3310
 3263TIP3    H233985   4.206   0.750   8.823  1.2934  1.9156  1.6463
 3264TIP3   OH233986   6.079   3.616   7.571  0.2088  0.0246  0.3169
 3264TIP3    H133987   6.054   3.563   7.647 -0.0967 -2.5822 -1.4707
 3264TIP3    H233988   5.996   3.633   7.527  0.6143 -0.8251 -0.8175
 3265TIP3   OH233989   1.704   3.217   6.958 -0.1950 -0.1439  0.3624
 3265TIP3    H133990   1.705   3.129   6.994  0.3605  0.5454  2.1325
 3265TIP3    H233991   1.794   3.235   6.933 -0.1389  0.2203  0.8060
 3266TIP3   OH233992   3.783   0.627   7.262 -0.0009 -0.1483  0.2836
 3266TIP3    H133993   3.733   0.683   7.321  1.3260  2.1141 -0.5968
 3266TIP3    H233994   3.717   0.584   7.207 -1.0833  2.0518 -0.2654
 3267TIP3   OH233995   2.568   6.682   8.264  0.2311  0.3241  0.1090
 3267TIP3    H133996   2.574   6.594   8.300 -0.4455 -0.2226 -1.0449
 3267TIP3    H233997   2.656   6.701   8.230  0.8741  0.8480  1.9614
 3268TIP3   OH233998   7.557   6.580   8.181 -0.0382 -0.2341  0.1724
 3268TIP3    H133999   7.647   6.548   8.172  0.0561  0.0291  0.1869
 3268TIP3    H234000   7.504   6.500   8.182  0.0442 -0.3244 -1.4516
 3269TIP3   OH234001   1.826   0.531   7.146 -0.2310 -0.2084 -0.0048
 3269TIP3    H134002   1.921   0.530   7.137 -0.0761  2.3285  0.4885
 3269TIP3    H234003   1.793   0.525   7.057  0.4401 -0.0478 -0.2692
 3270TIP3   OH234004   1.942   3.285   6.815  0.2297 -0.1117  0.1896
 3270TIP3    H134005   1.993   3.260   6.738 -0.6448 -1.1791 -0.0528
 3270TIP3    H234006   1.943   3.381   6.814  3.8588  0.0416  1.2598
 3271TIP3   OH234007   6.348   1.987   8.274 -0.3845 -0.0599 -0.6770
 3271TIP3    H134008   6.402   1.978   8.195  1.4618  0.5156  0.4523
 3271TIP3    H234009   6.264   2.022   8.242  0.2143 -0.0950 -2.3995
 3272TIP3   OH234010   0.806   7.039   7.426  0.6862 -0.2412 -0.1696
 3272TIP3    H134011   0.826   6.966   7.485  0.0027  0.1559  0.5735
 3272TIP3    H234012   0.715   7.025   7.400  1.1776 -0.7819 -1.6966
 3273TIP3   OH234013   3.867   4.723   8.221  0.4381  0.1449 -0.5927
 3273TIP3    H134014   3.873   4.816   8.199 -1.2764  0.2928 -0.5861
 3273TIP3    H234015   3.841   4.723   8.313 -1.0852 -0.2882 -1.0019
 3274TIP3   OH234016   7.333   2.527   6.698  0.1608 -0.2326  0.6409
 3274TIP3    H134017   7.258   2.474   6.726 -0.3346 -0.0795 -0.3747
 3274TIP3    H234018   7.407   2.489   6.745 -0.3063 -1.3552  0.5041
 3275TIP3   OH234019   0.542   3.819   9.502  0.1453 -0.4484  0.2939
 3275TIP3    H134020   0.619   3.772   9.469  1.0559  2.7071 -2.6613
 3275TIP3    H234021   0.563   3.838   9.594  1.0521 -2.9618  0.6869
 3276TIP3   OH234022   3.167   3.754   8.218 -0.0876 -0.4750  0.1544
 3276TIP3    H134023   3.119   3.829   8.250  0.1589  0.5999 -1.8147
 3276TIP3    H234024   3.100   3.687   8.201 -0.8937  0.7931 -1.9969
 3277TIP3   OH234025   6.626   1.237   7.882  0.0877  0.1879  0.2845
 3277TIP3    H134026   6.719   1.256   7.895 -0.1561  0.6859  1.4663
 3277TIP3    H234027   6.621   1.142   7.880  0.4865  0.1117  1.5588
 3278TIP3   OH234028   5.641   0.606   7.634 -0.2141 -0.1424 -0.3973
 3278TIP3    H134029   5.658   0.593   7.540 -2.1184  0.6267 -0.9000
 3278TIP3    H234030   5.667   0.697   7.650  0.5700 -0.4231 -0.0511
 3279TIP3   OH234031   2.019   3.495   9.052 -0.8464  0.1898  0.3135
 3279TIP3    H134032   2.003   3.436   8.978 -0.6943  0.4622  0.0625
 3279TIP3    H234033   1.969   3.574   9.031 -1.8214 -0.2009  1.1032
 3280TIP3   OH234034   1.869   4.442   7.265 -0.3387 -0.2740 -0.0077
 3280TIP3    H134035   1.914   4.429   7.182  2.5725  0.7249  1.2528
 3280TIP3    H234036   1.872   4.537   7.279 -1.8351 -0.3124  0.7133
 3281TIP3   OH234037   2.893   2.076   8.867  0.2558 -0.4214  0.1191
 3281TIP3    H134038   2.914   2.159   8.909 -0.1811 -0.3501  0.1982
 3281TIP3    H234039   2.936   2.081   8.781 -0.6161  0.3057 -0.2834
 3282TIP3   OH234040   6.418   5.766   7.803 -0.2779  0.2536  0.1165
 3282TIP3    H134041   6.395   5.710   7.877  1.2319 -2.7379 -1.5224
 3282TIP3    H234042   6.335   5.804   7.774 -1.0082  0.8284  2.7376
 3283TIP3   OH234043   3.631   6.125   6.760  0.7355 -0.3398 -0.6367
 3283TIP3    H134044   3.565   6.191   6.737  0.1090 -0.3363  0.9901
 3283TIP3    H234045   3.713   6.161   6.727  0.4054  1.2758  0.1788
 3284TIP3   OH234046   0.897   5.714   8.509  0.2924  0.3263 -0.2106
 3284TIP3    H134047   0.926   5.785   8.566 -1.5505  0.8614  0.1494
 3284TIP3    H234048   0.877   5.642   8.568 -1.7164  0.9143 -0.0764
 3285TIP3   OH234049   4.148   7.500   9.356  0.0333  0.1846 -0.9758
 3285TIP3    H134050   4.056   7.497   9.382 -0.7920  1.4771 -3.3994
 3285TIP3    H234051   4.193   7.537   9.431 -1.5692  0.3424 -0.0409
 3286TIP3   OH234052   0.712   1.760   9.402  0.6275  0.1850 -0.4967
 3286TIP3    H134053   0.742   1.672   9.424 -3.3942 -1.3485 -0.4712
 3286TIP3    H234054   0.723   1.767   9.307  1.4516 -0.0961 -0.4280
 3287TIP3   OH234055   1.221   5.743   9.037  0.0139  0.1782  0.4959
 3287TIP3    H134056   1.232   5.729   8.943 -2.9302  0.1197  0.0672
 3287TIP3    H234057   1.250   5.833   9.052  0.6557  0.1359 -0.4093
 3288TIP3   OH234058   2.772   5.350   8.426  0.0873 -0.0984  0.6847
 3288TIP3    H134059   2.748   5.424   8.371  0.4396  0.1379  0.8467
 3288TIP3    H234060   2.810   5.286   8.366 -1.2181 -0.6114  0.3733
 3289TIP3   OH234061   0.005   2.732   7.520  0.3371 -0.2533 -0.2934
 3289TIP3    H134062   0.076   2.685   7.562  0.2260 -0.1119  0.0534
 3289TIP3    H234063  -0.071   2.676   7.531  0.3283 -0.2592 -0.3872
 3290TIP3   OH234064   6.043   4.835   7.629  0.3512 -0.8907 -0.0684
 3290TIP3    H134065   5.967   4.799   7.675  0.4044 -1.0762 -0.1256
 3290TIP3    H234066   6.102   4.760   7.617  1.0014 -0.5504  0.8805
 3291TIP3   OH234067   1.407   1.836   9.615  0.3256  0.2826  0.1656
 3291TIP3    H134068   1.495   1.875   9.620  0.7364 -0.2337 -2.0032
 3291TIP3    H234069   1.356   1.898   9.563 -1.0198  1.1731  2.3927
 3292TIP3   OH234070   0.144   0.308   8.722 -0.2420 -0.0371 -0.5634
 3292TIP3    H134071   0.235   0.279   8.731 -0.0112  0.7823 -0.1692
 3292TIP3    H234072   0.143   0.395   8.762 -1.1476  0.0596 -0.7890
 3293TIP3   OH234073   7.409   4.207   7.664  0.1502 -0.0203  0.1862
 3293TIP3    H134074   7.452   4.269   7.722 -1.6866  1.7530 -0.2129
 3293TIP3    H234075   7.441   4.121   7.691  1.3812  0.9562  1.9951
 3294TIP3   OH234076   2.297   6.906   9.166  0.5013  0.3232  0.3281
 3294TIP3    H134077   2.239   6.958   9.110 -0.4797 -1.6649 -0.6035
 3294TIP3    H234078   2.370   6.964   9.186 -0.1696  1.7930 -1.2528
 3295TIP3   OH234079   6.255   2.363   7.141  0.1250  0.0744 -0.0769
 3295TIP3    H134080   6.181   2.423   7.137  0.5646  0.5706 -1.4134
 3295TIP3    H234081   6.321   2.403   7.085  1.1050 -0.7675  0.4421
 3296TIP3   OH234082   3.930   4.808   9.072  0.3389 -0.3096  0.4450
 3296TIP3    H134083   3.976   4.776   8.994  0.5756 -2.8570  1.5344
 3296TIP3    H234084   3.869   4.739   9.095 -2.1927  1.8348  0.6454
 3297TIP3   OH234085   6.772   5.385   7.904 -0.3128  0.0504  0.0693
 3297TIP3    H134086   6.709   5.403   7.974 -1.5274 -0.2821 -0.8992
 3297TIP3    H234087   6.720   5.341   7.836  0.9754 -0.2319 -0.7614
 3298TIP3   OH234088   1.650   3.384   7.754 -0.3006 -0.1110  0.5382
 3298TIP3    H134089   1.735   3.343   7.771 -0.0494  1.4023  3.6217
 3298TIP3    H234090   1.642   3.385   7.658  2.9576 -0.6194  0.1642
 3299TIP3   OH234091   4.181   4.843   7.723 -0.2388  0.0355 -1.1119
 3299TIP3    H134092   4.234   4.923   7.721  0.3836 -0.3512 -3.6782
 3299TIP3    H234093   4.094   4.872   7.750  0.4555  1.2232 -0.0589
 3300TIP3   OH234094   6.819   3.318   9.095  0.0186  0.4599 -0.0769
 3300TIP3    H134095   6.835   3.241   9.149 -3.0193 -0.1498  0.1282
 3300TIP3    H234096   6.847   3.392   9.149  1.3393 -0.3839  0.4264
 3301TIP3   OH234097   3.919   4.977   7.531 -0.8632 -0.5721 -0.2224
 3301TIP3    H134098   3.866   4.916   7.583  0.1443 -0.5400  0.8817
 3301TIP3    H234099   3.939   4.929   7.451 -0.3698 -1.5915  0.4894
 3302TIP3   OH234100   5.955   4.198   8.612 -0.0628  0.2698 -0.0555
 3302TIP3    H134101   5.880   4.203   8.553 -0.9359 -0.8139  0.8888
 3302TIP3    H234102   5.935   4.123   8.668 -0.5423  2.6775  3.2807
 3303TIP3   OH234103   3.392   2.110   8.807  0.5483  0.5707 -0.0587
 3303TIP3    H134104   3.481   2.101   8.774 -0.1556 -0.9460 -1.7423
 3303TIP3    H234105   3.355   2.184   8.759  1.0504  1.5786  1.0715
 3304TIP3   OH234106   4.690   1.613   9.329  0.2111  0.9108  0.3264
 3304TIP3    H134107   4.701   1.684   9.266  0.1075  0.7832  0.1651
 3304TIP3    H234108   4.610   1.635   9.376 -1.6279 -0.6836 -1.8258
 3305TIP3   OH234109   3.700   2.467   8.917 -0.2462 -0.0134  0.3992
 3305TIP3    H134110   3.718   2.463   9.011 -0.9673  1.9808  0.6648
 3305TIP3    H234111   3.611   2.501   8.911 -0.6185 -1.1449 -1.0147
 3306TIP3   OH234112   7.340   6.624   9.290 -0.1450 -0.4159 -0.4691
 3306TIP3    H134113   7.394   6.675   9.351  0.2645 -1.3419 -0.0317
 3306TIP3    H234114   7.372   6.648   9.203  0.2808 -0.1990 -0.2567
 3307TIP3   OH234115   2.558   1.480   7.392  0.1607 -0.2914 -0.0991
 3307TIP3    H134116   2.583   1.571   7.376  0.4307 -0.1590  1.0145
 3307TIP3    H234117   2.507   1.456   7.315  0.2433  0.7371 -0.4975
 3308TIP3   OH234118   0.958   6.007   8.270 -0.0644 -0.1553 -0.2937
 3308TIP3    H134119   0.878   6.038   8.313  0.2155  1.1213 -0.6591
 3308TIP3    H234120   0.926   5.953   8.197 -0.5841 -0.0153 -0.1748
 3309TIP3   OH234121   3.181   1.283   8.411  0.5189  0.0036 -0.0772
 3309TIP3    H134122   3.130   1.203   8.394  1.1175 -0.5964  0.8262
 3309TIP3    H234123   3.266   1.266   8.372  0.8676 -0.0910  0.7069
 3310TIP3   OH234124   0.032   7.522   7.696  0.1915 -0.7694  0.0738
 3310TIP3    H134125   0.095   7.470   7.646  2.3590  0.6452  1.1586
 3310TIP3    H234126  -0.015   7.573   7.631  0.6110 -1.3920 -0.7374
 3311TIP3   OH234127   3.342   5.010   9.085  0.0381  0.1584 -0.0098
 3311TIP3    H134128   3.436   4.999   9.071  0.0906  0.6729 -0.0937
 3311TIP3    H234129   3.313   5.062   9.010 -0.9963 -2.9375 -1.9607
 3312TIP3   OH234130   5.472   6.950   8.694  0.4794 -0.3391 -0.3741
 3312TIP3    H134131   5.535   6.966   8.624 -0.2024  2.6652 -0.4434
 3312TIP3    H234132   5.492   7.016   8.760 -0.6950 -1.2831  0.9858
 3313TIP3   OH234133   4.504   5.990   8.148  0.0935 -0.7060  0.1969
 3313TIP3    H134134   4.582   6.045   8.143 -1.2927  1.5564  1.6644
 3313TIP3    H234135   4.514   5.943   8.232  0.6067 -1.6919 -0.3937
 3314TIP3   OH234136   5.900   7.546   8.379 -0.5052 -0.5976  0.1175
 3314TIP3    H134137   5.822   7.597   8.357  0.5087  0.7253 -0.5396
 3314TIP3    H234138   5.887   7.463   8.335 -0.7400  0.2649 -1.5211
 3315TIP3   OH234139   7.311   2.350   8.667 -0.1673  0.2861  0.4312
 3315TIP3    H134140   7.371   2.361   8.740  0.4360  1.0425 -0.1586
 3315TIP3    H234141   7.272   2.437   8.654  0.9127  0.5800 -1.1237
 3316TIP3   OH234142   4.650   1.627   7.730  0.0979 -0.0474  0.3152
 3316TIP3    H134143   4.603   1.610   7.649 -0.5020  3.1796 -0.1445
 3316TIP3    H234144   4.742   1.630   7.704  0.1066 -0.9505  0.1846
 3317TIP3   OH234145   6.576   2.937   7.668  0.3329 -0.1987 -0.2545
 3317TIP3    H134146   6.523   3.009   7.633 -1.1012 -0.6348  0.9339
 3317TIP3    H234147   6.666   2.962   7.647 -0.0389  2.3390  0.7422
 3318TIP3   OH234148   1.660   6.010   7.167  0.5209  0.1710  0.3111
 3318TIP3    H134149   1.582   5.976   7.123  0.6942  1.6651 -1.2479
 3318TIP3    H234150   1.728   5.946   7.148  0.1720 -0.0840 -0.1055
 3319TIP3   OH234151   3.369   0.525   6.964  0.0474 -0.6705 -0.2401
 3319TIP3    H134152   3.286   0.535   7.010  1.6792  1.7349  2.5356
 3319TIP3    H234153   3.400   0.615   6.951  1.9888 -1.4732 -1.6624
 3320TIP3   OH234154   1.721   2.768   7.529  1.2733  0.1573 -0.0283
 3320TIP3    H134155   1.751   2.859   7.535  0.1731  0.5624 -0.3635
 3320TIP3    H234156   1.712   2.752   7.435 -0.0577  0.2478  0.0571
 3321TIP3   OH234157   5.655   3.305   8.211  0.0733  0.3893  0.1744
 3321TIP3    H134158   5.603   3.270   8.139 -0.6886 -2.0702  1.7876
 3321TIP3    H234159   5.681   3.228   8.261 -1.5510  2.0283  3.9224
 3322TIP3   OH234160   4.958   4.541   7.788  0.2189  0.1026  0.0908
 3322TIP3    H134161   4.902   4.616   7.767  0.1080 -0.2164 -0.7960
 3322TIP3    H234162   5.035   4.553   7.734  1.2640  0.7946  1.6632
 3323TIP3   OH234163   5.147   4.274   9.123 -0.1743 -0.1982 -0.5535
 3323TIP3    H134164   5.152   4.364   9.155  1.2805 -0.3903 -0.1548
 3323TIP3    H234165   5.200   4.274   9.043  3.6266 -1.5361  1.6840
 3324TIP3   OH234166   3.743   1.409   8.431 -0.0656 -0.2218  0.0424
 3324TIP3    H134167   3.730   1.336   8.371 -0.5986  0.6611 -0.9547
 3324TIP3    H234168   3.660   1.414   8.480 -0.3537  0.2396 -0.4874
 3325TIP3   OH234169   4.384   1.755   8.746  0.0429 -0.5539  0.0437
 3325TIP3    H134170   4.315   1.729   8.684  0.0081 -1.1243  0.3187
 3325TIP3    H234171   4.391   1.850   8.735  0.6327 -0.7363 -1.4553
 3326TIP3   OH234172   6.041   2.540   7.176 -0.2541  0.1487 -0.5263
 3326TIP3    H134173   5.947   2.546   7.162 -0.5289  0.2949  1.1939
 3326TIP3    H234174   6.072   2.631   7.173 -0.7011  0.4546  1.9926
 3327TIP3   OH234175   4.066   3.860   7.221  0.6126 -0.2210 -0.3028
 3327TIP3    H134176   4.103   3.841   7.135  0.7085 -1.5825  0.0108
 3327TIP3    H234177   4.039   3.952   7.216 -1.0035 -0.7196 -2.3663
 3328TIP3   OH234178   7.063   6.593   6.528 -0.3834 -0.2258  0.4148
 3328TIP3    H134179   7.067   6.688   6.539  1.0862 -0.0229 -1.3961
 3328TIP3    H234180   7.069   6.558   6.617  0.4562  1.3602  1.0222
 3329TIP3   OH234181   0.959   4.536   7.463 -0.1529 -0.2727 -0.0007
 3329TIP3    H134182   0.965   4.510   7.372  0.0577 -1.6800  0.4009
 3329TIP3    H234183   0.991   4.627   7.464 -2.1207  0.5241 -1.6291
 3330TIP3   OH234184   5.363   1.218   8.850 -0.1799 -0.4657 -0.0366
 3330TIP3    H134185   5.323   1.300   8.822  0.7823  0.2336  0.5595
 3330TIP3    H234186   5.369   1.226   8.945  0.2705 -1.0609 -0.0115
 3331TIP3   OH234187   4.202   4.636   7.089 -1.1176  0.0541  0.0898
 3331TIP3    H134188   4.212   4.587   7.008  0.0692  0.5604 -0.0927
 3331TIP3    H234189   4.163   4.720   7.063  1.7974  1.3824 -0.4581
 3332TIP3   OH234190   3.120   2.910   9.418  0.4728 -0.2800  0.3772
 3332TIP3    H134191   3.109   2.895   9.324  0.1600  1.3212  0.1326
 3332TIP3    H234192   3.039   2.877   9.457  0.5638 -0.8647  0.0798
 3333TIP3   OH234193   3.264   7.159   8.229 -0.2596 -0.1491  0.0922
 3333TIP3    H134194   3.221   7.075   8.243  0.0359 -0.2839  0.1973
 3333TIP3    H234195   3.337   7.140   8.170  0.8544 -0.2860  1.4697
 3334TIP3   OH234196   2.851   1.904   9.255 -0.9738 -0.1401 -0.5062
 3334TIP3    H134197   2.947   1.906   9.263 -0.9250  0.4509 -1.1384
 3334TIP3    H234198   2.819   1.944   9.336 -0.7781 -2.2992  0.7432
 3335TIP3   OH234199   4.820   3.649   7.900  0.3737  0.3607  0.6525
 3335TIP3    H134200   4.784   3.635   7.988 -1.2257 -0.9832 -0.1601
 3335TIP3    H234201   4.749   3.692   7.852 -0.4008 -2.6120 -1.0914
 3336TIP3   OH234202   2.151   2.169   8.017 -0.3740  0.6419  0.1853
 3336TIP3    H134203   2.107   2.085   8.011 -1.1611  1.1556 -1.9221
 3336TIP3    H234204   2.235   2.149   8.059  0.4136 -1.6184 -2.1865
 3337TIP3   OH234205   5.831   0.123   7.967  0.1597 -0.6465  0.0477
 3337TIP3    H134206   5.916   0.084   7.948 -0.3725 -0.9423 -1.9340
 3337TIP3    H234207   5.851   0.214   7.990  0.9602 -0.3536 -1.6608
 3338TIP3   OH234208   5.559   4.389   9.556 -0.0055  0.3521 -0.3115
 3338TIP3    H134209   5.492   4.443   9.514  1.4805  0.5655 -2.5462
 3338TIP3    H234210   5.579   4.321   9.491  0.8434 -0.6600  0.9506
 3339TIP3   OH234211   2.041   6.235   7.214  0.0725 -0.8311  0.0094
 3339TIP3    H134212   2.017   6.151   7.253 -0.9586 -1.1359 -1.2020
 3339TIP3    H234213   2.106   6.211   7.147  0.4778 -0.5449  0.3009
 3340TIP3   OH234214   7.055   7.650   8.546  0.5113 -0.4048  0.2076
 3340TIP3    H134215   7.085   7.566   8.583  0.4479 -0.2143  0.7019
 3340TIP3    H234216   6.964   7.635   8.524  0.5702 -0.5450  0.0588
 3341TIP3   OH234217   7.255   6.511   7.641 -0.4668 -0.1860 -0.5093
 3341TIP3    H134218   7.207   6.465   7.710  0.0380 -1.7105 -1.1319
 3341TIP3    H234219   7.288   6.442   7.585  0.9078  0.9194 -1.1242
 3342TIP3   OH234220   7.652   3.730   9.348  0.3628 -0.0489  0.4569
 3342TIP3    H134221   7.578   3.672   9.367 -0.3435  1.1104  1.3430
 3342TIP3    H234222   7.638   3.759   9.258  0.2063 -0.4761  0.3395
 3343TIP3   OH234223   1.310   5.111   7.775  0.1283 -0.0922  0.6915
 3343TIP3    H134224   1.216   5.102   7.761 -0.1708  0.9785  1.8563
 3343TIP3    H234225   1.341   5.021   7.789 -0.7801 -0.4179  0.6563
 3344TIP3   OH234226   4.571   2.848   9.293 -0.1018  0.3427 -0.2016
 3344TIP3    H134227   4.666   2.858   9.286 -0.1241  0.8872  0.2148
 3344TIP3    H234228   4.543   2.820   9.205  0.4718 -0.0948 -0.2459
 3345TIP3   OH234229   5.701   1.319   9.250 -0.4789  0.2976 -0.1586
 3345TIP3    H134230   5.698   1.397   9.194 -0.5630 -1.2050 -2.3919
 3345TIP3    H234231   5.628   1.265   9.219 -2.2639  0.4862  3.2676
 3346TIP3   OH234232   6.026   2.476   7.465 -0.5956 -0.0989  0.1774
 3346TIP3    H134233   5.931   2.474   7.454 -0.4332 -0.5159 -1.4517
 3346TIP3    H234234   6.060   2.500   7.379  0.7467  1.3456  1.0507
 3347TIP3   OH234235   1.925   4.573   7.539 -0.0330 -0.1218  0.0295
 3347TIP3    H134236   1.944   4.640   7.605  0.1536 -0.8197  0.7020
 3347TIP3    H234237   1.868   4.617   7.475 -0.0128  0.6371  0.5231
 3348TIP3   OH234238   0.061   2.264   7.048  0.1112  0.4111 -0.4079
 3348TIP3    H134239   0.140   2.296   7.091  0.3981 -1.6494  0.7613
 3348TIP3    H234240  -0.004   2.332   7.063  1.2123  1.3806  0.1003
 3349TIP3   OH234241   3.271   5.783   8.033 -0.8989 -0.5895  0.3169
 3349TIP3    H134242   3.247   5.733   7.956  1.0809  0.5284 -1.1046
 3349TIP3    H234243   3.230   5.869   8.019  1.5522  0.4769 -0.8638
 3350TIP3   OH234244   3.024   5.316   8.017  0.0561  0.0952  0.0038
 3350TIP3    H134245   2.956   5.302   7.952 -1.0915 -0.7268  1.3163
 3350TIP3    H234246   3.083   5.241   8.007 -0.2804 -0.1832  0.0916
 3351TIP3   OH234247   4.189   7.396   8.938  0.1841  0.4436  0.1495
 3351TIP3    H134248   4.253   7.349   8.885 -0.1820  0.0651  0.0340
 3351TIP3    H234249   4.194   7.354   9.024 -0.1851  0.1510  0.0302
 3352TIP3   OH234250   5.077   0.147   9.287 -0.2639  0.4367  0.0803
 3352TIP3    H134251   5.095   0.238   9.262 -0.6769  0.6931  0.7132
 3352TIP3    H234252   4.982   0.139   9.283 -0.1923 -0.1663 -0.6352
 3353TIP3   OH234253   5.896   5.774   8.271 -0.5803  0.1138  0.3489
 3353TIP3    H134254   5.812   5.748   8.310 -1.0133  0.8813 -0.0441
 3353TIP3    H234255   5.911   5.863   8.303 -0.1085  0.1299  0.0937
 3354TIP3   OH234256   3.896   2.457   8.634  0.6909 -0.6239 -0.3965
 3354TIP3    H134257   3.801   2.465   8.624  0.4951 -0.4096  1.2777
 3354TIP3    H234258   3.932   2.500   8.557 -0.5731 -1.0967 -1.2768
 3355TIP3   OH234259   6.196   5.362   8.145 -0.7130 -0.1684  0.2063
 3355TIP3    H134260   6.104   5.388   8.144 -0.9411 -0.9685  0.3519
 3355TIP3    H234261   6.219   5.355   8.052 -0.1985  2.0645  0.1050
 3356TIP3   OH234262   7.418   4.748   8.396 -0.5530 -0.0167  0.1554
 3356TIP3    H134263   7.417   4.687   8.322 -2.6537  1.0107 -0.7494
 3356TIP3    H234264   7.325   4.758   8.420 -0.0877  1.3213  1.5478
 3357TIP3   OH234265   3.312   7.292   9.000  0.1337 -0.2455  0.0509
 3357TIP3    H134266   3.253   7.216   9.003 -1.4120  0.8161 -1.3682
 3357TIP3    H234267   3.293   7.341   9.080 -0.0559 -0.5204  0.1749
 3358TIP3   OH234268   0.718   4.923   7.355  0.1818 -0.8525  0.3129
 3358TIP3    H134269   0.746   5.004   7.313  1.3163 -2.6149 -2.7182
 3358TIP3    H234270   0.770   4.917   7.435  1.7136  0.3535 -0.5406
 3359TIP3   OH234271   5.160   4.956   7.840  0.0289  0.1946  0.4766
 3359TIP3    H134272   5.141   4.891   7.908  0.2637 -1.1197 -0.6719
 3359TIP3    H234273   5.199   4.906   7.768  0.0061  1.5738 -0.5471
 3360TIP3   OH234274   5.984   7.118   8.088  0.1472 -0.2006  0.0508
 3360TIP3    H134275   6.040   7.186   8.126 -0.7171  0.3858  0.2964
 3360TIP3    H234276   6.006   7.120   7.995 -0.7088  1.2706 -0.1572
 3361TIP3   OH234277   3.848   1.262   7.993  0.0937  0.2399  0.1312
 3361TIP3    H134278   3.908   1.231   8.061  0.6292 -0.3011 -0.5776
 3361TIP3    H234279   3.899   1.324   7.942  0.6036 -1.3875 -1.4384
 3362TIP3   OH234280   1.523   2.658   7.701 -0.2147  0.1684 -0.3677
 3362TIP3    H134281   1.605   2.685   7.661 -0.3883  0.5801 -0.4520
 3362TIP3    H234282   1.474   2.739   7.713 -1.3417 -0.2263 -1.9128
 3363TIP3   OH234283   4.535   5.701   8.079  0.2678  0.1169 -0.2835
 3363TIP3    H134284   4.505   5.790   8.096 -0.1796  0.1486 -1.2057
 3363TIP3    H234285   4.581   5.706   7.996 -2.5133 -1.0474 -2.0606
 3364TIP3   OH234286   1.501   0.916   7.931 -0.5078  0.6418 -0.2296
 3364TIP3    H134287   1.464   1.001   7.908 -1.1831  0.4890  0.2930
 3364TIP3    H234288   1.426   0.858   7.939 -0.1585  0.3118  0.7617
 3365TIP3   OH234289   6.434   6.525   8.171  0.0767  0.4406  0.0248
 3365TIP3    H134290   6.495   6.457   8.140  0.0628 -0.0494  1.0406
 3365TIP3    H234291   6.347   6.486   8.158  0.0314  0.5907 -0.1327
 3366TIP3   OH234292   2.859   1.688   9.499  0.0437  0.4387  0.5259
 3366TIP3    H134293   2.811   1.769   9.520 -0.0560  1.0250 -1.7011
 3366TIP3    H234294   2.876   1.648   9.584  3.1125  4.4809  2.1776
 3367TIP3   OH234295   1.670   1.910   9.633 -0.1304 -0.5102 -0.8277
 3367TIP3    H134296   1.682   2.001   9.604  0.0180 -0.4434 -0.5594
 3367TIP3    H234297   1.758   1.872   9.625  0.2578 -0.0782  0.9493
 3368TIP3   OH234298   0.266   2.778   9.003  0.0667  0.6727 -0.1513
 3368TIP3    H134299   0.283   2.871   8.992 -0.9041  0.9999  0.8877
 3368TIP3    H234300   0.353   2.737   9.008  0.5330  1.7608  1.1985
 3369TIP3   OH234301   1.017   1.751   9.066  0.1378 -0.3323 -0.5510
 3369TIP3    H134302   1.064   1.830   9.042  1.9882 -0.3089  2.6015
 3369TIP3    H234303   1.085   1.687   9.086 -1.2009 -1.4973  0.5485
 3370TIP3   OH234304   4.279   1.754   6.988 -0.3738 -0.4924 -0.3645
 3370TIP3    H134305   4.350   1.696   6.959  0.3789 -0.3901  1.1400
 3370TIP3    H234306   4.221   1.697   7.038 -0.0198 -0.1217  0.4936
 3371TIP3   OH234307   7.223   1.662   8.454  0.1913  0.4221  0.0985
 3371TIP3    H134308   7.205   1.670   8.548 -0.8327 -0.1555 -0.0341
 3371TIP3    H234309   7.228   1.752   8.423 -0.3427  0.6218  0.5600
 3372TIP3   OH234310   3.082   5.262   9.529  0.0249  0.3456 -0.7306
 3372TIP3    H134311   3.118   5.310   9.603 -3.2643  0.7041  0.8444
 3372TIP3    H234312   3.157   5.220   9.488  1.9679 -1.5709  4.0251
 3373TIP3   OH234313   6.973   4.234   9.179  0.4197 -0.5782 -0.3400
 3373TIP3    H134314   6.983   4.311   9.236  0.9953 -1.1262  0.3129
 3373TIP3    H234315   6.884   4.203   9.195 -0.3019  0.7239 -1.6060
 3374TIP3   OH234316   3.499   5.972   9.154  0.7686  0.1032 -0.6584
 3374TIP3    H134317   3.533   5.894   9.110  1.2770 -1.8548  2.7819
 3374TIP3    H234318   3.559   6.042   9.129  1.4285 -1.0066 -2.4022
 3375TIP3   OH234319   7.290   2.295   9.148  0.0502  0.3064 -0.3342
 3375TIP3    H134320   7.276   2.207   9.185 -0.3085  0.3902 -0.2700
 3375TIP3    H234321   7.375   2.322   9.182 -0.1997  0.3113  0.2997
 3376TIP3   OH234322   6.707   0.451   8.422  0.1366 -0.1614 -0.2581
 3376TIP3    H134323   6.655   0.453   8.503  0.2879 -0.8436 -0.1374
 3376TIP3    H234324   6.777   0.389   8.441 -0.7552 -1.6143 -1.4627
 3377TIP3   OH234325   3.947   0.367   8.406  0.0692  0.0676 -0.6603
 3377TIP3    H134326   3.963   0.422   8.483  0.8352 -0.3276 -0.5317
 3377TIP3    H234327   4.000   0.289   8.421 -0.0011 -0.1380 -1.4602
 3378TIP3   OH234328   5.671   4.050   8.657 -0.3848  0.1063  0.2008
 3378TIP3    H134329   5.748   4.006   8.694 -0.3818 -0.4226 -0.4282
 3378TIP3    H234330   5.672   4.028   8.564 -0.8992  0.6887  0.0459
 3379TIP3   OH234331   1.845   0.587   8.492  0.8716 -0.4343 -0.0662
 3379TIP3    H134332   1.827   0.597   8.585  1.7687  1.9989 -0.0798
 3379TIP3    H234333   1.937   0.612   8.483  0.6938 -0.2521 -1.6489
 3380TIP3   OH234334   6.782   6.958   7.449  0.2311 -0.0993 -0.1687
 3380TIP3    H134335   6.857   6.914   7.409  1.2084 -0.5898  2.0536
 3380TIP3    H234336   6.805   6.965   7.541 -2.2580  0.2091  0.4972
 3381TIP3   OH234337   5.950   1.738   8.007  0.8615  0.4524 -0.1025
 3381TIP3    H134338   5.920   1.675   8.073  1.1278 -2.9110 -2.8916
 3381TIP3    H234339   5.869   1.766   7.963  0.8197  1.5026  0.6066
 3382TIP3   OH234340   6.013   5.562   8.103 -0.0917 -0.2273 -0.4541
 3382TIP3    H134341   5.968   5.634   8.147  0.9072 -1.1164  2.1870
 3382TIP3    H234342   5.950   5.490   8.104 -0.2437 -0.1085 -0.9795
 3383TIP3   OH234343   7.654   6.073   7.751  0.1339 -0.2122  0.0789
 3383TIP3    H134344   7.598   5.999   7.774  0.4668 -0.5755 -0.2603
 3383TIP3    H234345   7.604   6.121   7.684  0.5696 -0.9956 -0.8245
 3384TIP3   OH234346   1.894   2.870   9.230 -0.4829  0.3932 -0.1458
 3384TIP3    H134347   1.914   2.851   9.138  1.0082  1.4846 -0.0825
 3384TIP3    H234348   1.954   2.813   9.279  2.3595  3.3065  0.0555
 3385TIP3   OH234349   3.465   0.482   8.209  0.0327 -0.1717 -0.6810
 3385TIP3    H134350   3.422   0.424   8.146 -0.4902  0.5834 -1.0302
 3385TIP3    H234351   3.543   0.433   8.237 -1.4281 -1.9273  0.5690
 3386TIP3   OH234352   5.380   6.890   8.391  0.2400  0.4232  0.5522
 3386TIP3    H134353   5.474   6.907   8.401 -0.0393  1.7896  1.0276
 3386TIP3    H234354   5.338   6.970   8.422 -1.0706  0.0810 -0.2976
 3387TIP3   OH234355   4.445   2.279   8.044 -0.4640 -0.2947  0.7548
 3387TIP3    H134356   4.494   2.238   8.115  0.0067  0.2265  0.7420
 3387TIP3    H234357   4.497   2.261   7.966  0.0799  0.8236  0.8337
 3388TIP3   OH234358   1.211   4.004   8.494  0.2883 -0.6197 -0.5879
 3388TIP3    H134359   1.159   4.084   8.501 -0.3888 -0.8519 -2.3050
 3388TIP3    H234360   1.243   3.987   8.582 -1.1266  0.5122  0.1710
 3389TIP3   OH234361   2.945   5.954   7.786  0.1604  0.4138  0.3943
 3389TIP3    H134362   2.855   5.937   7.814  0.6623 -0.9080  1.2754
 3389TIP3    H234363   2.975   5.870   7.750  0.9369  0.9361 -0.2062
 3390TIP3   OH234364   3.803   0.170   8.643  0.5952 -0.7319 -0.0796
 3390TIP3    H134365   3.790   0.086   8.600 -0.6503 -1.2940  1.3147
 3390TIP3    H234366   3.725   0.221   8.619  0.4875 -0.6207  0.4895
 3391TIP3   OH234367   5.576   4.292   7.116  0.2714 -0.0697  0.0171
 3391TIP3    H134368   5.499   4.235   7.116 -0.2769  0.5148  2.8046
 3391TIP3    H234369   5.649   4.233   7.096 -0.2550 -1.9551  2.9152
 3392TIP3   OH234370   7.390   7.045   8.427  0.0008  0.5647 -0.0533
 3392TIP3    H134371   7.424   6.964   8.387  0.3808  0.7841 -0.1769
 3392TIP3    H234372   7.337   7.014   8.501 -0.2410  0.1804 -0.3812
 3393TIP3   OH234373   2.842   1.170   7.341 -0.2010  0.4094 -0.1190
 3393TIP3    H134374   2.824   1.226   7.265 -0.9425 -0.1616 -0.3665
 3393TIP3    H234375   2.796   1.213   7.413 -0.1718  0.5098 -0.1592
 3394TIP3   OH234376   3.470   6.916   6.890 -0.0052  0.1799 -0.1821
 3394TIP3    H134377   3.444   6.987   6.948  1.5082  0.3172  0.3910
 3394TIP3    H234378   3.484   6.957   6.805 -0.0398  0.4116 -0.0771
 3395TIP3   OH234379   0.158   1.062   7.012  0.0718  0.1339  0.6632
 3395TIP3    H134380   0.094   0.993   6.995  1.7421 -1.2746 -0.1677
 3395TIP3    H234381   0.118   1.141   6.975 -2.2323 -0.1226  2.3234
 3396TIP3   OH234382   5.156   6.562   7.281  0.3222  0.3498 -0.2753
 3396TIP3    H134383   5.234   6.618   7.282  1.7449 -1.4938  1.3825
 3396TIP3    H234384   5.147   6.536   7.189  2.4761 -0.3792 -0.3418
 3397TIP3   OH234385   6.903   1.790   8.831 -0.8061 -0.0445  0.3959
 3397TIP3    H134386   6.958   1.712   8.841 -0.8849 -0.4510 -1.7400
 3397TIP3    H234387   6.849   1.770   8.754 -1.8641  1.5422  0.6909
 3398TIP3   OH234388   1.230   4.050   7.840 -0.1129 -0.0005  0.5655
 3398TIP3    H134389   1.245   4.103   7.918 -0.1782 -1.9142  1.9522
 3398TIP3    H234390   1.317   4.042   7.800  0.0954  0.2099  0.9691
 3399TIP3   OH234391   2.704   5.181   7.033 -0.4937  0.1209 -0.1738
 3399TIP3    H134392   2.636   5.208   7.095 -0.1303  3.0460 -0.8848
 3399TIP3    H234393   2.781   5.232   7.059 -0.6494  2.4562 -3.6368
 3400TIP3   OH234394   3.454   0.774   6.988 -0.1943  0.3051 -0.7712
 3400TIP3    H134395   3.382   0.836   7.000  0.1388  0.3434  1.2781
 3400TIP3    H234396   3.533   0.823   7.012  0.4021 -0.1091 -1.8134
 3401TIP3   OH234397   1.348   4.003   7.018 -0.2467  0.1578  0.3053
 3401TIP3    H134398   1.349   4.098   7.004 -1.5567 -0.0012 -1.2150
 3401TIP3    H234399   1.257   3.978   7.004  0.1680 -1.3911  0.1860
 3402TIP3   OH234400   3.496   7.057   6.659 -0.4701  0.3782  0.2258
 3402TIP3    H134401   3.553   7.064   6.583 -2.1464  1.3766 -1.0399
 3402TIP3    H234402   3.487   7.148   6.690 -1.3017  0.2389  0.4208
 3403TIP3   OH234403   2.844   0.213   7.153  0.6653 -0.3346 -0.1310
 3403TIP3    H134404   2.805   0.275   7.092  1.7830  0.3732 -0.1703
 3403TIP3    H234405   2.938   0.218   7.135  1.3222  1.3922  2.8889
 3404TIP3   OH234406   0.144   0.111   9.098 -0.1921 -0.5415 -0.5715
 3404TIP3    H134407   0.165   0.198   9.132 -0.9375 -0.3338 -0.6131
 3404TIP3    H234408   0.225   0.061   9.107  0.0044 -0.0884  0.2441
 3405TIP3   OH234409   1.503   0.348   6.943  0.6237 -0.2506 -0.1928
 3405TIP3    H134410   1.526   0.437   6.914  0.2952 -0.6095 -1.6737
 3405TIP3    H234411   1.478   0.303   6.862 -0.4943 -1.3149  0.7153
 3406TIP3   OH234412   6.107   1.025   7.603 -0.9324  0.1200 -0.6007
 3406TIP3    H134413   6.120   1.113   7.569 -0.5073 -0.0432 -0.8599
 3406TIP3    H234414   6.051   0.982   7.538 -0.8292  0.0795 -0.6627
 3407TIP3   OH234415   5.522   0.338   8.890 -0.5081  0.3720 -0.2510
 3407TIP3    H134416   5.605   0.306   8.927  0.8124 -1.3429 -4.1991
 3407TIP3    H234417   5.476   0.259   8.863 -0.8991  1.4317 -2.9703
 3408TIP3   OH234418   4.078   6.373   8.207 -0.2998 -0.7804 -0.0377
 3408TIP3    H134419   4.031   6.391   8.126  1.2716  2.8775 -0.3458
 3408TIP3    H234420   4.034   6.427   8.273  2.3271  1.6021 -0.0405
 3409TIP3   OH234421   3.309   5.493   9.451 -0.5701  0.4016 -0.1866
 3409TIP3    H134422   3.313   5.403   9.483 -1.5316  1.1153  2.1577
 3409TIP3    H234423   3.254   5.489   9.373 -0.5136 -1.0437 -0.1667
 3410TIP3   OH234424   3.078   2.170   8.661  0.0316  0.3049  0.4500
 3410TIP3    H134425   3.153   2.221   8.693  0.0930  0.7910 -0.4322
 3410TIP3    H234426   3.065   2.201   8.572 -1.3057  0.3144  0.6356
 3411TIP3   OH234427   2.721   0.349   7.374 -0.1981  0.3121 -0.2310
 3411TIP3    H134428   2.628   0.329   7.368 -0.3353  1.0396 -0.6393
 3411TIP3    H234429   2.763   0.283   7.318 -0.2606 -1.2910  1.5286
 3412TIP3   OH234430   4.046   5.553   9.224  0.2507 -0.3197  0.4462
 3412TIP3    H134431   4.025   5.638   9.185 -1.4517 -1.7706 -2.1226
 3412TIP3    H234432   3.962   5.523   9.259  0.6661 -1.2363  0.6693
 3413TIP3   OH234433   7.441   1.146   8.264 -0.1477 -0.1688 -0.2513
 3413TIP3    H134434   7.430   1.135   8.169  0.9070  0.3384 -0.4517
 3413TIP3    H234435   7.353   1.136   8.300 -0.5730 -0.3214 -1.2893
 3414TIP3   OH234436   3.272   3.300   8.353 -0.1177 -0.3856  0.1383
 3414TIP3    H134437   3.223   3.222   8.327 -0.8534 -0.3224  1.2492
 3414TIP3    H234438   3.205   3.368   8.363  0.6472  0.7974 -2.1039
 3415TIP3   OH234439   1.139   3.304   8.492  0.5191  0.0774  0.1508
 3415TIP3    H134440   1.215   3.261   8.530  0.5482  0.9375  1.0966
 3415TIP3    H234441   1.172   3.347   8.414  0.7339 -0.5828 -0.1336
 3416TIP3   OH234442   6.660   2.027   7.068 -0.2838 -0.1182 -0.2440
 3416TIP3    H134443   6.742   2.054   7.028 -0.0376 -0.0988  0.2733
 3416TIP3    H234444   6.636   2.099   7.126  0.3379 -0.9588  1.0788
 3417TIP3   OH234445   2.582   4.197   9.426 -0.1595 -0.0001 -0.4347
 3417TIP3    H134446   2.578   4.270   9.364  0.9417  0.5878  0.1476
 3417TIP3    H234447   2.585   4.239   9.512  0.3844 -0.7296 -0.0884
 3418TIP3   OH234448   2.083   2.023   9.048  0.1647 -0.5100  0.3214
 3418TIP3    H134449   2.006   1.983   9.009 -0.7663  0.1471  1.4292
 3418TIP3    H234450   2.155   1.965   9.023 -0.6832 -1.1682 -0.6778
 3419TIP3   OH234451   5.959   4.046   8.265 -0.0491  0.0809 -0.0542
 3419TIP3    H134452   5.963   3.957   8.229 -2.6940  0.5887 -1.8638
 3419TIP3    H234453   6.030   4.093   8.222  0.1760 -0.6886 -0.5419
 3420TIP3   OH234454   5.273   1.994   8.903  0.3513  0.8466 -0.0924
 3420TIP3    H134455   5.192   1.950   8.875 -1.1983  2.5262  1.4785
 3420TIP3    H234456   5.310   1.936   8.968  0.2810  0.1891 -0.6221
 3421TIP3   OH234457   0.688   5.526   7.497 -0.6041  0.9920 -0.2933
 3421TIP3    H134458   0.739   5.565   7.427 -1.8933  0.5785 -1.5082
 3421TIP3    H234459   0.695   5.431   7.482 -0.5341  0.8791  0.4080
 3422TIP3   OH234460   3.130   4.011   6.973  0.0571  0.0573 -0.0932
 3422TIP3    H134461   3.108   3.952   6.901 -1.7669 -0.9096  1.1373
 3422TIP3    H234462   3.116   4.099   6.938 -1.7643 -0.4189 -0.6921
 3423TIP3   OH234463   0.636   1.193   7.440  0.4312 -0.3415  0.3669
 3423TIP3    H134464   0.556   1.140   7.435  1.4705 -1.9321 -0.4589
 3423TIP3    H234465   0.706   1.130   7.426  1.7590  1.2759 -0.6368
 3424TIP3   OH234466   2.913   7.496   8.635  0.4389 -0.0803 -0.9854
 3424TIP3    H134467   2.984   7.476   8.695  0.3584 -0.4350 -1.0023
 3424TIP3    H234468   2.860   7.415   8.633 -0.3807  0.4250 -0.3896
 3425TIP3   OH234469   5.289   5.794   8.788 -0.1363  0.2668 -0.5035
 3425TIP3    H134470   5.252   5.852   8.722 -0.0844 -0.2671 -1.0051
 3425TIP3    H234471   5.219   5.780   8.851 -0.1276  0.9266 -0.3455
 3426TIP3   OH234472   3.054   3.863   6.724  0.2620 -0.0812 -0.0668
 3426TIP3    H134473   3.014   3.896   6.643  1.9266  1.4880 -0.2933
 3426TIP3    H234474   3.100   3.783   6.697 -2.3271 -1.7761  0.1485
 3427TIP3   OH234475   5.483   5.100   7.893 -0.0336  0.0184 -0.7280
 3427TIP3    H134476   5.569   5.098   7.935 -0.6426 -0.2533  0.5502
 3427TIP3    H234477   5.499   5.067   7.804  1.2401  0.3627 -0.6499
 3428TIP3   OH234478   0.869   6.509   7.643 -0.2197 -0.2049 -0.2960
 3428TIP3    H134479   0.921   6.429   7.638  0.4048  0.1021  0.8769
 3428TIP3    H234480   0.782   6.480   7.670  0.6969 -0.3219  3.0026
 3429TIP3   OH234481   1.689   1.645   8.081 -0.0323  0.2545 -0.7877
 3429TIP3    H134482   1.668   1.737   8.067 -1.4578 -0.2629 -2.2723
 3429TIP3    H234483   1.784   1.643   8.088  0.0158  1.8292 -0.6980
 3430TIP3   OH234484   6.011   4.510   6.809 -0.3336  0.0601  0.2138
 3430TIP3    H134485   6.096   4.543   6.837 -0.7277  4.1665 -2.5855
 3430TIP3    H234486   6.027   4.474   6.722 -1.2617 -0.3001  0.1853
 3431TIP3   OH234487   0.719   5.817   6.862  0.7362 -0.0412  0.2627
 3431TIP3    H134488   0.811   5.812   6.887  1.0780 -1.0950 -1.0748
 3431TIP3    H234489   0.697   5.729   6.833 -0.7313  0.1725  0.6289
 3432TIP3   OH234490   4.491   2.832   8.255  0.4516 -0.5105  0.6137
 3432TIP3    H134491   4.565   2.796   8.207  0.3207  0.2071 -0.1533
 3432TIP3    H234492   4.495   2.926   8.238  0.2455 -0.2687  1.7989
 3433TIP3   OH234493   1.502   4.358   7.398  0.1984 -0.0481  0.2487
 3433TIP3    H134494   1.500   4.272   7.356  0.2551 -0.5177  1.1859
 3433TIP3    H234495   1.554   4.345   7.478  0.1530  0.8410  0.4385
 3434TIP3   OH234496   4.828   7.062   9.279 -0.1591 -0.7122 -0.1020
 3434TIP3    H134497   4.881   7.046   9.201  0.2537 -0.4869  0.1267
 3434TIP3    H234498   4.891   7.058   9.351 -0.5906 -1.2691  0.2535
 3435TIP3   OH234499   1.964   5.349   9.137  0.1302  0.3633  0.2210
 3435TIP3    H134500   1.953   5.281   9.203 -0.2267 -0.5371 -0.7443
 3435TIP3    H234501   2.055   5.376   9.145  0.4773 -0.7411  0.1463
 3436TIP3   OH234502   1.294   5.133   6.979  0.1246  0.2102 -0.0701
 3436TIP3    H134503   1.205   5.119   7.013  1.0928 -2.8455  1.5954
 3436TIP3    H234504   1.337   5.187   7.046 -0.4065  1.7097 -0.8881
 3437TIP3   OH234505   0.756   1.204   6.887 -0.3998  0.6786 -0.7026
 3437TIP3    H134506   0.663   1.223   6.898  0.1140  1.9456  2.3117
 3437TIP3    H234507   0.763   1.109   6.898 -1.0522  0.8900  2.1534
 3438TIP3   OH234508   2.103   3.392   7.442 -0.0488  0.3605  0.3108
 3438TIP3    H134509   2.050   3.471   7.452  0.1207  0.5023  0.0763
 3438TIP3    H234510   2.187   3.423   7.408  0.4028  0.2088  1.2595
 3439TIP3   OH234511   3.476   7.267   7.176 -0.0086  0.0453  0.3250
 3439TIP3    H134512   3.487   7.349   7.127 -0.3464  0.5174  1.0243
 3439TIP3    H234513   3.491   7.292   7.267 -0.9076 -0.5035  0.6368
 3440TIP3   OH234514   1.792   3.988   6.840 -0.6924  0.0315  0.5153
 3440TIP3    H134515   1.886   4.004   6.829 -0.7710  0.1883  0.0624
 3440TIP3    H234516   1.752   4.028   6.764 -1.0287 -1.0932  0.0856
 3441TIP3   OH234517   3.102   3.575   7.495 -0.0918  0.1225  0.1889
 3441TIP3    H134518   3.170   3.631   7.533  1.2989 -0.3670 -1.4565
 3441TIP3    H234519   3.102   3.598   7.401  0.9006 -2.9386 -0.6611
 3442TIP3   OH234520   0.454   6.387   7.295 -0.2656 -0.0775  0.4613
 3442TIP3    H134521   0.500   6.461   7.254  0.9391  0.0579  1.9326
 3442TIP3    H234522   0.466   6.314   7.234  0.9735  0.2499  0.2833
 3443TIP3   OH234523   2.366   1.281   8.601 -0.3687 -0.5967 -0.0759
 3443TIP3    H134524   2.435   1.259   8.663  0.4676 -0.0087 -0.7720
 3443TIP3    H234525   2.337   1.368   8.626  0.0834 -0.2917 -0.6003
 3444TIP3   OH234526   6.131   3.818   6.949  0.4188  0.3263 -0.1054
 3444TIP3    H134527   6.139   3.730   6.986  0.9014  0.6686  0.6434
 3444TIP3    H234528   6.055   3.855   6.994 -0.8500 -0.2664 -1.6476
 3445TIP3   OH234529   2.495   5.539   7.959 -0.0120 -0.3305  0.1068
 3445TIP3    H134530   2.438   5.469   7.927 -0.9264  0.1556  0.6296
 3445TIP3    H234531   2.458   5.563   8.044  1.7426 -0.8932  1.0988
 3446TIP3   OH234532   4.456   5.040   7.921 -0.3559  0.2975  0.1208
 3446TIP3    H134533   4.383   5.076   7.971  0.9512  2.5601  0.5401
 3446TIP3    H234534   4.438   5.068   7.831 -1.3984 -1.5979 -0.3178
 3447TIP3   OH234535   0.713   5.588   9.536  0.3139 -0.2544  0.0573
 3447TIP3    H134536   0.706   5.508   9.484 -0.9425  0.8472 -1.5768
 3447TIP3    H234537   0.718   5.658   9.471 -0.2826  1.1254  1.4308
 3448TIP3   OH234538   5.929   7.070   6.840 -0.1748  0.2318  0.4091
 3448TIP3    H134539   5.990   7.085   6.767 -0.1397 -0.1904  0.3452
 3448TIP3    H234540   5.849   7.114   6.814 -0.8550 -1.6488 -0.8520
 3449TIP3   OH234541   7.409   2.317   7.592  0.0285 -0.2920  0.4179
 3449TIP3    H134542   7.492   2.293   7.551  0.5637  1.5479  0.3739
 3449TIP3    H234543   7.414   2.411   7.605 -2.0217 -0.1457  0.5078
 3450TIP3   OH234544   4.484   4.056   7.267  0.2432 -0.4356 -0.0078
 3450TIP3    H134545   4.408   4.099   7.306 -0.7682 -2.0706 -0.1200
 3450TIP3    H234546   4.553   4.123   7.271 -1.2620  1.2183 -0.2235
 3451TIP3   OH234547   5.749   0.470   7.875  0.6114 -0.4398 -0.1076
 3451TIP3    H134548   5.711   0.383   7.863  1.6042 -0.9911  0.5718
 3451TIP3    H234549   5.696   0.527   7.820  0.2864 -1.5689 -1.0180
 3452TIP3   OH234550   6.330   7.104   6.989 -0.3473  0.0658  0.1176
 3452TIP3    H134551   6.238   7.099   6.962 -0.2595 -0.4075 -0.1146
 3452TIP3    H234552   6.334   7.052   7.069 -0.2380 -0.1129 -0.0022
 3453TIP3   OH234553   7.464   4.101   8.958 -0.1570  0.0241  0.1953
 3453TIP3    H134554   7.482   4.124   8.867 -0.1765  0.7696  0.3729
 3453TIP3    H234555   7.437   4.183   8.999 -1.6012 -0.5761  0.5304
 3454TIP3   OH234556   0.795   1.392   8.098  0.0478 -0.0989 -0.1400
 3454TIP3    H134557   0.843   1.470   8.126 -0.5624 -0.1710  1.2145
 3454TIP3    H234558   0.853   1.319   8.120 -0.3412 -0.1423  0.8005
 3455TIP3   OH234559   0.542   2.447   9.658  0.1825  0.0591 -0.2571
 3455TIP3    H134560   0.492   2.478   9.582 -1.8255 -3.3510 -0.4899
 3455TIP3    H234561   0.477   2.436   9.727  1.5447  0.5108  1.1559
 3456TIP3   OH234562   1.206   6.063   8.392  0.0017  0.0082 -0.1963
 3456TIP3    H134563   1.121   6.053   8.349 -1.3232  1.5109  1.8700
 3456TIP3    H234564   1.253   6.126   8.338 -1.2559  1.1470 -0.0233
 3457TIP3   OH234565   6.024   4.858   8.401 -0.4004  0.4418 -0.4765
 3457TIP3    H134566   5.972   4.795   8.350 -0.6758 -0.6842  1.1359
 3457TIP3    H234567   5.976   4.941   8.392  0.0383  0.5079 -2.7341
 3458TIP3   OH234568   0.716   6.231   8.824  0.1481 -0.0650  0.2945
 3458TIP3    H134569   0.624   6.234   8.799  0.5861 -0.0136 -1.4848
 3458TIP3    H234570   0.716   6.242   8.919 -1.5017  3.6412  0.0443
 3459TIP3   OH234571   1.433   7.527   9.175 -0.3609 -0.1802  0.0955
 3459TIP3    H134572   1.487   7.556   9.101  1.4614 -1.7497  0.7026
 3459TIP3    H234573   1.494   7.476   9.229 -2.7710 -3.3922  0.0732
 3460TIP3   OH234574   6.345   6.966   7.809 -0.2268 -0.0427  0.0012
 3460TIP3    H134575   6.345   7.047   7.861 -0.0052  0.0070 -0.0743
 3460TIP3    H234576   6.300   6.902   7.864 -0.8692  0.2665 -0.1460
 3461TIP3   OH234577   1.621   7.185   8.393 -0.5788 -0.4687  0.2141
 3461TIP3    H134578   1.543   7.178   8.337  0.2566 -1.3855 -0.9042
 3461TIP3    H234579   1.622   7.103   8.442 -1.3956  0.4052  1.7388
 3462TIP3   OH234580   2.371   3.927   7.423 -0.2132  0.1367 -0.0572
 3462TIP3    H134581   2.295   3.869   7.421  1.1525 -1.7602 -1.0360
 3462TIP3    H234582   2.411   3.916   7.336  0.6026  1.8889  0.0682
 3463TIP3   OH234583   4.927   1.619   8.679  0.4444 -0.4469 -0.1057
 3463TIP3    H134584   4.847   1.587   8.719 -0.1551 -0.6029 -1.3567
 3463TIP3    H234585   4.965   1.542   8.636  0.6951 -0.1572 -0.4151
 3464TIP3   OH234586   4.181   0.350   7.211 -0.0873  0.0785 -0.8195
 3464TIP3    H134587   4.115   0.386   7.270  1.6949 -0.3310  1.6107
 3464TIP3    H234588   4.153   0.376   7.123 -2.4386  1.4562  0.2590
 3465TIP3   OH234589   5.359   3.631   8.949 -0.3902  0.0756 -0.0479
 3465TIP3    H134590   5.389   3.540   8.956 -0.8788  0.0284  2.2132
 3465TIP3    H234591   5.275   3.625   8.903 -0.4074 -0.6294  0.0594
 3466TIP3   OH234592   6.275   6.739   8.373  0.0668  0.0407 -0.1017
 3466TIP3    H134593   6.345   6.741   8.307 -0.6798  0.3303 -0.9049
 3466TIP3    H234594   6.321   6.751   8.456  1.0843 -0.8422 -0.5052
 3467TIP3   OH234595   6.434   1.829   8.922  0.1295 -0.0241  0.3952
 3467TIP3    H134596   6.393   1.789   8.999 -0.6812 -0.0073 -0.0093
 3467TIP3    H234597   6.514   1.869   8.955 -0.1515 -0.1151  1.2079
 3468TIP3   OH234598   0.376   0.702   7.561  0.5212  0.5543 -0.5199
 3468TIP3    H134599   0.360   0.610   7.577 -1.3744  0.9233 -0.1027
 3468TIP3    H234600   0.450   0.724   7.618  0.2416 -0.4413  0.2479
 3469TIP3   OH234601   0.999   1.974   8.538  0.4625  0.4065 -0.3057
 3469TIP3    H134602   0.976   1.881   8.542  1.1226  0.2705  0.6517
 3469TIP3    H234603   1.050   1.983   8.457  3.6057 -0.8576  1.3820
 3470TIP3   OH234604   7.268   4.328   7.921 -0.0239 -0.5426  0.1103
 3470TIP3    H134605   7.261   4.294   8.010 -2.3887 -1.1332 -0.2314
 3470TIP3    H234606   7.189   4.380   7.908  0.3816 -0.2584 -1.5635
 3471TIP3   OH234607   3.204   2.304   8.414  0.1693 -0.5315  0.3169
 3471TIP3    H134608   3.121   2.275   8.374 -0.0372  1.1348 -0.5591
 3471TIP3    H234609   3.269   2.289   8.346  0.0718  0.8755 -0.1259
 3472TIP3   OH234610   0.038   1.352   9.649 -0.7171 -0.3060  0.2940
 3472TIP3    H134611   0.004   1.411   9.717  2.0533  0.7237  0.9394
 3472TIP3    H234612   0.023   1.399   9.567 -1.9569 -0.4793  0.4066
 3473TIP3   OH234613   3.762   5.462   8.458 -0.8702  0.0881 -0.4227
 3473TIP3    H134614   3.755   5.535   8.396 -2.1018  0.3870  0.0306
 3473TIP3    H234615   3.672   5.447   8.487 -0.5606 -1.2624 -0.0938
 3474TIP3   OH234616   7.449   0.918   7.335  0.0444 -0.2293 -0.9056
 3474TIP3    H134617   7.465   1.006   7.301  1.3441 -0.6047 -1.3164
 3474TIP3    H234618   7.358   0.920   7.363  0.6153  1.9321  1.1623
 3475TIP3   OH234619   5.745   5.768   7.990 -0.2883 -0.0049  0.3128
 3475TIP3    H134620   5.826   5.811   8.018 -0.6238  1.4709 -0.8942
 3475TIP3    H234621   5.774   5.700   7.930  0.1611 -0.7247  1.3093
 3476TIP3   OH234622   5.792   7.656   9.122  0.5461  0.4026 -0.5190
 3476TIP3    H134623   5.743   7.729   9.082  1.2897  0.4256 -1.4238
 3476TIP3    H234624   5.731   7.618   9.184  0.2516  2.0187  0.2411
 3477TIP3   OH234625   6.342   0.496   7.146  0.2010  0.1291  0.1126
 3477TIP3    H134626   6.431   0.480   7.177  0.3480  0.3636 -0.1876
 3477TIP3    H234627   6.315   0.413   7.106  0.0170 -0.1672  0.8469
 3478TIP3   OH234628   3.768   5.547   9.286  0.1893  0.5002 -0.4486
 3478TIP3    H134629   3.695   5.493   9.257  0.8531 -0.6728 -0.0132
 3478TIP3    H234630   3.737   5.637   9.275 -1.0639  0.0410 -0.8928
 3479TIP3   OH234631   0.669   6.885   7.938  1.0675  0.2675 -0.4525
 3479TIP3    H134632   0.727   6.816   7.971  1.7670  1.2337  0.3840
 3479TIP3    H234633   0.617   6.911   8.013  0.3507  0.2251 -0.9218
 3480TIP3   OH234634   3.725   4.168   8.780 -0.0054 -0.4541 -0.0073
 3480TIP3    H134635   3.768   4.222   8.847 -0.6697  0.2654 -0.1471
 3480TIP3    H234636   3.778   4.183   8.701 -1.2588  1.5204 -0.5301
 3481TIP3   OH234637   5.230   7.197   8.952 -0.0828 -0.2399  0.2664
 3481TIP3    H134638   5.209   7.120   9.005 -0.2755 -0.7800 -0.5661
 3481TIP3    H234639   5.325   7.194   8.942 -0.0932 -0.3953  0.2067
 3482TIP3   OH234640   5.691   3.653   7.548 -0.2644 -0.4179 -0.2387
 3482TIP3    H134641   5.688   3.714   7.475  0.8423 -1.2714 -1.0364
 3482TIP3    H234642   5.637   3.579   7.521  0.7589 -1.0736 -0.5396
 3483TIP3   OH234643   3.128   1.206   7.530 -0.1423  0.6221 -0.2667
 3483TIP3    H134644   3.089   1.216   7.617  1.1223  0.1229  0.3885
 3483TIP3    H234645   3.137   1.296   7.498  1.5727  1.0137  1.1586
 3484TIP3   OH234646   1.312   4.442   7.953 -0.5997  0.5181 -0.0800
 3484TIP3    H134647   1.376   4.494   8.003 -1.0702  1.3190 -0.3040
 3484TIP3    H234648   1.232   4.493   7.956 -1.2724 -0.5197  0.2622
 3485TIP3   OH234649   4.342   7.042   8.053 -0.0424 -0.0688  0.3024
 3485TIP3    H134650   4.306   7.003   8.132  0.8960 -0.7651  0.4114
 3485TIP3    H234651   4.340   6.972   7.988  0.2765  0.1404  0.0597
 3486TIP3   OH234652   0.765   5.301   9.406  0.2081 -0.8602  0.0529
 3486TIP3    H134653   0.684   5.266   9.444  0.0762 -1.3080 -0.6235
 3486TIP3    H234654   0.766   5.267   9.316  0.1170  0.8080 -0.6210
 3487TIP3   OH234655   0.903   6.239   9.422  0.0937  0.4463 -0.0845
 3487TIP3    H134656   0.885   6.228   9.515 -1.4554  0.7109 -0.3348
 3487TIP3    H234657   0.831   6.293   9.389  0.1241 -0.3847 -1.6041
 3488TIP3   OH234658   0.905   7.033   8.585 -0.2421  0.3093 -0.0058
 3488TIP3    H134659   0.988   7.028   8.632  0.7650 -0.2023 -1.7194
 3488TIP3    H234660   0.872   7.121   8.604  1.1071  0.8316  0.0755
 3489TIP3   OH234661   4.425   6.389   7.388 -0.4620  0.0059 -0.3134
 3489TIP3    H134662   4.459   6.460   7.443 -0.3392 -0.0708 -0.2912
 3489TIP3    H234663   4.450   6.309   7.434 -0.5023 -0.0548 -0.3971
 3490TIP3   OH234664   2.769   3.117   7.908  0.1011 -0.0323  0.2714
 3490TIP3    H134665   2.743   3.026   7.899 -0.7159  0.1603  0.6049
 3490TIP3    H234666   2.863   3.113   7.927 -0.1207 -0.8622  1.3150
 3491TIP3   OH234667   1.734   6.320   6.939  0.2190 -0.6905 -0.5780
 3491TIP3    H134668   1.709   6.299   6.849 -0.9687 -0.7028 -0.2607
 3491TIP3    H234669   1.820   6.363   6.930 -0.5661  0.7483 -1.8801
 3492TIP3   OH234670   0.908   0.490   9.119 -0.2533  0.1720 -0.1134
 3492TIP3    H134671   0.887   0.459   9.207  1.2138 -0.4310  0.0602
 3492TIP3    H234672   0.982   0.549   9.131 -0.1670  0.2413 -0.9199
 3493TIP3   OH234673   0.629   4.512   7.154  0.2467  0.0831 -0.1086
 3493TIP3    H134674   0.576   4.582   7.116 -2.7305 -1.8758  0.1067
 3493TIP3    H234675   0.576   4.479   7.226  2.6942 -0.8015  1.3944
 3494TIP3   OH234676   7.071   5.544   7.916  0.8734 -0.0904 -0.8054
 3494TIP3    H134677   7.145   5.562   7.974 -1.0500  0.9222  1.4691
 3494TIP3    H234678   7.051   5.452   7.930  0.5833  0.0843 -0.0627
 3495TIP3   OH234679   2.876   6.182   8.793 -1.0756  0.0136  0.2267
 3495TIP3    H134680   2.824   6.239   8.850  0.7746  0.6213  1.3977
 3495TIP3    H234681   2.873   6.096   8.836 -0.3428  0.2836  0.8499
 3496TIP3   OH234682   2.740   4.434   7.910 -0.1261  0.3655 -0.0228
 3496TIP3    H134683   2.717   4.397   7.825 -1.2034  0.2267  0.3123
 3496TIP3    H234684   2.831   4.409   7.923 -0.5591 -1.4988 -0.1791
 3497TIP3   OH234685   4.190   6.534   7.390  0.0086  0.0987  0.0955
 3497TIP3    H134686   4.150   6.483   7.461 -0.8745 -0.8811 -1.0590
 3497TIP3    H234687   4.275   6.492   7.375  0.2026  0.3169  0.5827
 3498TIP3   OH234688   6.479   1.765   7.681 -0.4263  0.3517 -0.1186
 3498TIP3    H134689   6.543   1.737   7.616 -0.5175  0.0706 -0.0891
 3498TIP3    H234690   6.494   1.859   7.692 -0.0125  0.2822 -0.1046
 3499TIP3   OH234691   7.365   0.233   7.412 -0.2400 -0.1930  0.3617
 3499TIP3    H134692   7.402   0.180   7.342 -0.9394 -1.3408  0.8335
 3499TIP3    H234693   7.271   0.235   7.393 -0.5347 -1.0461  1.5807
 3500TIP3   OH234694   6.661   1.095   7.468  0.3992  0.0009 -0.3090
 3500TIP3    H134695   6.725   1.120   7.535 -0.2821 -0.7689  0.6457
 3500TIP3    H234696   6.711   1.041   7.406  0.5325 -1.2393  0.8398
 3501TIP3   OH234697   3.425   3.403   8.146 -0.4062  0.1933 -0.0553
 3501TIP3    H134698   3.371   3.386   8.224 -0.1533  0.4677  0.1849
 3501TIP3    H234699   3.505   3.443   8.181 -0.3525  0.4549 -0.4699
 3502TIP3   OH234700   1.462   7.173   8.989  0.4132 -0.1171 -0.0197
 3502TIP3    H134701   1.492   7.252   9.035 -0.0426  0.8585 -1.3137
 3502TIP3    H234702   1.377   7.153   9.028 -0.4203  1.2728 -1.0197
 3503TIP3   OH234703   5.665   5.861   7.699  0.3116 -0.3610 -0.2699
 3503TIP3    H134704   5.711   5.923   7.755 -0.7147  0.2281 -0.0525
 3503TIP3    H234705   5.609   5.915   7.644  0.4455 -1.0124 -1.0736
 3504TIP3   OH234706   7.486   6.736   9.486  0.1170 -0.4341  0.2757
 3504TIP3    H134707   7.553   6.692   9.538 -1.1306 -1.4258  1.0898
 3504TIP3    H234708   7.535   6.800   9.434  1.6935 -1.1641  0.7970
 3505TIP3   OH234709   0.961   5.567   9.674  0.3684 -0.1867 -0.4712
 3505TIP3    H134710   1.015   5.646   9.664  0.2584 -0.0024  0.3185
 3505TIP3    H234711   0.876   5.592   9.638 -0.2657  0.7317  1.4703
 3506TIP3   OH234712   0.503   7.645   8.791  0.0267  0.0395 -0.0589
 3506TIP3    H134713   0.558   7.627   8.714 -1.3132  1.9210 -1.5534
 3506TIP3    H234714   0.520   7.736   8.812 -0.5633 -0.1059  1.1086
 3507TIP3   OH234715   5.429   1.620   8.887 -0.1273  0.1318 -0.0173
 3507TIP3    H134716   5.515   1.661   8.879  0.1150 -0.5233 -0.9565
 3507TIP3    H234717   5.428   1.583   8.975  0.3008  0.6804  0.2270
 3508TIP3   OH234718   4.372   0.090   8.745 -0.4249  0.4298 -0.0923
 3508TIP3    H134719   4.285   0.127   8.758 -0.4383  0.1808  0.5697
 3508TIP3    H234720   4.393   0.049   8.829  0.3981  0.6310 -0.1973
 3509TIP3   OH234721   5.449   4.998   9.355 -0.3543 -0.0543  0.3219
 3509TIP3    H134722   5.537   5.023   9.329  0.2679 -0.8987  1.5390
 3509TIP3    H234723   5.412   5.078   9.394 -0.1249  0.2847 -0.1394
 3510TIP3   OH234724   1.349   2.105   8.444  0.1069  0.0191 -0.7334
 3510TIP3    H134725   1.371   2.025   8.493 -0.1518 -0.3843 -1.2567
 3510TIP3    H234726   1.341   2.173   8.510 -0.9496 -0.6678 -0.1232
 3511TIP3   OH234727   7.476   3.245   8.247  0.7160 -0.0542  0.2871
 3511TIP3    H134728   7.536   3.187   8.199  2.0918  0.5399  1.2154
 3511TIP3    H234729   7.490   3.223   8.339 -0.5207  0.1075  0.5328
 3512TIP3   OH234730   7.531   2.612   6.539 -0.3983 -0.4810  0.7817
 3512TIP3    H134731   7.468   2.602   6.611 -1.1739  0.4808  0.2571
 3512TIP3    H234732   7.478   2.604   6.460  0.0040  1.0186  0.3288
 3513TIP3   OH234733   3.030   1.350   7.868  0.0390  0.2123 -0.8002
 3513TIP3    H134734   2.996   1.269   7.830  1.1100 -1.2451  1.1861
 3513TIP3    H234735   2.964   1.375   7.933 -0.3798  1.0711 -1.5368
 3514TIP3   OH234736   1.896   2.111   7.013 -0.1850 -0.3186 -0.0455
 3514TIP3    H134737   1.932   2.080   6.931  1.8953 -1.8674  1.3658
 3514TIP3    H234738   1.875   2.031   7.062 -2.3878  0.5586  0.5606
 3515TIP3   OH234739   2.143   3.800   7.448 -0.3834 -0.3240 -0.0009
 3515TIP3    H134740   2.178   3.773   7.532  0.6213 -2.6549 -1.0768
 3515TIP3    H234741   2.048   3.791   7.457 -0.3550  0.3477  1.1294
 3516TIP3   OH234742   4.991   5.033   9.343  0.5588 -0.4548 -0.8493
 3516TIP3    H134743   4.997   4.939   9.326  1.5297 -0.7322  0.8350
 3516TIP3    H234744   4.901   5.046   9.372  0.5612 -0.9530 -0.6156
 3517TIP3   OH234745   3.199   5.515   7.981  0.3637  0.1760 -0.6047
 3517TIP3    H134746   3.278   5.464   7.997  1.1477  1.2806 -0.8399
 3517TIP3    H234747   3.128   5.462   8.018  0.9913 -1.5645 -1.7332
 3518TIP3   OH234748   6.786   0.909   7.321 -0.2198  0.6844  0.0192
 3518TIP3    H134749   6.856   0.937   7.262 -0.5995  0.9106 -0.3240
 3518TIP3    H234750   6.729   0.854   7.267  1.6501 -2.6327  1.1520
 3519TIP3   OH234751   7.400   2.645   7.008  0.0174 -0.6192 -0.3341
 3519TIP3    H134752   7.460   2.700   6.957  0.9901 -1.0226  0.3512
 3519TIP3    H234753   7.316   2.655   6.964 -0.0014  1.9160  0.1228
 3520TIP3   OH234754   3.749   1.940   9.699  0.0357  0.6702 -0.3311
 3520TIP3    H134755   3.713   1.961   9.785  0.4667 -0.3700  0.1187
 3520TIP3    H234756   3.798   2.018   9.674 -0.0271  0.9510  0.3953
 3521TIP3   OH234757   1.857   4.591   9.138 -0.3977  0.1160  0.1091
 3521TIP3    H134758   1.889   4.529   9.073  0.5232 -1.0091  1.5811
 3521TIP3    H234759   1.933   4.646   9.158 -0.5870  0.2556  0.4493
 3522TIP3   OH234760   6.289   7.015   8.766  0.1101 -0.1986  0.4605
 3522TIP3    H134761   6.337   7.029   8.685  1.1111  2.1088  1.3599
 3522TIP3    H234762   6.209   6.969   8.739  1.8945 -2.4986 -1.3244
 3523TIP3   OH234763   1.848   4.578   6.746  0.9602 -0.1140  0.1341
 3523TIP3    H134764   1.923   4.638   6.744  1.1735 -0.3825 -0.1093
 3523TIP3    H234765   1.887   4.491   6.740  0.6563 -0.2808  0.5885
 3524TIP3   OH234766   5.118   3.643   7.937  0.3921 -0.1282 -0.0924
 3524TIP3    H134767   5.031   3.650   7.898 -0.0985 -1.4114  0.7381
 3524TIP3    H234768   5.106   3.588   8.014  1.6041  1.2245  1.1114
 3525TIP3   OH234769   7.504   1.191   7.264 -0.2862  0.1586 -0.2236
 3525TIP3    H134770   7.587   1.186   7.310  0.5442 -0.0781 -1.6909
 3525TIP3    H234771   7.486   1.285   7.257 -0.5130  0.1961  0.6963
 3526TIP3   OH234772   2.982   1.100   7.745  0.5269 -0.8831  0.4778
 3526TIP3    H134773   2.963   1.033   7.678 -0.1473 -0.9019  0.6796
 3526TIP3    H234774   2.998   1.049   7.825 -0.2709 -0.7933  0.6968
 3527TIP3   OH234775   5.788   6.482   7.768  0.1285  0.1105  0.6542
 3527TIP3    H134776   5.803   6.570   7.734 -1.1261 -0.5822 -1.9867
 3527TIP3    H234777   5.693   6.471   7.767  0.1950 -0.9150  2.0571
 3528TIP3   OH234778   4.226   0.262   6.936  0.1821  0.1130 -0.1083
 3528TIP3    H134779   4.294   0.244   7.001 -1.4983 -1.0752  1.4468
 3528TIP3    H234780   4.260   0.334   6.884  3.3744 -1.5720 -0.6004
 3529TIP3   OH234781   5.108   0.215   7.040 -0.1675  0.2508  0.0498
 3529TIP3    H134782   5.035   0.225   6.979  0.0107 -1.4827 -0.5009
 3529TIP3    H234783   5.172   0.280   7.011  0.8039 -1.8475 -3.0477
 3530TIP3   OH234784   4.930   4.211   8.240  0.3797  0.3940 -0.1475
 3530TIP3    H134785   4.930   4.296   8.196 -0.4002 -0.7583 -2.5234
 3530TIP3    H234786   5.021   4.182   8.237  0.3388  0.3354 -1.0391
 3531TIP3   OH234787   7.097   6.469   7.221  0.2894  0.2355  0.5675
 3531TIP3    H134788   7.067   6.521   7.146 -0.5845  1.6922  1.8801
 3531TIP3    H234789   7.157   6.405   7.182 -0.1820  0.8929 -1.3852
 3532TIP3   OH234790   6.249   4.576   6.905 -0.7975 -0.0684 -0.0488
 3532TIP3    H134791   6.322   4.606   6.852  0.0496 -0.1190  1.0561
 3532TIP3    H234792   6.275   4.595   6.996 -1.3556 -1.6964  0.4989
 3533TIP3   OH234793   0.184   0.555   7.104 -0.4601 -0.7853  0.3656
 3533TIP3    H134794   0.230   0.604   7.036 -0.4248 -1.5239 -0.1584
 3533TIP3    H234795   0.240   0.562   7.181 -0.2978 -0.2822  0.2077
 3534TIP3   OH234796   3.103   1.595   9.030 -0.0237 -0.0057  0.3639
 3534TIP3    H134797   3.115   1.624   9.120 -3.6776 -3.2033  2.1364
 3534TIP3    H234798   3.039   1.656   8.994 -0.0065  0.1391  0.5756
 3535TIP3   OH234799   7.614   6.672   8.594 -0.0650 -0.1091  0.6229
 3535TIP3    H134800   7.567   6.720   8.526 -0.9043  1.7764  2.4533
 3535TIP3    H234801   7.547   6.625   8.642  0.6050 -2.0690 -0.2370
 3536TIP3   OH234802   0.131   7.032   8.787  0.2084  0.6086  0.3750
 3536TIP3    H134803   0.146   6.949   8.742 -0.8020  1.2076 -1.1547
 3536TIP3    H234804   0.140   7.098   8.720 -0.5037  1.6232  1.2375
 3537TIP3   OH234805   4.962   5.772   9.355  0.1723  0.7013 -0.2080
 3537TIP3    H134806   4.911   5.767   9.274 -0.3301 -1.1707  0.1848
 3537TIP3    H234807   5.047   5.734   9.332 -0.0444 -0.0313  0.1822
 3538TIP3   OH234808   6.533   0.280   8.945  0.9760 -0.0667 -0.1340
 3538TIP3    H134809   6.623   0.276   8.913  0.3675 -1.8460 -1.8440
 3538TIP3    H234810   6.492   0.349   8.892  0.5946 -1.3526 -1.5791
 3539TIP3   OH234811   0.439   6.994   8.823  0.3398 -0.4714  0.2715
 3539TIP3    H134812   0.411   7.059   8.758  0.3025 -2.1634 -1.4812
 3539TIP3    H234813   0.361   6.979   8.876 -0.6184 -1.3214 -1.2833
 3540TIP3   OH234814   1.347   1.446   7.547 -0.6528  0.3575  0.3579
 3540TIP3    H134815   1.317   1.383   7.482  1.9832 -0.0080 -0.6071
 3540TIP3    H234816   1.321   1.531   7.511 -0.6549  0.0625 -0.3546
 3541TIP3   OH234817   7.259   0.919   8.778 -0.0548 -0.1285  0.0377
 3541TIP3    H134818   7.251   1.014   8.773  0.4770  0.0791  2.2869
 3541TIP3    H234819   7.276   0.900   8.870  1.7877 -2.2749 -0.6466
 3542TIP3   OH234820   4.902   3.989   8.054  0.3315 -0.2279  0.2722
 3542TIP3    H134821   4.976   4.033   8.012 -2.6185  1.0680 -4.3146
 3542TIP3    H234822   4.855   4.059   8.098  0.1672 -0.4329  0.4212
 3543TIP3   OH234823   6.263   6.871   8.057 -0.2646  0.5742 -0.1770
 3543TIP3    H134824   6.175   6.850   8.089  0.0236  0.9157  0.8849
 3543TIP3    H234825   6.257   6.962   8.029 -0.5146  0.2779 -1.0918
 3544TIP3   OH234826   2.133   3.620   9.526  0.0753  0.1083  0.1273
 3544TIP3    H134827   2.115   3.526   9.519  0.3151  0.1401 -1.4536
 3544TIP3    H234828   2.173   3.631   9.612  0.2274 -1.2791  0.2531
 3545TIP3   OH234829   2.498   3.075   7.791  0.5644 -0.0839 -0.2288
 3545TIP3    H134830   2.476   3.020   7.866  0.7444 -0.3180 -0.3452
 3545TIP3    H234831   2.579   3.120   7.816  1.6935 -1.6087 -1.0073
 3546TIP3   OH234832   4.076   6.433   8.720 -0.1941  0.2798 -0.2772
 3546TIP3    H134833   4.113   6.519   8.700 -0.8044  0.3362 -1.2360
 3546TIP3    H234834   4.146   6.371   8.698  0.0240  0.4963 -0.1886
 3547TIP3   OH234835   0.088   6.091   6.820 -0.0227  0.4310 -0.0942
 3547TIP3    H134836   0.047   6.005   6.823  1.0126 -0.0826 -0.4579
 3547TIP3    H234837   0.179   6.074   6.795  0.6515  1.4677  1.5204
 3548TIP3   OH234838   5.261   4.539   9.143  0.2178 -0.3958  0.2671
 3548TIP3    H134839   5.274   4.606   9.210  2.0607  0.9088 -1.2888
 3548TIP3    H234840   5.337   4.547   9.085 -0.1201 -3.0219 -0.6984
 3549TIP3   OH234841   6.454   0.128   7.503  0.1941  0.8059 -0.2205
 3549TIP3    H134842   6.385   0.072   7.468  0.4267  0.7175 -0.5390
 3549TIP3    H234843   6.435   0.215   7.466  1.2547  0.4318 -1.7534
 3550TIP3   OH234844   7.199   0.591   8.781 -0.2611 -0.0478  0.4881
 3550TIP3    H134845   7.198   0.686   8.768  0.3080  0.3209  2.6876
 3550TIP3    H234846   7.288   0.572   8.810  0.0791 -1.5243 -1.3446
 3551TIP3   OH234847   2.107   6.416   9.184 -0.1538 -0.1516 -0.3831
 3551TIP3    H134848   2.089   6.507   9.208 -0.1552  0.2835 -1.9671
 3551TIP3    H234849   2.198   6.402   9.209 -0.0132  0.4244 -0.5638
 3552TIP3   OH234850   7.464   5.320   8.551 -0.1956 -0.1193  0.2032
 3552TIP3    H134851   7.442   5.411   8.567  2.2614  0.6093 -0.1812
 3552TIP3    H234852   7.559   5.316   8.561 -0.1183 -2.4126 -0.8540
 3553TIP3   OH234853   2.276   0.467   9.209 -0.1972 -0.7202  0.4086
 3553TIP3    H134854   2.206   0.525   9.240  0.1365  0.5715 -1.1196
 3553TIP3    H234855   2.325   0.444   9.288  0.5723  2.3245  0.9222
 3554TIP3   OH234856   7.169   5.756   8.274 -0.0056  0.1962  0.5323
 3554TIP3    H134857   7.190   5.848   8.257 -1.0916  0.3827  0.1660
 3554TIP3    H234858   7.086   5.759   8.322  0.5340 -0.5540  1.5437
 3555TIP3   OH234859   5.567   5.929   8.088  0.3383 -0.3710  0.1015
 3555TIP3    H134860   5.634   5.885   8.035  0.5695 -0.5736  0.5620
 3555TIP3    H234861   5.502   5.958   8.024 -0.4187 -2.3905 -0.1378
 3556TIP3   OH234862   3.813   1.425   8.793 -0.2741  0.4436  0.6827
 3556TIP3    H134863   3.728   1.465   8.777 -0.5792  0.1175  1.4587
 3556TIP3    H234864   3.845   1.467   8.872  1.2970  2.1685 -0.7575
 3557TIP3   OH234865   5.355   4.178   6.966  0.3967  0.6012  0.5304
 3557TIP3    H134866   5.368   4.233   6.889  1.3231 -0.4266 -0.0583
 3557TIP3    H234867   5.421   4.109   6.959 -0.3133 -0.2253  1.5999
 3558TIP3   OH234868   2.095   0.318   9.050  0.6869 -0.6051 -0.0449
 3558TIP3    H134869   2.131   0.329   8.962  2.4533 -1.7146  0.4749
 3558TIP3    H234870   2.151   0.373   9.105 -0.6582  0.4002  0.3709
 3559TIP3   OH234871   3.862   6.129   6.608 -0.4207  0.3178 -0.0359
 3559TIP3    H134872   3.898   6.216   6.588 -0.1261  0.3596  0.6529
 3559TIP3    H234873   3.937   6.070   6.606 -0.3353  0.3553  1.1017
 3560TIP3   OH234874   2.035   4.116   8.661  0.3829  0.0474  0.2571
 3560TIP3    H134875   2.068   4.102   8.573  0.2037 -0.7231  0.3107
 3560TIP3    H234876   2.107   4.093   8.719  0.5062  0.5672  0.3225
 3561TIP3   OH234877   0.168   2.508   8.878 -0.0268 -0.1622 -0.0722
 3561TIP3    H134878   0.097   2.517   8.816 -0.6742  0.5201  0.7432
 3561TIP3    H234879   0.247   2.530   8.828 -0.7718  2.7913 -0.0860
 3562TIP3   OH234880   7.084   2.480   7.259 -0.0552 -0.3834 -0.5570
 3562TIP3    H134881   7.064   2.546   7.325  0.0756 -0.8312 -0.0692
 3562TIP3    H234882   7.008   2.423   7.259  0.3840 -0.9790 -0.0599
 3563TIP3   OH234883   2.773   6.131   8.339  0.0602 -0.1629 -0.3705
 3563TIP3    H134884   2.794   6.215   8.296  0.2071  0.4486  0.8529
 3563TIP3    H234885   2.683   6.113   8.313 -0.0104  0.4321 -0.5673
 3564TIP3   OH234886   7.062   2.675   7.468 -0.7189 -0.3646  0.2943
 3564TIP3    H134887   7.125   2.738   7.503  0.7513 -1.7670  0.3198
 3564TIP3    H234888   6.977   2.704   7.501  0.1328  0.5895  1.7481
 3565TIP3   OH234889   0.698   6.384   9.336  0.2628 -0.1343  0.1574
 3565TIP3    H134890   0.630   6.355   9.397  0.0349 -0.3680 -0.2054
 3565TIP3    H234891   0.659   6.374   9.250 -0.4691  2.8233  0.0171
 3566TIP3   OH234892   5.959   6.783   8.962  0.0200  0.2366  0.5312
 3566TIP3    H134893   6.001   6.815   8.883  0.2804 -0.4281  0.3964
 3566TIP3    H234894   5.975   6.688   8.962 -0.7789  0.0884  0.8924
 3567TIP3   OH234895   2.811   4.724   8.579  0.2160  0.3005  0.2478
 3567TIP3    H134896   2.788   4.816   8.590 -0.0393  0.5424 -1.8071
 3567TIP3    H234897   2.896   4.715   8.622 -0.0035  1.3716  0.9266
 3568TIP3   OH234898   3.570   3.528   7.950  0.8785 -0.1439 -0.0012
 3568TIP3    H134899   3.502   3.486   8.002  0.5752  0.9227  0.4971
 3568TIP3    H234900   3.651   3.486   7.978  0.5659 -0.5343  0.3283
 3569TIP3   OH234901   3.662   1.206   7.568 -0.4547  0.3049  0.0925
 3569TIP3    H134902   3.634   1.141   7.503  0.7277  0.5212 -0.6554
 3569TIP3    H234903   3.697   1.278   7.516  2.1503 -0.2360  0.9634
 3570TIP3   OH234904   4.041   2.579   9.049 -0.5125  0.1719 -0.6335
 3570TIP3    H134905   4.133   2.570   9.072 -0.9827 -2.0631  0.5942
 3570TIP3    H234906   4.011   2.653   9.102 -0.1520 -1.1426  1.5288
 3571TIP3   OH234907   0.510   2.978   8.810  0.3378 -0.2953 -0.1204
 3571TIP3    H134908   0.534   2.885   8.801  0.0737 -0.5876  1.8812
 3571TIP3    H234909   0.572   3.024   8.754  2.3749 -1.4505  1.0736
 3572TIP3   OH234910   5.500   0.155   8.231 -0.5571 -0.3739  0.1016
 3572TIP3    H134911   5.419   0.154   8.283 -0.4305 -0.8661  0.2941
 3572TIP3    H234912   5.495   0.236   8.180 -0.6628  0.1500  0.9237
 3573TIP3   OH234913   3.472   7.630   8.119  0.0477  0.0238  0.0595
 3573TIP3    H134914   3.442   7.696   8.181  0.2721  0.9030 -0.7488
 3573TIP3    H234915   3.411   7.557   8.130 -2.2811  1.6425 -1.3292
 3574TIP3   OH234916   3.503   6.369   9.489  0.3993 -0.2638 -0.1381
 3574TIP3    H134917   3.420   6.391   9.532  0.5007  0.2495 -0.1975
 3574TIP3    H234918   3.478   6.322   9.410  0.1770 -0.3244 -0.0326
 3575TIP3   OH234919   7.373   4.350   7.442 -0.2946  0.5495  0.0962
 3575TIP3    H134920   7.359   4.309   7.527  0.3158  2.3241  1.1088
 3575TIP3    H234921   7.362   4.279   7.379 -3.6657 -0.2701  1.4087
 3576TIP3   OH234922   6.879   4.498   9.285  0.2618  0.3781 -0.1720
 3576TIP3    H134923   6.949   4.563   9.297  1.0024  0.3986 -3.5954
 3576TIP3    H234924   6.799   4.550   9.282  0.2862  0.5834  1.5901
 3577TIP3   OH234925   0.475   0.304   7.003 -0.1460  0.2363  0.7125
 3577TIP3    H134926   0.555   0.306   7.056  1.1157 -3.0648 -0.7809
 3577TIP3    H234927   0.414   0.250   7.053 -0.3493  0.2639  0.4982
 3578TIP3   OH234928   1.458   0.005   8.702  0.3823 -0.5639 -0.4643
 3578TIP3    H134929   1.399   0.022   8.629 -2.0807 -0.9875  1.2595
 3578TIP3    H234930   1.429   0.065   8.771  1.7099 -1.0935  0.6134
 3579TIP3   OH234931   4.904   7.316   7.978 -0.2363 -0.0126 -0.0505
 3579TIP3    H134932   4.891   7.316   7.883  0.6709 -1.3872 -0.2026
 3579TIP3    H234933   4.934   7.405   7.998 -0.1958  0.2198 -1.0793
 3580TIP3   OH234934   3.680   1.715   6.884 -0.3457  0.9568  0.3122
 3580TIP3    H134935   3.634   1.632   6.896  1.2651  0.3770  3.7292
 3580TIP3    H234936   3.619   1.781   6.917 -0.5733  0.8048  0.2015
 3581TIP3   OH234937   4.853   3.721   7.523 -0.1814 -0.1367 -0.2566
 3581TIP3    H134938   4.856   3.812   7.491  0.4606 -0.5683 -1.4743
 3581TIP3    H234939   4.942   3.688   7.512 -0.7124 -1.3510 -1.1955
 3582TIP3   OH234940   1.158   0.678   8.737  0.3219  0.1618  0.2734
 3582TIP3    H134941   1.063   0.679   8.727  0.2943  1.2910  0.5312
 3582TIP3    H234942   1.183   0.770   8.743  1.4926 -0.0945 -0.2749
 3583TIP3   OH234943   3.289   6.749   7.179 -0.3996 -0.6898 -0.4291
 3583TIP3    H134944   3.345   6.694   7.125 -0.8862 -1.0243 -0.6025
 3583TIP3    H234945   3.318   6.838   7.160  2.4864 -0.9208  2.1636
 3584TIP3   OH234946   1.637   0.168   8.175  0.4349 -0.4789 -0.3623
 3584TIP3    H134947   1.671   0.257   8.180 -1.5346  0.2785  0.9345
 3584TIP3    H234948   1.579   0.169   8.099  1.1517 -0.9388 -0.9168
 3585TIP3   OH234949   6.525   0.549   9.298 -0.1262 -0.1920 -0.0205
 3585TIP3    H134950   6.546   0.641   9.278 -0.6445  0.1645  0.9821
 3585TIP3    H234951   6.435   0.538   9.268  0.0310 -0.4635 -0.3989
 3586TIP3   OH234952   0.366   0.371   7.436  0.0426  0.1330  0.1848
 3586TIP3    H134953   0.279   0.334   7.451 -0.0806  0.4712  0.2956
 3586TIP3    H234954   0.411   0.362   7.520 -0.1802  0.7603  0.3697
 3587TIP3   OH234955   6.542   1.586   7.895 -0.0815 -0.3891 -0.0357
 3587TIP3    H134956   6.482   1.632   7.837 -1.6378 -0.9272  1.0741
 3587TIP3    H234957   6.622   1.638   7.893 -0.4156  0.1138 -1.9054
 3588TIP3   OH234958   5.739   0.652   8.441  0.8735  0.1201 -0.1849
 3588TIP3    H134959   5.753   0.746   8.430 -3.4071  0.9754 -0.3200
 3588TIP3    H234960   5.735   0.639   8.536 -1.0945  0.6978 -0.1442
 3589TIP3   OH234961   6.317   5.550   9.348 -0.1187 -0.0722  0.0938
 3589TIP3    H134962   6.250   5.484   9.330 -2.7702  2.5797 -0.6328
 3589TIP3    H234963   6.289   5.590   9.431  1.6357 -0.0775  0.7168
 3590TIP3   OH234964   1.374   4.596   6.854 -0.0873 -0.8259  0.4696
 3590TIP3    H134965   1.452   4.616   6.803 -0.1610 -0.3703  0.5366
 3590TIP3    H234966   1.407   4.556   6.934  0.1045 -0.1904  0.7116
 3591TIP3   OH234967   3.705   0.067   6.758 -0.1506 -0.1156 -0.2063
 3591TIP3    H134968   3.749  -0.015   6.780 -0.0560 -0.1023 -0.3476
 3591TIP3    H234969   3.613   0.043   6.750  0.0914 -0.5766 -2.0336
 3592TIP3   OH234970   0.683   5.103   8.398 -0.0786 -0.0300 -1.0161
 3592TIP3    H134971   0.658   5.159   8.472  1.0270 -2.4484  1.3594
 3592TIP3    H234972   0.752   5.151   8.353  1.4480  0.2481  1.4481
 3593TIP3   OH234973   4.551   7.406   7.584  0.0819  0.2821 -0.0805
 3593TIP3    H134974   4.501   7.467   7.530 -0.5511  0.8922  1.1622
 3593TIP3    H234975   4.525   7.427   7.674  1.5968 -0.2622  0.5095
 3594TIP3   OH234976   5.255   7.285   7.310 -0.2980 -0.2534  0.3691
 3594TIP3    H134977   5.278   7.222   7.241 -0.4172 -0.5965  0.6367
 3594TIP3    H234978   5.337   7.300   7.356 -0.5874 -1.5601  1.3914
 3595TIP3   OH234979   2.257   0.347   8.817  0.2620  0.8619  0.5276
 3595TIP3    H134980   2.338   0.399   8.816 -0.5146  2.1225 -0.6774
 3595TIP3    H234981   2.281   0.265   8.773  0.7105  1.5181 -0.4796
 3596TIP3   OH234982   2.116   7.182   7.571 -0.1336 -0.2430  0.1110
 3596TIP3    H134983   2.074   7.160   7.488 -1.4153 -0.0996  0.6928
 3596TIP3    H234984   2.183   7.115   7.583 -1.4241 -1.6023  0.0328
 3597TIP3   OH234985   0.945   5.052   8.556 -0.4975  0.0312  0.0329
 3597TIP3    H134986   0.937   5.020   8.466  2.7078 -2.4393  0.4463
 3597TIP3    H234987   1.019   5.113   8.553  0.0243 -0.5276  1.0516
 3598TIP3   OH234988   1.252   6.780   7.502  0.1878  0.2420  0.1205
 3598TIP3    H134989   1.167   6.776   7.547 -0.5074  2.3783 -0.8607
 3598TIP3    H234990   1.298   6.853   7.543  0.7155  0.3968 -0.7069
 3599TIP3   OH234991   0.181   1.737   7.474 -0.2022 -0.2265 -0.1431
 3599TIP3    H134992   0.095   1.715   7.438 -0.6278 -1.2365  1.4248
 3599TIP3    H234993   0.239   1.667   7.444  0.0559  0.3200 -0.9850
 3600TIP3   OH234994   1.455   3.422   7.948 -0.1343 -0.3239 -0.6536
 3600TIP3    H134995   1.422   3.350   8.001 -0.2845  0.0211 -0.2727
 3600TIP3    H234996   1.526   3.384   7.896  0.5698 -0.4857  0.3993
 3601TIP3   OH234997   4.535   6.791   7.053 -0.1778  0.1216  0.4238
 3601TIP3    H134998   4.577   6.740   7.122 -0.4627 -0.4418  0.1857
 3601TIP3    H234999   4.442   6.794   7.078 -0.1892  0.3992  0.3568
 3602TIP3   OH235000   3.708   6.971   8.454  0.2658  0.0677 -0.4531
 3602TIP3    H135001   3.768   7.006   8.520  0.0599 -1.3635  0.5260
 3602TIP3    H235002   3.750   6.991   8.370  1.0761  0.9279  0.1424
 3603TIP3   OH235003   1.598   6.296   7.176 -0.0516 -0.1035 -0.3222
 3603TIP3    H135004   1.623   6.323   7.087  0.9873  0.6751  0.1793
 3603TIP3    H235005   1.619   6.203   7.180 -1.9387 -0.6335 -1.4953
 3604TIP3   OH235006   6.528   4.600   7.743 -0.2829  0.4188  0.4637
 3604TIP3    H135007   6.561   4.640   7.663  1.0929 -0.8558  0.3404
 3604TIP3    H235008   6.454   4.546   7.714  0.8727 -0.8949 -0.1808
 3605TIP3   OH235009   2.687   6.960   7.244 -0.2550 -0.0024  0.2375
 3605TIP3    H135010   2.740   7.004   7.178  0.5839 -2.2167 -0.6171
 3605TIP3    H235011   2.747   6.900   7.288 -1.2174  0.1155  1.8210
 3606TIP3   OH235012   7.029   1.810   7.969 -0.0984 -0.0933  0.1752
 3606TIP3    H135013   6.967   1.861   8.021 -0.3218 -0.2386  0.0546
 3606TIP3    H235014   7.084   1.875   7.925  0.6431  0.0215  1.2484
 3607TIP3   OH235015   6.013   0.696   8.647  0.3125 -0.7077  0.7682
 3607TIP3    H135016   6.002   0.634   8.719 -0.4362  0.6569  1.8772
 3607TIP3    H235017   6.096   0.670   8.607 -0.8436 -3.6057 -0.0476
 3608TIP3   OH235018   5.274   6.543   8.654 -0.2804 -0.2096 -0.0670
 3608TIP3    H135019   5.220   6.536   8.733 -0.2706  0.7087  0.0323
 3608TIP3    H235020   5.248   6.627   8.615  0.2331 -0.3197 -0.6536
 3609TIP3   OH235021   2.189   1.085   8.521  0.0985  0.4356  0.1481
 3609TIP3    H135022   2.098   1.107   8.541  0.4117  0.3994  1.7088
 3609TIP3    H235023   2.239   1.162   8.548  0.6701 -0.1202  0.7058
 3610TIP3   OH235024   3.931   0.056   7.481  0.1969 -0.5933  0.1238
 3610TIP3    H135025   3.899   0.137   7.522  1.0758 -0.5736  0.8175
 3610TIP3    H235026   3.896   0.058   7.392 -2.5110 -1.0476  1.0916
 3611TIP3   OH235027   6.187   3.963   7.477  0.4162  0.4382 -0.0715
 3611TIP3    H135028   6.262   3.906   7.459 -0.5096 -0.7819 -0.1756
 3611TIP3    H235029   6.223   4.031   7.535  1.7105  0.1856 -0.5268
 3612TIP3   OH235030   6.174   2.125   9.196  0.0748  0.5585 -0.3067
 3612TIP3    H135031   6.218   2.071   9.262  0.7522 -0.6886 -1.7158
 3612TIP3    H235032   6.237   2.195   9.176  0.2117  0.4525 -0.2430
 3613TIP3   OH235033   4.905   0.930   8.872  0.3898 -0.3531  0.0719
 3613TIP3    H135034   4.847   0.961   8.803  1.8607 -2.1653 -2.1349
 3613TIP3    H235035   4.975   0.996   8.876 -0.1359  0.1872  0.4449
 3614TIP3   OH235036   4.126   2.638   7.017  0.1603  0.1201 -0.5352
 3614TIP3    H135037   4.195   2.587   7.059 -0.1905 -0.1532 -0.2769
 3614TIP3    H235038   4.068   2.572   6.978  1.9052  0.3626 -3.9045
 3615TIP3   OH235039   2.232   5.492   8.851 -0.4261  0.5703 -0.2256
 3615TIP3    H135040   2.185   5.449   8.780  1.6073  0.0520 -1.3356
 3615TIP3    H235041   2.315   5.445   8.856  0.1149  1.6339  1.4427
 3616TIP3   OH235042   4.680   1.815   8.173  0.8819  0.6036 -0.4362
 3616TIP3    H135043   4.723   1.824   8.257 -1.3992  1.0312  0.7623
 3616TIP3    H235044   4.706   1.728   8.141  1.7279  0.4225  0.7042
 3617TIP3   OH235045   3.214   6.394   7.064 -0.0190 -0.5036  0.3431
 3617TIP3    H135046   3.265   6.431   6.992 -1.9031  1.2246 -0.1680
 3617TIP3    H235047   3.128   6.434   7.057 -0.5726 -1.0093  3.0120
 3618TIP3   OH235048   0.694   7.003   8.972 -0.1192 -0.5499  0.3183
 3618TIP3    H135049   0.740   6.959   8.901  0.1500 -1.8584  1.2481
 3618TIP3    H235050   0.602   7.001   8.946  0.2883  2.4511 -1.7439
 3619TIP3   OH235051   7.176   0.351   7.721  0.3733  0.2891  0.2578
 3619TIP3    H135052   7.175   0.430   7.665 -0.3427  0.5136  0.5768
 3619TIP3    H235053   7.248   0.299   7.686 -0.5318  0.0577 -1.4106
 3620TIP3   OH235054   5.883   5.861   8.860  0.0121  0.7214 -0.4487
 3620TIP3    H135055   5.862   5.768   8.868  0.6775  0.5448 -0.6596
 3620TIP3    H235056   5.970   5.869   8.900  1.1343  0.7452 -2.7184
 3621TIP3   OH235057   7.314   6.327   9.356  0.2441  0.3991 -0.0643
 3621TIP3    H135058   7.315   6.422   9.345  1.4377  0.4047 -0.0690
 3621TIP3    H235059   7.361   6.294   9.280  1.7087 -0.0468  0.9951
 3622TIP3   OH235060   5.660   7.021   7.372  0.0848 -0.2142 -0.6766
 3622TIP3    H135061   5.598   7.011   7.299 -0.7305  1.3456 -0.2574
 3622TIP3    H235062   5.632   6.956   7.437 -0.9229  0.2480 -0.6332
 3623TIP3   OH235063   3.760   0.433   7.980 -0.9087 -0.4669 -0.5585
 3623TIP3    H135064   3.758   0.402   8.071  1.4543 -1.3551 -0.7374
 3623TIP3    H235065   3.706   0.371   7.932  0.2263 -1.7819 -0.2002
 3624TIP3   OH235066   6.214   5.027   9.276  0.1194 -0.5632 -0.0440
 3624TIP3    H135067   6.262   5.024   9.194  0.4490  1.3697  0.0347
 3624TIP3    H235068   6.194   4.935   9.296  0.9604 -1.1416 -1.7127
 3625TIP3   OH235069   0.376   7.408   8.187 -0.6339 -0.8453 -0.1162
 3625TIP3    H135070   0.296   7.412   8.135 -1.0662 -3.7162  0.1630
 3625TIP3    H235071   0.438   7.359   8.133  0.6505  0.4369  0.0993
 3626TIP3   OH235072   2.165   5.682   6.707 -0.8785  0.0446  0.4353
 3626TIP3    H135073   2.176   5.758   6.650 -0.6783 -0.3719 -0.0839
 3626TIP3    H235074   2.130   5.718   6.788 -0.8613  0.6821  0.1628
 3627TIP3   OH235075   0.547   0.982   8.997  0.4161  0.6344 -0.4016
 3627TIP3    H135076   0.588   1.065   8.975  0.0867  1.4321  1.8083
 3627TIP3    H235077   0.514   0.994   9.086  1.9560 -2.4649  0.7077
 3628TIP3   OH235078   2.201   0.297   8.399 -0.4094 -0.3855 -0.3382
 3628TIP3    H135079   2.178   0.223   8.343 -2.3552  0.4707 -0.7759
 3628TIP3    H235080   2.160   0.276   8.483  0.7440 -0.7011  0.1671
 3629TIP3   OH235081   2.647   4.113   7.147  0.0509 -0.5164 -0.3738
 3629TIP3    H135082   2.645   4.026   7.106  1.1543 -1.0235  0.5642
 3629TIP3    H235083   2.663   4.173   7.075  0.6238 -1.2431 -0.8707
 3630TIP3   OH235084   0.748   5.670   9.121 -0.4729  0.1286 -0.3027
 3630TIP3    H135085   0.828   5.642   9.166  0.6432  0.1434 -2.1723
 3630TIP3    H235086   0.731   5.758   9.157 -0.3338 -0.3346  0.9540
 3631TIP3   OH235087   2.309   3.282   7.115 -0.1688 -0.6649 -0.3543
 3631TIP3    H135088   2.367   3.295   7.041 -0.2707 -0.7236 -0.4461
 3631TIP3    H235089   2.226   3.321   7.088  0.1811  0.5397  0.2618
 3632TIP3   OH235090   5.625   0.674   7.372  0.5210  0.0741 -0.0505
 3632TIP3    H135091   5.581   0.754   7.344  0.8393 -0.0915 -1.0643
 3632TIP3    H235092   5.717   0.688   7.349  0.8757  0.0909  1.3086
 3633TIP3   OH235093   3.428   4.133   7.658  1.0931 -0.2310  0.2309
 3633TIP3    H135094   3.373   4.100   7.587  0.0001  0.6321  0.6537
 3633TIP3    H235095   3.392   4.093   7.737 -0.7766  2.4769  0.8566
 3634TIP3   OH235096   1.602   2.594   9.585 -0.1820 -0.0855  0.3860
 3634TIP3    H135097   1.563   2.595   9.672 -1.0724 -2.6094  0.1205
 3634TIP3    H235098   1.544   2.647   9.531 -0.1683  0.6932  1.1267
 3635TIP3   OH235099   6.485   3.386   7.748 -0.2995  0.0622  0.0160
 3635TIP3    H135100   6.404   3.436   7.761 -1.1437  0.3536 -4.7289
 3635TIP3    H235101   6.457   3.302   7.712  1.4244 -2.1133  3.1668
 3636TIP3   OH235102   6.051   0.966   8.687  0.3193 -0.4176 -0.0980
 3636TIP3    H135103   6.022   0.880   8.656 -1.0171 -0.1628  0.3664
 3636TIP3    H235104   6.002   0.980   8.768 -1.0502  1.6472 -1.2029
 3637TIP3   OH235105   7.233   1.849   8.968  0.2090 -0.7111 -0.0074
 3637TIP3    H135106   7.317   1.811   8.942  0.4525 -0.3183  0.1964
 3637TIP3    H235107   7.230   1.934   8.925 -0.2957 -0.9161 -0.3876
 3638TIP3   OH235108   2.901   7.557   7.544 -0.6162  0.5714  0.0987
 3638TIP3    H135109   2.879   7.603   7.463  0.1122 -0.9472 -1.0002
 3638TIP3    H235110   2.900   7.464   7.521  0.0775  0.1227  1.7045
 3639TIP3   OH235111   6.461   3.096   8.450 -0.3842 -0.7607  0.2025
 3639TIP3    H135112   6.553   3.121   8.445 -0.6465  0.1219 -0.5464
 3639TIP3    H235113   6.432   3.092   8.359 -1.6155  1.1022  0.4625
 3640TIP3   OH235114   3.479   0.237   8.883 -0.7740  0.7292 -0.1156
 3640TIP3    H135115   3.460   0.161   8.828  0.8162 -0.8603  1.4026
 3640TIP3    H235116   3.498   0.307   8.821 -0.2233 -0.6624 -1.5974
 3641TIP3   OH235117   5.325   5.488   8.572 -0.3829 -0.2092  0.2198
 3641TIP3    H135118   5.340   5.545   8.647  1.1639  0.2344 -0.3853
 3641TIP3    H235119   5.300   5.404   8.611 -3.3510  0.9328  1.1242
 3642TIP3   OH235120   7.422   2.614   7.550 -0.0504  0.1241 -0.8006
 3642TIP3    H135121   7.358   2.674   7.589 -0.5968 -1.1319  0.3180
 3642TIP3    H235122   7.374   2.569   7.480 -1.1221 -2.3052  1.3553
 3643TIP3   OH235123   7.241   4.276   8.565  0.4458 -0.0423 -0.6579
 3643TIP3    H135124   7.190   4.356   8.574 -0.3918 -0.6515  0.2811
 3643TIP3    H235125   7.296   4.274   8.644  1.2381  0.1244 -1.1930
 3644TIP3   OH235126   5.951   3.319   7.168  0.5347  0.2462 -0.4991
 3644TIP3    H135127   5.873   3.265   7.158 -0.0953  1.1132 -0.3448
 3644TIP3    H235128   5.919   3.403   7.201  1.5008  0.6939 -0.6484
 3645TIP3   OH235129   2.854   2.045   8.084  0.7213  0.3443 -0.0438
 3645TIP3    H135130   2.815   2.023   8.169  1.0063  0.0246  0.0071
 3645TIP3    H235131   2.869   1.960   8.042 -0.7863  0.5250 -1.0394
 3646TIP3   OH235132   5.534   5.708   6.892  0.3142 -0.1758 -0.0147
 3646TIP3    H135133   5.561   5.621   6.863  1.4873  0.6799 -1.6204
 3646TIP3    H235134   5.524   5.759   6.811  0.6610  1.4663  0.9294
 3647TIP3   OH235135   2.718   3.753   8.158  0.1355 -0.1345 -0.4986
 3647TIP3    H135136   2.625   3.742   8.142  0.2151 -0.7455 -0.5557
 3647TIP3    H235137   2.737   3.843   8.131 -0.4559  0.0274 -0.3784
 3648TIP3   OH235138   1.559   3.455   8.307 -0.5756 -0.5503  0.4043
 3648TIP3    H135139   1.602   3.499   8.235 -0.5076 -1.8018 -0.3575
 3648TIP3    H235140   1.492   3.517   8.337  0.6066  0.7174  0.4869
 3649TIP3   OH235141   5.767   2.812   8.388 -0.1495  0.0755 -0.4892
 3649TIP3    H135142   5.697   2.776   8.442 -1.6321 -0.7688 -2.7897
 3649TIP3    H235143   5.847   2.772   8.422 -0.9690 -0.2328  1.1679
 3650TIP3   OH235144   7.383   0.625   7.189 -0.4064  0.0040 -0.1007
 3650TIP3    H135145   7.419   0.562   7.251 -0.6106 -0.7815 -0.7595
 3650TIP3    H235146   7.385   0.708   7.236  2.5237  0.0719 -0.2077
 3651TIP3   OH235147   3.876   6.724   7.985 -0.1369 -0.1354 -0.3784
 3651TIP3    H135148   3.965   6.700   8.013 -0.8187  0.3588  2.6346
 3651TIP3    H235149   3.888   6.800   7.928  1.4307 -0.7900 -0.9548
 3652TIP3   OH235150   0.278   6.582   8.436  0.3717  0.2510 -0.5357
 3652TIP3    H135151   0.315   6.617   8.517  1.2566 -0.5341 -0.5819
 3652TIP3    H235152   0.298   6.649   8.370  0.9271  0.2528 -0.3757
 3653TIP3   OH235153   6.504   2.743   9.079  0.6714 -0.1526 -0.0829
 3653TIP3    H135154   6.433   2.720   9.139  1.3376 -0.0178  0.7713
 3653TIP3    H235155   6.465   2.805   9.018 -0.9536 -2.7969 -1.9182
 3654TIP3   OH235156   0.123   3.296   8.441 -0.3267  0.0178  0.6611
 3654TIP3    H135157   0.075   3.379   8.447 -0.0136  0.2910 -0.3786
 3654TIP3    H235158   0.106   3.252   8.524 -1.5399  0.5628  0.7230
 3655TIP3   OH235159   5.473   0.424   7.415 -0.2564 -0.0027  0.3676
 3655TIP3    H135160   5.551   0.382   7.451 -0.1779  1.2121  1.6900
 3655TIP3    H235161   5.493   0.517   7.414 -2.0059  0.4379  1.6250
 3656TIP3   OH235162   5.697   0.419   8.311  0.3903  0.7839  0.2799
 3656TIP3    H135163   5.645   0.363   8.368 -1.5550  1.7327 -0.4598
 3656TIP3    H235164   5.693   0.505   8.352  1.1003  0.9394  0.0267
 3657TIP3   OH235165   6.478   3.307   8.036  0.0597  0.3932  0.8648
 3657TIP3    H135166   6.494   3.351   7.952 -0.7642 -1.0889 -0.1190
 3657TIP3    H235167   6.409   3.359   8.077  0.4267  1.1054  0.6009
 3658TIP3   OH235168   5.988   1.335   8.069  0.2970 -0.0530 -0.3435
 3658TIP3    H135169   6.010   1.276   7.997  1.2361  1.7290 -1.5834
 3658TIP3    H235170   5.895   1.353   8.059  0.2595 -0.4027 -0.6377
 3659TIP3   OH235171   0.537   3.654   8.978 -0.0988 -0.4351  0.3634
 3659TIP3    H135172   0.502   3.699   9.055  0.3663  0.1196  0.2505
 3659TIP3    H235173   0.626   3.687   8.969  0.2964 -1.4748  0.3541
 3660TIP3   OH235174   1.268   6.720   8.264  0.0242 -0.4885  0.1647
 3660TIP3    H135175   1.197   6.668   8.227  0.2662  0.5194 -1.8739
 3660TIP3    H235176   1.346   6.690   8.216  0.3006  1.0888 -0.4336
 3661TIP3   OH235177   7.641   1.910   8.495 -0.7922 -0.0393  0.7539
 3661TIP3    H135178   7.710   1.849   8.469 -0.5854  0.1694  0.8140
 3661TIP3    H235179   7.582   1.857   8.550 -0.4743 -0.1191  1.0229
 3662TIP3   OH235180   4.305   3.963   7.737  0.6610  0.9082 -0.3474
 3662TIP3    H135181   4.288   3.878   7.778  0.4451  1.5459  0.9559
 3662TIP3    H235182   4.312   3.945   7.644  2.1896 -0.7878  0.0336
 3663TIP3   OH235183   3.507   5.435   7.007  0.1471 -0.3545 -0.2173
 3663TIP3    H135184   3.473   5.378   7.076 -0.7099  0.5193  0.1054
 3663TIP3    H235185   3.518   5.377   6.931 -1.3606 -0.8339 -0.1050
 3664TIP3   OH235186   4.868   3.903   7.728  0.0286  0.0859 -0.0682
 3664TIP3    H135187   4.960   3.923   7.711 -0.0822  0.1262 -0.6501
 3664TIP3    H235188   4.847   3.832   7.668 -1.0356  1.8795 -1.9776
 3665TIP3   OH235189   1.207   1.398   9.371  0.0604  0.5213 -0.0442
 3665TIP3    H135190   1.134   1.336   9.377  0.3967  0.1198 -0.0175
 3665TIP3    H235191   1.170   1.482   9.398 -0.1750  0.1449  0.8355
 3666TIP3   OH235192   2.766   3.082   8.981 -0.0619 -0.0683 -0.3487
 3666TIP3    H135193   2.688   3.026   8.985  0.3152 -0.5449  0.9184
 3666TIP3    H235194   2.824   3.037   8.919  1.0441 -2.2494  2.0684
 3667TIP3   OH235195   7.353   3.223   9.065  0.0309 -0.5471 -0.1077
 3667TIP3    H135196   7.397   3.268   8.994 -0.3351 -0.0829 -0.0481
 3667TIP3    H235197   7.347   3.132   9.036  1.5372 -0.7514  0.1339
 3668TIP3   OH235198   4.775   5.689   8.267 -0.5686  0.3476  0.4381
 3668TIP3    H135199   4.690   5.690   8.224 -0.3618  1.4584  0.0200
 3668TIP3    H235200   4.755   5.676   8.359 -1.2768  1.4774  0.4688
 3669TIP3   OH235201   0.223   1.283   8.971 -0.5112  0.2508 -0.5936
 3669TIP3    H135202   0.136   1.312   8.943 -1.1451 -0.1242  0.8671
 3669TIP3    H235203   0.258   1.356   9.022  0.5584  0.8638 -2.1324
 3670TIP3   OH235204   3.341   4.438   7.637  0.5310 -0.6292  0.2308
 3670TIP3    H135205   3.291   4.359   7.652  0.1100 -0.5118 -0.4994
 3670TIP3    H235206   3.374   4.429   7.547 -0.2208  0.3824 -0.1750
 3671TIP3   OH235207   2.707   1.642   8.412 -0.3541  0.0832 -0.0032
 3671TIP3    H135208   2.785   1.667   8.461  1.1771 -0.8535 -1.8419
 3671TIP3    H235209   2.640   1.627   8.479  1.5701 -0.9793  1.7743
 3672TIP3   OH235210   6.521   2.930   7.937 -0.1338 -0.2232 -0.2182
 3672TIP3    H135211   6.599   2.984   7.951  1.0973 -2.0537  0.3202
 3672TIP3    H235212   6.525   2.907   7.844 -1.5368  1.8251 -0.8505
 3673TIP3   OH235213   0.715   7.322   7.844 -0.0409  0.0303 -0.0160
 3673TIP3    H135214   0.715   7.346   7.752  1.2340 -0.5481 -0.1863
 3673TIP3    H235215   0.736   7.228   7.845  0.8773  0.2192  0.8796
 3674TIP3   OH235216   1.084   6.439   8.633  0.7029  0.3035 -0.6656
 3674TIP3    H135217   1.007   6.473   8.587  0.8024  0.2745 -0.8560
 3674TIP3    H235218   1.139   6.517   8.649 -0.1528  0.6013  1.0244
 3675TIP3   OH235219   6.955   4.073   8.231  0.1947 -0.4365 -0.2457
 3675TIP3    H135220   7.025   4.049   8.292 -0.2473 -0.0666  0.4198
 3675TIP3    H235221   6.894   4.000   8.234  0.8404 -1.0371 -1.2894
 3676TIP3   OH235222   2.052   0.145   9.491  0.1344 -0.2504  0.3319
 3676TIP3    H135223   2.011   0.228   9.469  0.3928 -0.5617 -1.4858
 3676TIP3    H235224   2.145   0.165   9.499 -0.0826  0.1081  2.6383
 3677TIP3   OH235225   1.785   0.758   8.771  0.1384 -0.1185  0.4291
 3677TIP3    H135226   1.715   0.719   8.719 -0.3989  0.6056  0.6011
 3677TIP3    H235227   1.827   0.821   8.713 -0.4844  0.7165  0.8722
 3678TIP3   OH235228   4.025   3.396   7.710  0.2291 -0.1956  0.3364
 3678TIP3    H135229   4.061   3.484   7.724 -0.9125  0.3158  0.1672
 3678TIP3    H235230   3.980   3.402   7.625  2.3188 -1.6830 -0.9681
 3679TIP3   OH235231   2.171   0.740   8.889 -0.3083 -0.9030 -0.2006
 3679TIP3    H135232   2.165   0.756   8.795 -0.1491 -3.7066 -0.7801
 3679TIP3    H235233   2.081   0.744   8.921 -0.2968  0.7640 -0.2741
 3680TIP3   OH235234   1.683   5.164   7.139  0.0135  0.3522  0.8092
 3680TIP3    H135235   1.715   5.077   7.160 -1.0132  0.0583  1.1920
 3680TIP3    H235236   1.747   5.199   7.077 -0.3685 -1.2647 -0.5695
 3681TIP3   OH235237   0.805   7.155   9.174  0.4898  0.4448 -0.0666
 3681TIP3    H135238   0.764   7.114   9.098  0.1230  0.1300  0.2976
 3681TIP3    H235239   0.890   7.185   9.142  1.0769 -1.2386 -0.1672
 3682TIP3   OH235240   2.917   3.583   8.303 -0.3559 -0.0736 -0.1023
 3682TIP3    H135241   2.878   3.510   8.255 -0.8635  0.0152  0.1617
 3682TIP3    H235242   2.860   3.657   8.283 -0.4883 -0.0028  0.5084
 3683TIP3   OH235243   2.151   5.172   8.772  0.1887  0.0336  0.0335
 3683TIP3    H135244   2.091   5.236   8.810 -1.4503 -0.7667 -1.1094
 3683TIP3    H235245   2.108   5.143   8.692  1.3743 -1.7116 -0.0306
 3684TIP3   OH235246   6.443   4.177   8.688 -0.3985  0.4778 -0.1123
 3684TIP3    H135247   6.412   4.200   8.600 -2.3431 -0.6052  0.2354
 3684TIP3    H235248   6.433   4.082   8.693 -1.1221  0.6134  1.5604
 3685TIP3   OH235249   4.035   2.663   9.537 -0.1714  0.1567 -0.7156
 3685TIP3    H135250   4.066   2.668   9.446 -1.3489 -1.0385 -1.2021
 3685TIP3    H235251   4.035   2.754   9.567 -0.1199  0.6070 -2.0330
 3686TIP3   OH235252   2.499   6.926   8.632  0.1246  0.1140  0.1134
 3686TIP3    H135253   2.412   6.899   8.661 -0.4490  2.1167  0.3684
 3686TIP3    H235254   2.542   6.958   8.711  0.4943  0.6295 -0.2882
 3687TIP3   OH235255   4.638   3.959   7.914 -0.5399  0.2097 -0.2492
 3687TIP3    H135256   4.714   3.941   7.860 -1.4022  1.4604 -1.9632
 3687TIP3    H235257   4.668   4.023   7.978  0.0759 -0.0010 -0.3221
 3688TIP3   OH235258   2.061   5.321   7.979  0.3944 -0.0740 -0.3008
 3688TIP3    H135259   2.099   5.235   7.963  0.6169  0.0930 -0.6775
 3688TIP3    H235260   1.984   5.324   7.922  0.1232 -0.2037  0.0587
 3689TIP3   OH235261   1.375   0.068   8.978 -0.0329  0.6273 -0.6760
 3689TIP3    H135262   1.377  -0.011   9.031  1.2888  0.0295 -1.5746
 3689TIP3    H235263   1.348   0.137   9.039 -0.2587 -0.3318  0.3462
 3690TIP3   OH235264   1.453   4.003   9.074 -0.0257  0.1306  0.0255
 3690TIP3    H135265   1.374   3.991   9.128 -1.0242  0.9869 -1.1777
 3690TIP3    H235266   1.452   4.096   9.052  1.9287  0.3804  0.8243
 3691TIP3   OH235267   0.783   2.130   7.016  0.8173  0.1297  0.1571
 3691TIP3    H135268   0.843   2.069   7.058  1.7651  1.6749  1.1646
 3691TIP3    H235269   0.835   2.169   6.946  0.5096  0.3906  0.0754
 3692TIP3   OH235270   6.632   7.444   6.835  0.4754  0.1789 -0.2496
 3692TIP3    H135271   6.581   7.378   6.882  0.2426  0.4219 -0.1553
 3692TIP3    H235272   6.608   7.433   6.743  0.7985 -0.1818 -0.2934
 3693TIP3   OH235273   6.713   4.193   7.578 -0.4231 -0.6246 -0.0336
 3693TIP3    H135274   6.714   4.215   7.485  0.1898 -0.4628  0.0066
 3693TIP3    H235275   6.639   4.133   7.588 -0.6192 -0.4790 -0.5828
 3694TIP3   OH235276   0.686   1.969   8.308 -0.1141  0.4807  0.4392
 3694TIP3    H135277   0.727   1.882   8.318 -2.1261 -0.4534  1.0263
 3694TIP3    H235278   0.603   1.951   8.265  1.1787  2.6379 -3.4245
 3695TIP3   OH235279   2.194   4.491   7.319  0.5292 -0.0913  0.0154
 3695TIP3    H135280   2.193   4.586   7.315  2.4465 -0.0585 -2.2407
 3695TIP3    H235281   2.181   4.463   7.228  2.2430 -1.8751  0.2506
 3696TIP3   OH235282   6.532   0.292   7.213  0.5518  0.5259  0.3082
 3696TIP3    H135283   6.453   0.267   7.164  0.9955 -1.4592  0.4903
 3696TIP3    H235284   6.506   0.368   7.264 -1.0225  0.3640 -0.2025
 3697TIP3   OH235285   3.696   4.239   9.061  0.4105  0.3223  0.0249
 3697TIP3    H135286   3.723   4.156   9.098 -2.1669 -0.9336 -0.6750
 3697TIP3    H235287   3.605   4.251   9.091  0.8770  3.2387  0.6591
 3698TIP3   OH235288   2.915   4.672   9.544 -0.4141 -0.3319  0.0253
 3698TIP3    H135289   2.960   4.719   9.474 -1.8856  3.1284  1.1810
 3698TIP3    H235290   2.955   4.705   9.625 -1.0588 -1.6356  0.9132
 3699TIP3   OH235291   3.116   7.371   7.224 -0.0030 -0.2976  0.0999
 3699TIP3    H135292   3.108   7.467   7.224 -1.6646 -0.3950 -0.3333
 3699TIP3    H235293   3.135   7.349   7.133 -0.2946 -0.4133  0.0664
 3700TIP3   OH235294   4.754   2.140   8.534  0.2241  0.0266 -0.5658
 3700TIP3    H135295   4.807   2.122   8.456  1.3234  0.9512 -0.0590
 3700TIP3    H235296   4.810   2.193   8.590 -0.9610  0.3582  0.3615
 3701TIP3   OH235297   6.625   4.677   8.973  0.4493 -0.1629  0.0801
 3701TIP3    H135298   6.718   4.694   8.953  0.6987  0.4102  1.6018
 3701TIP3    H235299   6.598   4.753   9.025 -0.5142 -0.9541  0.7566
 3702TIP3   OH235300   3.125   0.106   8.957  0.1138  0.6733 -0.0558
 3702TIP3    H135301   3.149   0.162   8.882  0.3737 -0.8713 -1.1715
 3702TIP3    H235302   3.097   0.168   9.025 -3.2557  2.0762 -2.4542
 3703TIP3   OH235303   0.368   0.911   7.097  0.1073  0.2480 -0.1133
 3703TIP3    H135304   0.338   0.966   7.024  0.8494 -1.3621 -1.6986
 3703TIP3    H235305   0.365   0.822   7.062 -0.8656 -0.7553  2.3041
 3704TIP3   OH235306   2.889   6.993   7.695 -0.1269  0.1952  0.3287
 3704TIP3    H135307   2.805   6.950   7.682  0.0739 -0.6317  1.6009
 3704TIP3    H235308   2.898   7.001   7.790  1.7939 -0.8706  0.2915
 3705TIP3   OH235309   3.547   1.011   9.410  0.1776 -0.3125 -0.3669
 3705TIP3    H135310   3.506   1.097   9.415  1.0250  0.0905 -0.2275
 3705TIP3    H235311   3.633   1.023   9.450  1.0949 -0.7404 -2.1336
 3706TIP3   OH235312   1.450   2.671   9.105  0.6057 -0.1705  0.2034
 3706TIP3    H135313   1.543   2.683   9.121  0.1610  0.6655  2.5521
 3706TIP3    H235314   1.424   2.601   9.164 -0.5351  0.6779  0.7413
 3707TIP3   OH235315   6.531   4.289   8.224  0.0473 -0.1176 -0.8005
 3707TIP3    H135316   6.481   4.366   8.252 -0.9313 -1.4301  1.2724
 3707TIP3    H235317   6.605   4.285   8.285 -0.9693 -1.8536  0.4123
 3708TIP3   OH235318   1.703   5.034   9.427 -0.2416  0.2202 -0.1367
 3708TIP3    H135319   1.795   5.006   9.435 -0.2925  0.2426  0.5488
 3708TIP3    H235320   1.653   4.962   9.464 -0.4957  0.2809 -0.3615
 3709TIP3   OH235321   2.194   5.644   8.549  0.2809  0.1078  0.1889
 3709TIP3    H135322   2.236   5.586   8.485  0.7168 -0.0313  0.5998
 3709TIP3    H235323   2.122   5.592   8.585  1.4238 -0.6475  1.4582
 3710TIP3   OH235324   5.134   5.578   9.236 -0.2119  0.5487 -0.2716
 3710TIP3    H135325   5.058   5.521   9.227 -0.6975  1.0739  0.3830
 3710TIP3    H235326   5.132   5.633   9.158 -0.8380  0.9435  0.0171
 3711TIP3   OH235327   0.448   0.177   8.366 -0.1194  0.1453  1.0093
 3711TIP3    H135328   0.402   0.115   8.423 -1.6354  1.9528  1.8202
 3711TIP3    H235329   0.520   0.125   8.330 -1.5580 -2.2329  1.2883
 3712TIP3   OH235330   4.744   0.534   9.468 -0.3712  0.1525 -1.1376
 3712TIP3    H135331   4.705   0.621   9.461  1.7774  1.1567 -1.4104
 3712TIP3    H235332   4.722   0.491   9.385  1.2324  1.6446 -2.3931
 3713TIP3   OH235333   3.744   3.965   9.100  0.3295 -0.2457  0.6344
 3713TIP3    H135334   3.705   3.919   9.175  0.3942  0.7410  1.2916
 3713TIP3    H235335   3.838   3.959   9.114  0.3518  1.8069  1.8635
 3714TIP3   OH235336   3.009   0.877   6.718 -0.3164  0.3623  0.0593
 3714TIP3    H135337   2.967   0.869   6.803  1.1474  2.6210  1.1038
 3714TIP3    H235338   2.971   0.956   6.680  0.2519  0.3078 -0.6523
 3715TIP3   OH235339   7.122   4.567   8.628  0.2205  0.8570 -0.6191
 3715TIP3    H135340   7.164   4.552   8.713 -0.2321  0.0774 -0.5316
 3715TIP3    H235341   7.034   4.596   8.649 -0.4115 -0.8201 -0.8069
 3716TIP3   OH235342   5.318   1.800   9.145 -0.0350 -0.3508 -0.1592
 3716TIP3    H135343   5.390   1.828   9.201 -1.2116 -0.4064  1.4519
 3716TIP3    H235344   5.292   1.715   9.182  0.2986 -1.2684 -1.9209
 3717TIP3   OH235345   7.062   6.130   9.060  0.2355  0.5328  0.0414
 3717TIP3    H135346   7.132   6.082   9.103 -0.3506  0.4110  0.8768
 3717TIP3    H235347   7.035   6.074   8.987 -0.3199 -0.3340  0.8961
 3718TIP3   OH235348   5.313   6.127   7.259 -1.0191  0.2390 -0.3574
 3718TIP3    H135349   5.251   6.057   7.280  1.2510 -2.0850 -0.9070
 3718TIP3    H235350   5.321   6.125   7.164  2.3991 -1.9997 -0.1837
 3719TIP3   OH235351   0.500   4.913   8.037  0.4284 -0.0144  0.8155
 3719TIP3    H135352   0.504   5.003   8.068 -0.6454 -0.6892  3.1100
 3719TIP3    H235353   0.472   4.920   7.945 -1.3203  1.9218  1.4321
 3720TIP3   OH235354   3.828   3.187   6.915 -0.1524  0.8234  0.0926
 3720TIP3    H135355   3.734   3.207   6.921 -0.1541  0.5498  1.4760
 3720TIP3    H235356   3.870   3.273   6.908 -0.5032  0.9557 -0.3918
 3721TIP3   OH235357   2.478   5.159   9.233  0.2180 -0.0905  0.1821
 3721TIP3    H135358   2.565   5.121   9.245 -0.4057 -1.2862  1.1226
 3721TIP3    H235359   2.427   5.090   9.190 -0.4305  0.3779  0.1802
 3722TIP3   OH235360   4.305   2.963   7.596 -0.2184  0.1766 -0.3960
 3722TIP3    H135361   4.341   3.016   7.668  0.0456 -1.7051  0.9139
 3722TIP3    H235362   4.354   2.992   7.519  1.8957 -0.0954  0.7802
 3723TIP3   OH235363   6.044   1.746   9.250 -0.4861  0.1526  0.3267
 3723TIP3    H135364   6.035   1.704   9.335 -0.6356  0.6446  0.5562
 3723TIP3    H235365   5.994   1.827   9.257  0.5711  0.8373  0.2060
 3724TIP3   OH235366   4.042   4.903   9.297  0.2244 -0.4631  0.0730
 3724TIP3    H135367   4.017   4.866   9.213 -1.5577 -0.1298  0.4235
 3724TIP3    H235368   4.119   4.957   9.278  1.0917 -2.0027 -0.9441
 3725TIP3   OH235369   2.637   7.058   8.435 -0.3339 -0.5910  0.0759
 3725TIP3    H135370   2.587   7.137   8.414  0.6939 -0.6721 -3.2571
 3725TIP3    H235371   2.580   7.007   8.492 -1.0301  2.4841  2.3739
 3726TIP3   OH235372   5.388   0.674   7.081 -0.7272 -0.4116  0.4207
 3726TIP3    H135373   5.461   0.660   7.020 -1.5611  0.7992 -0.9069
 3726TIP3    H235374   5.429   0.674   7.168  0.8332  0.1449 -0.2847
 3727TIP3   OH235375   7.284   6.272   7.164 -0.1680  0.4817 -0.2445
 3727TIP3    H135376   7.239   6.196   7.128 -1.4238  0.9813  0.1961
 3727TIP3    H235377   7.377   6.256   7.148 -0.5657 -0.0315 -2.2793
 3728TIP3   OH235378   0.324   3.936   8.110 -0.4855 -0.1965  0.3696
 3728TIP3    H135379   0.415   3.909   8.096 -1.0232 -1.5905 -0.7478
 3728TIP3    H235380   0.301   3.900   8.196  0.2792  0.9723  1.0834
 3729TIP3   OH235381   2.273   5.612   9.185 -0.5743 -0.0736 -0.4746
 3729TIP3    H135382   2.251   5.669   9.111 -4.7479  0.9031  1.2092
 3729TIP3    H235383   2.329   5.666   9.240 -1.6283  1.1833 -0.5681
 3730TIP3   OH235384   1.001   6.183   6.765 -0.3145  0.7203 -0.3781
 3730TIP3    H135385   0.998   6.094   6.800  0.2017 -0.2323 -2.5539
 3730TIP3    H235386   1.071   6.225   6.814 -0.8773  0.0871  1.0108
 3731TIP3   OH235387   5.555   5.081   7.603 -0.2815  0.1585 -0.2484
 3731TIP3    H135388   5.569   5.116   7.515 -1.2300  1.8195  0.2043
 3731TIP3    H235389   5.626   5.018   7.616  0.0186  0.0639 -2.0932
 3732TIP3   OH235390   7.213   6.755   9.517  0.5010 -0.4092  0.3335
 3732TIP3    H135391   7.307   6.762   9.504  0.2809  0.8251 -0.8659
 3732TIP3    H235392   7.193   6.822   9.583  0.4055 -0.3686  0.2634
 3733TIP3   OH235393   4.485   4.908   9.335  0.0586 -0.3586 -0.2667
 3733TIP3    H135394   4.454   4.822   9.363 -0.8042 -0.8018 -2.3764
 3733TIP3    H235395   4.405   4.961   9.329  0.4186  0.1888 -0.3066
 3734TIP3   OH235396   1.504   6.703   7.616  0.0513  0.1768 -0.3956
 3734TIP3    H135397   1.427   6.692   7.562 -0.9860  0.6755  0.9166
 3734TIP3    H235398   1.487   6.783   7.666  0.5740 -0.6772  1.2415
 3735TIP3   OH235399   4.026   3.301   8.169 -0.6626 -0.0103 -0.1202
 3735TIP3    H135400   3.989   3.244   8.237  0.0748  0.5102  0.7493
 3735TIP3    H235401   4.111   3.327   8.205  0.8101 -1.5487 -2.2386
 3736TIP3   OH235402   6.082   3.126   8.578  0.0522 -0.4391 -0.1900
 3736TIP3    H135403   6.087   3.109   8.483 -1.8051  1.3515 -0.6769
 3736TIP3    H235404   6.000   3.087   8.605 -2.0954  3.3976 -0.4747
 3737TIP3   OH235405   2.377   3.158   8.079 -0.0897  0.3075  0.2655
 3737TIP3    H135406   2.424   3.231   8.039  0.3966 -0.6351 -0.9255
 3737TIP3    H235407   2.362   3.186   8.169  0.4345  1.7107 -0.0631
 3738TIP3   OH235408   4.712   0.904   8.498 -0.1001  0.0662 -0.3967
 3738TIP3    H135409   4.795   0.860   8.480 -0.6587 -1.5510  0.7321
 3738TIP3    H235410   4.736   0.986   8.542  0.9263 -1.9097  3.1203
 3739TIP3   OH235411   3.845   6.937   7.737 -0.3281  0.3514  0.4845
 3739TIP3    H135412   3.825   6.997   7.665 -1.3925 -2.8211 -2.1105
 3739TIP3    H235413   3.940   6.923   7.732 -0.4536 -0.2359 -0.7517
 3740TIP3   OH235414   0.895   3.156   9.291 -0.0871 -0.3908 -0.9154
 3740TIP3    H135415   0.903   3.087   9.357  0.0353 -0.1257 -0.6569
 3740TIP3    H235416   0.818   3.205   9.316 -1.3326 -1.5887 -2.1694
 3741TIP3   OH235417   6.723   4.240   7.300 -0.2495  0.0623 -0.0414
 3741TIP3    H135418   6.719   4.225   7.205 -0.1277  0.6040 -0.1330
 3741TIP3    H235419   6.794   4.302   7.311  0.2628 -0.6061  0.4861
 3742TIP3   OH235420   6.173   6.117   7.896  0.2475 -0.5971 -0.0383
 3742TIP3    H135421   6.124   6.042   7.863 -0.0743 -1.1282  1.5658
 3742TIP3    H235422   6.108   6.169   7.943  0.7510 -0.0734  0.0896
 3743TIP3   OH235423   2.077   7.036   6.821  0.1161 -0.1524 -0.1663
 3743TIP3    H135424   2.083   7.132   6.825 -1.3391  0.1362 -2.7316
 3743TIP3    H235425   2.153   7.011   6.768 -0.3270 -0.2580 -0.7548
 3744TIP3   OH235426   2.497   6.053   7.497  0.1088  0.1102  0.5627
 3744TIP3    H135427   2.437   6.098   7.437  1.5033  1.3371  0.0060
 3744TIP3    H235428   2.466   6.077   7.584 -0.3648  0.5219  0.2861
 3745TIP3   OH235429   5.891   4.575   8.708  0.3496 -0.6499 -0.2788
 3745TIP3    H135430   5.965   4.524   8.740 -0.2499 -2.0084 -0.9764
 3745TIP3    H235431   5.856   4.524   8.635 -0.5090  0.5911 -0.7695
 3746TIP3   OH235432   2.104   4.776   8.082 -0.1449 -0.2860  0.3000
 3746TIP3    H135433   2.014   4.763   8.112 -0.5441  0.9984 -0.3027
 3746TIP3    H235434   2.158   4.736   8.150 -1.1798 -2.6065 -0.1246
 3747TIP3   OH235435   4.166   3.512   7.969  0.0777  0.0210 -0.0290
 3747TIP3    H135436   4.228   3.440   7.955  0.1023 -0.2677  1.4331
 3747TIP3    H235437   4.129   3.495   8.056 -3.1991 -0.6962 -1.3993
 3748TIP3   OH235438   1.584   3.488   7.486 -0.4319  0.0099  0.2028
 3748TIP3    H135439   1.594   3.582   7.470 -0.6569  0.0003 -0.0042
 3748TIP3    H235440   1.497   3.468   7.453  0.4049 -0.6829 -1.7258
 3749TIP3   OH235441   5.391   5.291   9.404  0.5579  0.2674  0.0767
 3749TIP3    H135442   5.400   5.386   9.405 -1.4599  0.4903  0.1133
 3749TIP3    H235443   5.301   5.275   9.375  1.4323 -1.6856 -1.8821
 3750TIP3   OH235444   0.933   2.958   7.776  0.0854 -0.3492  0.1514
 3750TIP3    H135445   1.005   2.945   7.838 -0.7043  1.2912  1.5068
 3750TIP3    H235446   0.971   3.009   7.705  0.5245 -0.4787  0.2934
 3751TIP3   OH235447   4.377   0.189   7.916  0.2357 -0.2418  0.2977
 3751TIP3    H135448   4.408   0.113   7.966 -0.6009 -1.2319 -0.6226
 3751TIP3    H235449   4.292   0.210   7.956 -0.3659 -0.9421 -0.5832
 3752TIP3   OH235450   7.501   1.345   7.943  0.3054  0.0843  0.1501
 3752TIP3    H135451   7.452   1.420   7.979  1.3955  0.6356  0.5269
 3752TIP3    H235452   7.460   1.269   7.983 -0.2016  0.5325  0.5074
 3753TIP3   OH235453   0.200   4.887   8.800 -0.0102 -0.9857  0.0501
 3753TIP3    H135454   0.167   4.956   8.858  0.3707 -0.8086  0.0547
 3753TIP3    H235455   0.257   4.834   8.856  0.2002 -0.9313 -0.1143
 3754TIP3   OH235456   6.826   7.595   8.032 -0.0796 -0.4188 -0.1981
 3754TIP3    H135457   6.828   7.532   8.104  2.0077 -1.0047 -0.7097
 3754TIP3    H235458   6.906   7.647   8.043 -0.7951  0.8929 -0.9051
 3755TIP3   OH235459   0.566   5.218   8.628  0.1049 -0.0901  0.2154
 3755TIP3    H135460   0.646   5.186   8.670 -0.5066  1.4535  2.8050
 3755TIP3    H235461   0.574   5.313   8.632 -1.1295  0.0864 -1.0141
 3756TIP3   OH235462   7.364   5.957   9.466  0.2583  0.1896 -0.1867
 3756TIP3    H135463   7.413   6.039   9.477 -2.8954  2.3083 -0.6399
 3756TIP3    H235464   7.407   5.914   9.392  1.6815  1.6808 -0.2968
 3757TIP3   OH235465   0.478   5.787   7.233  0.3522  0.0252  0.2555
 3757TIP3    H135466   0.413   5.723   7.262  2.3972 -1.4565  1.8495
 3757TIP3    H235467   0.499   5.837   7.311  2.2773 -0.6358  0.2196
 3758TIP3   OH235468   5.873   2.260   8.461  0.1306 -0.2509  0.1278
 3758TIP3    H135469   5.851   2.190   8.522 -2.8071  0.7644  0.4006
 3758TIP3    H235470   5.930   2.219   8.396 -0.6311 -2.6091  0.8553
 3759TIP3   OH235471   3.012   1.545   7.564 -0.0774 -0.3624  0.2142
 3759TIP3    H135472   2.937   1.528   7.622  0.5516  0.3977  1.2968
 3759TIP3    H235473   3.054   1.622   7.602  2.4653 -1.9380  0.9156
 3760TIP3   OH235474   2.322   6.226   7.335 -0.1692  0.1718 -0.3033
 3760TIP3    H135475   2.228   6.234   7.353  0.0586  1.5681  0.4402
 3760TIP3    H235476   2.328   6.204   7.242 -1.2297  0.1732 -0.3773
 3761TIP3   OH235477   6.865   7.406   8.815  0.2518  0.1167  0.4085
 3761TIP3    H135478   6.824   7.335   8.765  0.6180 -0.0047  0.2767
 3761TIP3    H235479   6.882   7.368   8.901  3.0366 -0.9264 -0.4687
 3762TIP3   OH235480   3.411   4.118   6.948 -0.7165 -0.0532 -0.2109
 3762TIP3    H135481   3.380   4.029   6.935 -0.6540 -0.2663  1.0098
 3762TIP3    H235482   3.504   4.108   6.970 -1.0183  0.1968  1.2596
 3763TIP3   OH235483   5.205   3.226   7.773  0.0974  0.6235 -0.2959
 3763TIP3    H135484   5.235   3.311   7.740 -0.5643  1.1409  0.3796
 3763TIP3    H235485   5.109   3.235   7.777  0.1522  1.0144  2.7046
 3764TIP3   OH235486   3.973   6.354   7.525  0.1931 -0.1612  0.2139
 3764TIP3    H135487   3.947   6.283   7.466  1.8179 -1.1008  0.5652
 3764TIP3    H235488   4.043   6.316   7.579  0.6205  1.4998  0.8869
 3765TIP3   OH235489   6.578   7.229   7.020  0.2531  0.0590  0.1979
 3765TIP3    H135490   6.617   7.223   7.108  2.9897 -1.4083 -0.9718
 3765TIP3    H235491   6.504   7.168   7.022  1.7217 -1.8102  0.8871
 3766TIP3   OH235492   0.987   0.953   8.899 -0.3809  0.0984  0.5444
 3766TIP3    H135493   1.001   0.964   8.805  0.2353  1.4553  0.7712
 3766TIP3    H235494   1.074   0.960   8.937 -0.7607  0.7766  1.3136
 3767TIP3   OH235495   4.224   6.914   8.271 -0.1120 -0.1189 -0.6589
 3767TIP3    H135496   4.315   6.887   8.280 -0.2710 -0.5821 -0.4281
 3767TIP3    H235497   4.203   6.959   8.353 -0.0618  0.0862 -0.7563
 3768TIP3   OH235498   5.473   2.513   7.583 -0.3552 -0.2479 -0.2136
 3768TIP3    H135499   5.558   2.500   7.624 -0.5370  1.4002  0.7737
 3768TIP3    H235500   5.455   2.431   7.538  2.6033 -0.0380 -2.0765
 3769TIP3   OH235501   1.041   1.414   9.597 -0.8097 -0.4349 -0.4547
 3769TIP3    H135502   1.103   1.485   9.612 -1.1112 -0.2453 -0.0950
 3769TIP3    H235503   1.093   1.334   9.611 -1.3152 -0.3322  3.1012
 3770TIP3   OH235504   5.344   4.340   8.108  0.0380 -0.1395 -0.0721
 3770TIP3    H135505   5.321   4.366   8.019 -0.9094  0.1458  0.2486
 3770TIP3    H235506   5.328   4.418   8.161  1.1315 -0.1356  0.2763
 3771TIP3   OH235507   3.033   1.061   8.317  0.7508  0.0938 -0.5918
 3771TIP3    H135508   3.046   0.967   8.315  0.8232  0.0757  0.2826
 3771TIP3    H235509   2.938   1.072   8.315  0.7669  0.0515 -1.9399
 3772TIP3   OH235510   1.335   7.444   7.512 -0.0835  0.3228 -0.0333
 3772TIP3    H135511   1.398   7.510   7.540  0.1176  0.1909 -0.1757
 3772TIP3    H235512   1.270   7.493   7.461 -0.9548  0.7239  1.4062
 3773TIP3   OH235513   0.404   4.829   9.061  0.2874  0.3881  0.0021
 3773TIP3    H135514   0.470   4.821   9.130  0.7669  0.0887 -0.4818
 3773TIP3    H235515   0.441   4.893   9.000  0.4666 -0.3130 -0.6394
 3774TIP3   OH235516   4.904   5.018   7.145 -0.2697 -0.5197 -0.2727
 3774TIP3    H135517   4.982   5.036   7.092  0.1606 -2.7867 -0.5199
 3774TIP3    H235518   4.838   4.990   7.081 -0.3630 -1.3579  0.1717
 3775TIP3   OH235519   4.554   4.001   8.734 -0.0420  0.2058 -0.6434
 3775TIP3    H135520   4.627   3.946   8.707 -0.7191 -0.6469 -0.7651
 3775TIP3    H235521   4.595   4.076   8.777  1.0505  1.1511 -3.1208
 3776TIP3   OH235522   4.632   0.293   7.804  0.1424 -0.2687  0.4899
 3776TIP3    H135523   4.561   0.240   7.840  0.2942 -0.1567  0.9559
 3776TIP3    H235524   4.709   0.269   7.855  0.4572 -0.4353 -0.0575
 3777TIP3   OH235525   0.829   6.518   8.835  0.6028  0.1984  0.1474
 3777TIP3    H135526   0.787   6.433   8.818  0.0738  0.3473  0.6724
 3777TIP3    H235527   0.840   6.558   8.749  0.5469 -0.2575 -0.0744
 3778TIP3   OH235528   1.249   0.401   7.043 -0.4275  0.8304 -0.2845
 3778TIP3    H135529   1.315   0.347   6.999 -0.1394  0.6454  0.3671
 3778TIP3    H235530   1.264   0.387   7.136 -1.6854  0.4257 -0.1211
 3779TIP3   OH235531   7.565   2.755   6.839  0.2374 -0.0440  0.1744
 3779TIP3    H135532   7.591   2.708   6.760 -2.4253  1.6309 -1.8765
 3779TIP3    H235533   7.646   2.792   6.874  1.5346 -1.1207 -1.5612
 3780TIP3   OH235534   0.366   2.643   7.965 -1.0007 -0.5547  0.2464
 3780TIP3    H135535   0.427   2.576   7.996 -1.4385 -0.7268  0.7445
 3780TIP3    H235536   0.422   2.714   7.934 -0.5450 -0.5996  0.9384
 3781TIP3   OH235537   3.711   0.324   8.265  0.0357 -0.0110 -0.9877
 3781TIP3    H135538   3.790   0.351   8.312 -0.4438  3.3507 -1.8410
 3781TIP3    H235539   3.704   0.230   8.282  2.8617  0.0131  1.0798
 3782TIP3   OH235540   4.826   3.314   7.349  0.3770 -0.1043  0.0210
 3782TIP3    H135541   4.795   3.231   7.313  0.0842 -0.2391  0.5683
 3782TIP3    H235542   4.900   3.289   7.405  0.0956 -0.0310  0.4258
 3783TIP3   OH235543   3.545   5.516   9.005 -0.0343  0.3736  0.0104
 3783TIP3    H135544   3.452   5.496   8.999 -0.1219  0.0944  1.8616
 3783TIP3    H235545   3.549   5.605   9.042  0.4105 -0.0868  1.1271
 3784TIP3   OH235546   2.990   1.733   8.477 -0.3905 -0.1361 -0.0070
 3784TIP3    H135547   3.032   1.761   8.558 -0.8499  2.1309 -0.4627
 3784TIP3    H235548   3.061   1.736   8.412 -0.4241 -0.0783 -0.0419
 3785TIP3   OH235549   6.044   5.431   8.791 -0.4959 -0.0231  0.7034
 3785TIP3    H135550   6.060   5.523   8.769 -1.0175  0.0962  0.8132
 3785TIP3    H235551   6.067   5.425   8.884 -0.9181  0.1132  0.8221
 3786TIP3   OH235552   4.624   4.237   8.864  0.4944 -0.5081 -0.2310
 3786TIP3    H135553   4.669   4.272   8.941 -0.2163  0.5503 -0.2708
 3786TIP3    H235554   4.532   4.234   8.890  0.3939 -1.2222 -0.6600
 3787TIP3   OH235555   6.285   0.370   7.484 -0.0082  0.0691  0.6685
 3787TIP3    H135556   6.295   0.393   7.577 -0.0816  0.4906  0.5706
 3787TIP3    H235557   6.347   0.427   7.439 -0.4910  0.3678  0.3842
 3788TIP3   OH235558   2.542   1.591   6.989  0.4703 -0.0973  0.3346
 3788TIP3    H135559   2.570   1.675   6.954 -1.2072  0.3367 -0.0835
 3788TIP3    H235560   2.536   1.605   7.083 -2.1053  1.0904  0.0979
 3789TIP3   OH235561   1.187   4.512   8.477 -0.2385  0.0927  0.0856
 3789TIP3    H135562   1.092   4.511   8.472 -0.2548  1.2115 -0.1856
 3789TIP3    H235563   1.206   4.501   8.571 -0.7112  1.4365  0.3742
 3790TIP3   OH235564   0.553   3.647   7.691  0.0669  0.5052  0.2726
 3790TIP3    H135565   0.605   3.649   7.772 -0.3497  1.6660  0.5258
 3790TIP3    H235566   0.606   3.596   7.630  0.5486 -0.0987  1.1612
 3791TIP3   OH235567   3.142   5.558   8.795 -0.4317  0.7235 -0.7400
 3791TIP3    H135568   3.082   5.628   8.768 -1.1728  0.1699 -0.5797
 3791TIP3    H235569   3.200   5.545   8.720 -0.5644  1.2098 -0.9315
 3792TIP3   OH235570   6.070   7.652   7.917 -0.0077  0.4418  0.2420
 3792TIP3    H135571   6.160   7.679   7.939 -0.2716  0.7043  1.0215
 3792TIP3    H235572   6.048   7.586   7.983 -1.0078  1.6329  1.1403
 3793TIP3   OH235573   4.838   1.757   8.950  0.0232 -0.5459  0.0243
 3793TIP3    H135574   4.842   1.719   8.862 -0.1206 -2.4807  0.8072
 3793TIP3    H235575   4.751   1.797   8.954  1.1463  2.3401 -1.7298
 3794TIP3   OH235576   2.983   6.377   8.374  0.4219 -0.7137 -0.0808
 3794TIP3    H135577   3.035   6.317   8.320 -1.3436 -1.5377 -0.9616
 3794TIP3    H235578   2.956   6.446   8.313 -1.1856 -1.3971 -0.1979
 3795TIP3   OH235579   6.879   6.447   8.474  0.3426  0.5506  0.0668
 3795TIP3    H135580   6.787   6.470   8.484 -0.1890 -0.9452 -1.0088
 3795TIP3    H235581   6.917   6.459   8.561 -1.0478  0.4224  0.7110
 3796TIP3   OH235582   6.989   3.632   8.927 -0.1927  0.3730  0.3698
 3796TIP3    H135583   7.028   3.709   8.967 -0.7834  0.7476  0.2295
 3796TIP3    H235584   6.970   3.573   9.000  1.4391 -0.2110  0.3802
 3797TIP3   OH235585   2.260   0.339   7.531  0.0544  0.0795  0.3610
 3797TIP3    H135586   2.239   0.353   7.623  0.4038  0.4927  0.3821
 3797TIP3    H235587   2.210   0.261   7.506 -2.8464  1.9262 -0.0485
 3798TIP3   OH235588   6.404   7.202   8.264  0.0530  0.1177 -0.1714
 3798TIP3    H135589   6.477   7.167   8.213  0.2693  0.4631 -0.1031
 3798TIP3    H235590   6.420   7.296   8.268 -0.3972  0.1972 -0.1531
 3799TIP3   OH235591   4.903   3.949   7.366 -0.3985  0.0044 -0.2031
 3799TIP3    H135592   4.995   3.948   7.340 -0.3671 -0.4675 -0.0869
 3799TIP3    H235593   4.856   3.977   7.288 -0.1330  0.5503 -0.1731
 3800TIP3   OH235594   5.283   3.998   8.602  0.1287 -0.1638  0.1550
 3800TIP3    H135595   5.189   4.002   8.615  0.0399  2.5167 -0.7205
 3800TIP3    H235596   5.320   4.032   8.683  0.3211 -0.2655  0.1113
 3801TIP3   OH235597   6.606   2.602   8.610  0.6338  0.5906  0.4438
 3801TIP3    H135598   6.692   2.612   8.651  1.1659 -0.3318 -0.4162
 3801TIP3    H235599   6.593   2.508   8.604 -0.6752  0.7214  1.0245
 3802TIP3   OH235600   3.509   4.992   8.521  0.1169 -0.8055 -0.1750
 3802TIP3    H135601   3.462   4.913   8.547  1.0952 -1.8695 -1.4686
 3802TIP3    H235602   3.463   5.063   8.565 -1.5461 -1.9672  0.0600
 3803TIP3   OH235603   3.026   4.317   8.003  0.1717  0.4181 -0.2890
 3803TIP3    H135604   2.974   4.318   8.083 -0.0031  0.1732 -0.3963
 3803TIP3    H235605   3.097   4.255   8.020  0.0469  0.2479 -0.3730
 3804TIP3   OH235606   0.633   3.640   8.713  0.5127 -0.1193  0.0383
 3804TIP3    H135607   0.641   3.615   8.805  0.7547  1.1930  0.3913
 3804TIP3    H235608   0.668   3.729   8.709  1.1326 -0.3960 -1.4474
 3805TIP3   OH235609   2.958   5.338   6.531 -0.1008  0.4097  0.4745
 3805TIP3    H135610   2.897   5.345   6.605  0.4720  0.0297  0.9937
 3805TIP3    H235611   3.010   5.261   6.551 -0.9901 -0.6518 -1.1272
 3806TIP3   OH235612   0.231   6.918   9.023 -0.1830  0.5703  0.3627
 3806TIP3    H135613   0.150   6.949   8.982 -0.4066  0.6885  0.8785
 3806TIP3    H235614   0.239   6.971   9.102  0.7862  1.0672 -0.0490
 3807TIP3   OH235615   0.150   0.034   7.856  0.1623 -0.0001  0.0853
 3807TIP3    H135616   0.198  -0.042   7.890 -0.3821 -0.2323  0.3486
 3807TIP3    H235617   0.092  -0.003   7.789 -0.1484  0.1734  0.2570
 3808TIP3   OH235618   3.625   6.940   8.786  0.0566 -0.4755  0.3467
 3808TIP3    H135619   3.683   6.910   8.716 -0.8876 -0.0136 -0.6710
 3808TIP3    H235620   3.660   7.026   8.811  0.2670 -0.5422  0.2789
 3809TIP3   OH235621   4.282   7.483   7.166  0.0289 -0.4701 -0.0605
 3809TIP3    H135622   4.374   7.510   7.173 -0.1360 -0.2403  1.8924
 3809TIP3    H235623   4.239   7.556   7.120  0.7287 -0.3709 -0.5761
 3810TIP3   OH235624   6.238   0.622   8.514 -0.4994  0.2687  0.7674
 3810TIP3    H135625   6.309   0.682   8.489 -0.0224  0.3880  2.2624
 3810TIP3    H235626   6.230   0.562   8.440  0.2797  1.0523  0.0194
 3811TIP3   OH235627   1.238   1.287   7.751  0.1127  0.4025  0.3683
 3811TIP3    H135628   1.169   1.348   7.776 -1.3249 -0.2645 -1.7108
 3811TIP3    H235629   1.301   1.340   7.702 -0.4417  0.4701 -0.2717
 3812TIP3   OH235630   5.808   2.094   7.832  0.3046 -0.0693  0.1949
 3812TIP3    H135631   5.767   2.164   7.882  2.3866 -0.0814  2.1365
 3812TIP3    H235632   5.785   2.111   7.741 -3.8810 -0.1526  1.0723
 3813TIP3   OH235633   1.859   2.828   7.991 -0.6361  0.4788  0.2537
 3813TIP3    H135634   1.765   2.809   8.000 -0.4165 -0.6651  0.2450
 3813TIP3    H235635   1.896   2.801   8.075 -0.1205 -0.3635 -0.2368
 3814TIP3   OH235636   1.816   3.111   7.776 -0.0475  0.0380  0.3706
 3814TIP3    H135637   1.892   3.168   7.765  0.0057  0.3548  2.1129
 3814TIP3    H235638   1.803   3.073   7.690  1.6049  0.5856 -0.1731
 3815TIP3   OH235639   7.463   0.568   9.284 -0.2090 -0.3726 -0.1384
 3815TIP3    H135640   7.378   0.586   9.243  0.2154 -0.9108 -1.2956
 3815TIP3    H235641   7.443   0.557   9.377 -1.5610 -1.4088 -0.5187
 3816TIP3   OH235642   5.163   0.725   8.105 -0.4596 -0.4130 -0.2429
 3816TIP3    H135643   5.125   0.700   8.020  0.6568  0.6402 -1.0767
 3816TIP3    H235644   5.245   0.768   8.083  1.1004 -2.3004  1.5039
 3817TIP3   OH235645   1.140   3.274   7.868 -0.4525 -0.0026 -0.0538
 3817TIP3    H135646   1.202   3.230   7.927  0.8047  0.8055 -0.7208
 3817TIP3    H235647   1.056   3.269   7.913  0.5037  0.7578  1.9265
 3818TIP3   OH235648   5.222   6.276   8.943  0.0763 -0.1623  0.2835
 3818TIP3    H135649   5.194   6.365   8.964 -0.8891  0.1162 -1.9454
 3818TIP3    H235650   5.311   6.271   8.979  0.1786  1.7179  0.4269
 3819TIP3   OH235651   2.860   2.348   8.721 -0.0782  0.4142 -0.3163
 3819TIP3    H135652   2.931   2.285   8.711 -0.9941 -0.7651  0.2835
 3819TIP3    H235653   2.896   2.431   8.690  0.8954 -0.5753 -1.9927
 3820TIP3   OH235654   7.034   5.661   8.968 -0.4224 -0.4565 -0.3553
 3820TIP3    H135655   7.114   5.614   8.943  0.7160  1.8934 -1.4029
 3820TIP3    H235656   7.051   5.693   9.056 -0.4680 -0.4857 -0.3363
 3821TIP3   OH235657   1.648   2.431   9.250 -0.3083  0.6254 -0.2381
 3821TIP3    H135658   1.705   2.422   9.326 -1.1052  1.4513  0.4798
 3821TIP3    H235659   1.580   2.366   9.263 -0.2912  0.5799 -0.3796
 3822TIP3   OH235660   5.869   0.355   9.605 -0.1903  0.8756  0.7888
 3822TIP3    H135661   5.872   0.321   9.694  0.5022  1.1070  0.8604
 3822TIP3    H235662   5.951   0.325   9.565 -0.9329 -0.0629 -0.0813
 3823TIP3   OH235663   2.650   4.688   9.502 -0.4118 -0.3491 -0.6013
 3823TIP3    H135664   2.744   4.705   9.513 -0.4771 -1.0736  1.4589
 3823TIP3    H235665   2.629   4.725   9.416  1.3533  1.5845 -0.2864
 3824TIP3   OH235666   0.159   2.391   7.697  0.7154 -0.4665  0.3740
 3824TIP3    H135667   0.183   2.379   7.605  0.9857 -2.8056  0.6822
 3824TIP3    H235668   0.076   2.344   7.706 -0.6171  1.8057  0.8495
 3825TIP3   OH235669   3.159   4.009   7.797 -0.0862 -0.3630  0.4689
 3825TIP3    H135670   3.208   3.961   7.863  1.3693  0.5289  0.0770
 3825TIP3    H235671   3.161   4.100   7.826  0.9641  0.1191 -0.9829
 3826TIP3   OH235672   5.110   2.560   9.232 -0.6010 -0.6804 -0.7545
 3826TIP3    H135673   5.129   2.574   9.325 -2.1148 -0.6093 -0.4340
 3826TIP3    H235674   5.183   2.601   9.186 -0.9113  1.2394  0.3756
 3827TIP3   OH235675   1.767   4.632   7.000  0.0935 -0.6901  0.1485
 3827TIP3    H135676   1.850   4.666   7.033  0.6197 -1.0170 -0.8269
 3827TIP3    H235677   1.785   4.604   6.911 -1.0082 -0.9918 -0.0003
 3828TIP3   OH235678   5.020   0.648   8.434 -0.1239  0.4030 -0.7693
 3828TIP3    H135679   5.041   0.578   8.372  0.8793  1.3331 -1.5228
 3828TIP3    H235680   5.037   0.729   8.385  0.4578  1.1706  0.6478
 3829TIP3   OH235681   5.653   4.366   8.193  0.3580 -0.4236  0.3041
 3829TIP3    H135682   5.649   4.434   8.126  1.0254 -0.4974  0.1887
 3829TIP3    H235683   5.575   4.312   8.176 -0.3049  0.4237  0.5418
 3830TIP3   OH235684   7.146   6.977   8.073 -0.2307  0.2045 -0.1341
 3830TIP3    H135685   7.121   6.885   8.064 -1.8084  0.4537  1.2810
 3830TIP3    H235686   7.158   7.008   7.983 -2.8413 -0.5650 -0.8253
 3831TIP3   OH235687   3.266   2.192   8.106 -0.5134  0.3841 -0.0447
 3831TIP3    H135688   3.233   2.105   8.127  0.5719 -0.3170 -1.0924
 3831TIP3    H235689   3.190   2.239   8.071 -0.7441 -0.7491 -1.1539
 3832TIP3   OH235690   0.105   1.467   9.341 -0.5566 -0.2831  0.4981
 3832TIP3    H135691   0.147   1.546   9.377 -0.3730 -0.0903 -0.1347
 3832TIP3    H235692   0.060   1.497   9.262 -0.7691 -0.7510  0.4369
 3833TIP3   OH235693   5.540   5.662   8.894  0.2118  0.5023 -0.0983
 3833TIP3    H135694   5.452   5.700   8.884 -0.2867 -0.5950 -0.0035
 3833TIP3    H235695   5.533   5.576   8.854  0.5104 -0.6500  2.1810
 3834TIP3   OH235696   3.578   1.048   7.324  0.0999  0.5794  0.6948
 3834TIP3    H135697   3.657   1.081   7.281 -0.6053  1.8902  0.3292
 3834TIP3    H235698   3.506   1.094   7.280 -0.7149  1.3135  2.6696
 3835TIP3   OH235699   5.842   6.696   8.513  0.8326 -0.2335 -0.4725
 3835TIP3    H135700   5.777   6.707   8.583  1.5181  0.9671  0.0175
 3835TIP3    H235701   5.921   6.665   8.559  0.7548 -1.2572 -0.9987
 3836TIP3   OH235702   1.771   4.027   8.506 -0.1506  0.2553  0.0652
 3836TIP3    H135703   1.724   4.083   8.444  1.5454  0.5438 -1.0233
 3836TIP3    H235704   1.845   3.992   8.457 -0.0099 -1.3543  1.3027
 3837TIP3   OH235705   3.868   6.601   6.815  0.0788  0.4826 -0.6833
 3837TIP3    H135706   3.895   6.604   6.907  1.8994 -2.2099 -0.9950
 3837TIP3    H235707   3.816   6.680   6.802  0.8314  1.5984  2.3172
 3838TIP3   OH235708   3.647   5.089   6.483 -0.9185 -0.3159  0.7783
 3838TIP3    H135709   3.651   5.003   6.441  0.0373  0.5212 -0.9514
 3838TIP3    H235710   3.621   5.149   6.413 -1.2929  0.8608  1.8769
 3839TIP3   OH235711   6.056   1.979   8.156 -0.0791  0.4870 -0.1022
 3839TIP3    H135712   6.009   1.933   8.087 -0.2646 -1.5712  1.3098
 3839TIP3    H235713   6.059   1.917   8.229  1.5088  1.9737  1.1931
 3840TIP3   OH235714   4.105   1.270   7.642 -0.4075  0.0339  0.6822
 3840TIP3    H135715   4.112   1.229   7.728 -0.6302  0.4444  0.8942
 3840TIP3    H235716   4.172   1.225   7.589 -0.5892 -0.5460  0.9345
 3841TIP3   OH235717   6.300   5.992   8.439  0.4085 -0.4638 -0.1680
 3841TIP3    H135718   6.314   5.953   8.353 -0.5601 -1.0564 -0.0721
 3841TIP3    H235719   6.328   5.925   8.501 -0.1422 -0.5503 -0.0118
 3842TIP3   OH235720   3.049   0.186   7.877  0.1518  0.1743  0.0197
 3842TIP3    H135721   3.096   0.263   7.845  0.3174  0.0834  0.0431
 3842TIP3    H235722   2.961   0.195   7.840 -0.2021  1.0051  1.0006
 3843TIP3   OH235723   0.772   1.442   7.460 -0.2596 -0.0854  0.3754
 3843TIP3    H135724   0.752   1.524   7.416  1.2292  0.6700  1.0420
 3843TIP3    H235725   0.690   1.416   7.502 -0.9052  0.7208 -0.3468
 3844TIP3   OH235726   2.356   2.106   9.509 -0.1114  0.2782  0.2536
 3844TIP3    H135727   2.360   2.180   9.570 -1.2141 -0.8290  1.7472
 3844TIP3    H235728   2.320   2.144   9.429  1.4511  1.7930  0.1927
 3845TIP3   OH235729   1.922   5.556   8.279 -0.3708 -0.2373  0.2213
 3845TIP3    H135730   1.893   5.545   8.370 -0.4760  0.7244  0.3226
 3845TIP3    H235731   2.011   5.523   8.278  0.4031  1.6704  1.2044
 3846TIP3   OH235732   7.123   2.963   7.340  0.2404  0.0133  0.5768
 3846TIP3    H135733   7.066   2.907   7.287  1.9293 -1.3306  0.0883
 3846TIP3    H235734   7.122   3.047   7.294 -0.9296 -0.1109  0.3175
 3847TIP3   OH235735   1.446   5.882   8.308  0.3632  0.7015  0.2396
 3847TIP3    H135736   1.496   5.946   8.359  0.5814 -0.6856  1.8290
 3847TIP3    H235737   1.362   5.877   8.353 -1.1187  2.5514 -2.0394
 3848TIP3   OH235738   3.539   5.678   7.112 -0.0257 -0.0918 -0.3015
 3848TIP3    H135739   3.585   5.664   7.195  2.2781 -0.0791 -1.4768
 3848TIP3    H235740   3.550   5.595   7.065 -0.6396  0.1506 -0.8783
 3849TIP3   OH235741   5.285   2.282   8.184 -0.1661 -0.2012 -0.3677
 3849TIP3    H135742   5.377   2.265   8.163 -0.0662  0.6527 -0.6627
 3849TIP3    H235743   5.252   2.198   8.218  0.5241 -0.7112 -0.9314
 3850TIP3   OH235744   5.465   2.955   8.272 -0.3255  0.3432  0.2524
 3850TIP3    H135745   5.529   2.956   8.343 -1.9707 -1.4733  1.8751
 3850TIP3    H235746   5.460   2.863   8.244 -1.0053  0.7256 -1.0083
 3851TIP3   OH235747   4.714   6.445   7.743  0.0778 -0.3586 -0.0477
 3851TIP3    H135748   4.687   6.463   7.833  0.2255 -1.0827  0.1512
 3851TIP3    H235749   4.808   6.425   7.750  0.0294 -0.6821 -0.3210
 3852TIP3   OH235750   6.338   6.887   7.565  0.0324 -0.0334  0.5057
 3852TIP3    H135751   6.407   6.915   7.505 -0.8401  1.3850  0.1258
 3852TIP3    H235752   6.363   6.922   7.650 -1.0840  2.1375  0.0238
 3853TIP3   OH235753   5.278   2.884   8.750 -0.4226  0.4476 -0.3915
 3853TIP3    H135754   5.221   2.928   8.812  0.5531  0.2987  0.6383
 3853TIP3    H235755   5.345   2.842   8.804  0.2064 -0.0492 -1.5160
 3854TIP3   OH235756   4.749   0.313   8.796 -0.0049 -0.2052  0.5049
 3854TIP3    H135757   4.742   0.336   8.888  0.4248 -0.0775  0.5080
 3854TIP3    H235758   4.773   0.220   8.796  2.7007  0.4014  0.6079
 3855TIP3   OH235759   2.041   5.948   7.214  0.3487 -0.8685  0.1265
 3855TIP3    H135760   1.980   5.880   7.185  1.9161 -1.7577 -1.2822
 3855TIP3    H235761   2.083   5.978   7.133  0.6508  0.8320  0.8899
 3856TIP3   OH235762   5.166   4.076   7.652  0.7324 -0.1504 -0.2101
 3856TIP3    H135763   5.145   3.985   7.630  2.0005 -0.8570  1.2929
 3856TIP3    H235764   5.206   4.111   7.572  1.0406 -1.1910 -0.5263
 3857TIP3   OH235765   0.357   5.882   8.015  0.5431  0.0860  0.5429
 3857TIP3    H135766   0.443   5.911   8.047  0.6397 -0.0856  0.4428
 3857TIP3    H235767   0.329   5.950   7.954  0.4700  0.2944  0.8084
 3858TIP3   OH235768   5.345   2.429   8.879  0.1088  0.2473 -0.1959
 3858TIP3    H135769   5.394   2.510   8.874  1.2776 -0.2781  1.6016
 3858TIP3    H235770   5.277   2.446   8.945  0.9094 -0.4648  0.8422
 3859TIP3   OH235771   3.802   7.340   9.142  0.0419  0.3050 -0.3499
 3859TIP3    H135772   3.793   7.300   9.228  1.1393  0.1133 -0.3015
 3859TIP3    H235773   3.712   7.354   9.112 -0.3868 -1.3321  0.0375
 3860TIP3   OH235774   6.478   5.659   7.325 -0.4547  0.2758 -0.1629
 3860TIP3    H135775   6.557   5.608   7.344 -1.2271 -1.5213 -1.4789
 3860TIP3    H235776   6.510   5.744   7.296  0.8741  0.9530  2.8740
 3861TIP3   OH235777   1.568   0.484   7.913  0.7467 -0.2145  0.0655
 3861TIP3    H135778   1.491   0.514   7.864  0.5697 -0.9429 -0.1007
 3861TIP3    H235779   1.616   0.429   7.852 -0.0750 -2.0715  1.0373
 3862TIP3   OH235780   7.314   2.928   8.086  0.0826 -0.2228 -0.6147
 3862TIP3    H135781   7.334   2.838   8.110  0.6348  0.3349  1.1877
 3862TIP3    H235782   7.400   2.969   8.072 -0.1093  0.2630 -0.4248
 3863TIP3   OH235783   1.771   4.210   8.294 -0.1380 -0.8388  0.2802
 3863TIP3    H135784   1.761   4.141   8.229 -0.1172  0.0292 -0.6539
 3863TIP3    H235785   1.740   4.290   8.251  1.3993  0.0526  0.7387
 3864TIP3   OH235786   2.700   7.307   9.243 -0.1864 -0.2090  0.3462
 3864TIP3    H135787   2.741   7.380   9.289  1.2551 -0.7405 -0.0428
 3864TIP3    H235788   2.638   7.349   9.184  0.5596  0.7181  0.1862
 3865TIP3   OH235789   4.972   6.397   7.729 -0.0599  0.6169 -0.3634
 3865TIP3    H135790   4.967   6.302   7.735 -0.5224  0.6430 -0.3412
 3865TIP3    H235791   5.032   6.413   7.656  2.7262  0.3033  1.6943
 3866TIP3   OH235792   1.345   5.620   8.462 -0.1713  0.3645  0.3321
 3866TIP3    H135793   1.375   5.541   8.417 -0.1903  0.1439  0.6987
 3866TIP3    H235794   1.250   5.620   8.451 -0.1435  0.4757  0.1047
 3867TIP3   OH235795   1.498   5.191   8.222 -0.7058  0.3517  0.0536
 3867TIP3    H135796   1.480   5.102   8.254 -0.9162  0.8410  1.3402
 3867TIP3    H235797   1.585   5.185   8.183 -0.6787 -0.3936  0.2054
 3868TIP3   OH235798   3.958   1.058   8.190 -0.0439  0.0274 -0.5502
 3868TIP3    H135799   3.926   0.988   8.247 -2.7665  1.0694 -0.6546
 3868TIP3    H235800   3.990   1.125   8.251 -0.9297  0.2287 -0.2889
 3869TIP3   OH235801   5.223   7.303   7.617  0.1718 -0.0654  0.3245
 3869TIP3    H135802   5.135   7.288   7.582  1.0634  1.0407 -2.6602
 3869TIP3    H235803   5.269   7.221   7.600  0.2343  0.0047  0.1572
 3870TIP3   OH235804   4.361   0.274   8.538 -0.2353 -0.3380  0.2132
 3870TIP3    H135805   4.274   0.235   8.549 -0.9648  1.7214  2.4219
 3870TIP3    H235806   4.417   0.226   8.599 -0.4165  0.0016  0.6499
 3871TIP3   OH235807   7.237   1.814   9.408 -0.0881 -0.0479 -0.0985
 3871TIP3    H135808   7.197   1.742   9.456 -0.4005  0.6065  0.6407
 3871TIP3    H235809   7.329   1.788   9.398  0.3464  0.4010  2.1232
 3872TIP3   OH235810   6.055   2.822   8.447  0.1117 -0.2446 -0.2158
 3872TIP3    H135811   6.097   2.853   8.528  2.5550  0.2297 -1.5665
 3872TIP3    H235812   6.103   2.866   8.377 -0.3082 -2.4772 -2.0306
 3873TIP3   OH235813   6.221   4.705   7.855 -0.2835 -0.3156  0.0850
 3873TIP3    H135814   6.255   4.722   7.942 -2.0538 -2.1959  1.2241
 3873TIP3    H235815   6.183   4.789   7.827  1.1791  0.5685  0.6625
 3874TIP3   OH235816   0.093   0.577   8.725 -0.2003  0.1274  0.0039
 3874TIP3    H135817   0.025   0.584   8.659  1.5320 -0.7063 -1.9794
 3874TIP3    H235818   0.050   0.603   8.807 -2.6727  0.2799 -1.2546
 3875TIP3   OH235819   7.029   5.387   9.024 -0.4486  0.2356  0.2448
 3875TIP3    H135820   7.051   5.294   9.011 -0.1449  0.2929  0.3348
 3875TIP3    H235821   6.983   5.412   8.944  0.0125  0.1679 -0.0432
 3876TIP3   OH235822   6.126   4.830   7.074  0.1099 -0.4336  0.6381
 3876TIP3    H135823   6.085   4.904   7.031 -0.6117 -1.1269  0.1059
 3876TIP3    H235824   6.180   4.869   7.143 -2.5917  0.4689  2.4054
 3877TIP3   OH235825   2.558   2.991   9.205  0.1390 -0.0281 -0.1107
 3877TIP3    H135826   2.566   3.079   9.241 -3.0163  0.9728 -1.5792
 3877TIP3    H235827   2.469   2.964   9.227  1.0130 -2.9429  0.3249
 3878TIP3   OH235828   4.034   5.907   6.514  0.2781  0.1352 -0.1593
 3878TIP3    H135829   4.017   5.897   6.420 -0.3651 -1.1742  0.0701
 3878TIP3    H235830   4.033   5.817   6.548  0.9896  0.5510  1.0228
 3879TIP3   OH235831   1.959   1.996   8.391 -0.5154 -0.4351 -0.0359
 3879TIP3    H135832   1.980   2.035   8.476 -1.9728 -1.6393  0.9208
 3879TIP3    H235833   1.946   2.071   8.333  0.7034  0.4054  0.7269
 3880TIP3   OH235834   4.086   2.449   7.996  0.0035 -0.6126  0.4434
 3880TIP3    H135835   4.095   2.354   8.002 -0.1840 -0.5841  1.3985
 3880TIP3    H235836   4.176   2.480   7.981 -0.1521 -1.0191 -1.6101
 3881TIP3   OH235837   6.527   7.666   8.901 -0.3428  0.9032 -0.1067
 3881TIP3    H135838   6.560   7.746   8.941  0.8211 -0.4039  1.6831
 3881TIP3    H235839   6.431   7.675   8.903 -0.2594  1.6025  1.4355
 3882TIP3   OH235840   1.524   2.762   8.695  0.1364  0.5638  0.2774
 3882TIP3    H135841   1.545   2.715   8.776 -0.6851  0.2598  0.3143
 3882TIP3    H235842   1.452   2.820   8.719  0.3111  0.9400 -0.0882
 3883TIP3   OH235843   3.923   0.079   8.093  0.3880 -0.0437  0.0830
 3883TIP3    H135844   3.898   0.013   8.029  0.2101 -0.1667  0.2787
 3883TIP3    H235845   3.842   0.125   8.114  0.2907 -0.5465  0.8331
 3884TIP3   OH235846   0.741   3.367   9.367  0.0964  0.0169 -0.5958
 3884TIP3    H135847   0.822   3.405   9.402  0.4909 -0.2122 -1.2418
 3884TIP3    H235848   0.673   3.431   9.388 -0.0771 -0.9995  2.4127
 3885TIP3   OH235849   5.206   2.518   9.476 -0.1146  0.0192 -0.0769
 3885TIP3    H135850   5.230   2.513   9.569  0.9965 -1.7313 -0.4071
 3885TIP3    H235851   5.152   2.440   9.461  0.0400  0.0795 -0.9862
 3886TIP3   OH235852   5.176   4.741   8.298 -0.4735 -0.5980  0.0758
 3886TIP3    H135853   5.192   4.830   8.330 -0.0292 -0.3070 -0.8913
 3886TIP3    H235854   5.094   4.715   8.339 -0.4804  0.1602  0.5722
 3887TIP3   OH235855   7.458   1.190   9.087 -0.4966 -0.1705  0.0762
 3887TIP3    H135856   7.400   1.133   9.138 -0.9132  0.4881  0.3620
 3887TIP3    H235857   7.516   1.228   9.152 -0.4043 -0.0587 -0.0734
 3888TIP3   OH235858   2.351   4.198   7.412  0.1308 -0.2258  0.6746
 3888TIP3    H135859   2.346   4.188   7.507  0.7691  0.1176  0.7535
 3888TIP3    H235860   2.382   4.112   7.381  0.0594 -0.2936  0.7901
 3889TIP3   OH235861   6.167   5.683   7.670 -0.4164 -0.4438 -0.1877
 3889TIP3    H135862   6.187   5.653   7.581 -0.3195 -0.2602 -0.2281
 3889TIP3    H235863   6.212   5.620   7.727 -0.2493 -0.4002 -0.2713
 3890TIP3   OH235864   3.825   1.942   7.729  0.1985  0.1645 -0.2706
 3890TIP3    H135865   3.874   1.933   7.648 -1.5347 -0.8604 -1.2786
 3890TIP3    H235866   3.801   1.852   7.752  2.0741  0.2208  2.3648
 3891TIP3   OH235867   4.162   4.843   8.484  0.1097  0.4230 -0.3435
 3891TIP3    H135868   4.211   4.764   8.462 -0.8025  0.1882 -1.6959
 3891TIP3    H235869   4.184   4.905   8.414 -0.7266  0.6468 -0.4192
 3892TIP3   OH235870   3.144   0.593   7.160  0.3198 -0.4223  0.4832
 3892TIP3    H135871   3.118   0.610   7.251  1.2062  0.0869  0.6491
 3892TIP3    H235872   3.061   0.580   7.114 -0.1170 -1.1784  1.4579
 3893TIP3   OH235873   3.474   3.396   9.156 -0.2697  0.1201 -0.3984
 3893TIP3    H135874   3.551   3.453   9.161  0.0486 -0.3272 -0.1758
 3893TIP3    H235875   3.488   3.343   9.078  0.6997 -1.4456  0.7671
 3894TIP3   OH235876   5.857   4.374   8.930 -0.1591  0.0544  0.4152
 3894TIP3    H135877   5.928   4.322   8.967  0.6284  2.2468  2.1608
 3894TIP3    H235878   5.876   4.464   8.954 -2.1387  1.0803 -1.3913
 3895TIP3   OH235879   1.685   2.566   8.838 -0.4486  0.4400  0.4256
 3895TIP3    H135880   1.772   2.568   8.797 -0.6944  0.2541 -0.1173
 3895TIP3    H235881   1.702   2.580   8.931  0.2627 -0.7606  0.4924
 3896TIP3   OH235882   3.725   3.149   7.337  0.1331 -0.6970  0.4416
 3896TIP3    H135883   3.677   3.094   7.275 -2.1335 -1.1407  2.4628
 3896TIP3    H235884   3.725   3.236   7.296 -0.8331 -1.0727 -0.4015
 3897TIP3   OH235885   7.678   2.334   9.598  0.3878  0.2259  0.3911
 3897TIP3    H135886   7.723   2.250   9.583 -1.3211 -0.5455 -0.7563
 3897TIP3    H235887   7.664   2.336   9.693 -1.0578 -1.6670  0.2823
 3898TIP3   OH235888   2.268   7.489   9.100 -0.5643  0.5776  0.3910
 3898TIP3    H135889   2.243   7.411   9.150 -0.4672 -0.5149 -1.2079
 3898TIP3    H235890   2.352   7.515   9.137 -0.6548 -0.0060  1.0232
 3899TIP3   OH235891   1.216   5.167   8.723  0.1107  0.5445  0.7427
 3899TIP3    H135892   1.233   5.249   8.677  0.2796  0.3649  0.4800
 3899TIP3    H235893   1.299   5.118   8.715  0.9713  1.4464  3.2133
 3900TIP3   OH235894   4.409   3.585   9.133  0.4031 -0.3165 -0.3028
 3900TIP3    H135895   4.417   3.553   9.042  1.1718 -0.7287 -0.1003
 3900TIP3    H235896   4.338   3.533   9.170 -2.9209  2.7185 -1.8502
 3901TIP3   OH235897   0.961   6.500   7.913 -0.3252 -0.1299 -0.2276
 3901TIP3    H135898   0.949   6.537   7.826  1.3135 -1.6838 -1.1834
 3901TIP3    H235899   0.933   6.409   7.905  1.0149 -0.6391  0.4837
 3902TIP3   OH235900   0.854   5.811   7.287 -0.5026 -0.4014 -0.1867
 3902TIP3    H135901   0.928   5.770   7.242 -0.7813  0.2644 -1.2743
 3902TIP3    H235902   0.875   5.801   7.380  1.6687  1.0021 -0.4503
 3903TIP3   OH235903   6.099   6.371   9.113 -0.0552  0.3179  0.2052
 3903TIP3    H135904   6.169   6.436   9.122  0.5420 -0.5006  2.0597
 3903TIP3    H235905   6.137   6.302   9.058 -0.2963  1.0157 -0.8455
 3904TIP3   OH235906   3.691   0.915   7.055  0.0479  0.0401  0.1980
 3904TIP3    H135907   3.740   0.920   7.137  0.3133 -0.4957  0.0795
 3904TIP3    H235908   3.756   0.931   6.987 -0.0991  0.1151  0.0747
 3905TIP3   OH235909   0.893   3.168   8.910 -0.4332  0.5365 -0.0249
 3905TIP3    H135910   0.857   3.225   8.842  0.4361  1.9672  0.6638
 3905TIP3    H235911   0.943   3.227   8.967  1.0161 -1.0056  0.3881
 3906TIP3   OH235912   6.401   3.851   8.892 -0.0756  0.2032  0.0178
 3906TIP3    H135913   6.477   3.902   8.861  0.3136  0.7981  1.8527
 3906TIP3    H235914   6.331   3.875   8.832  0.5150  1.6872 -0.1278
 3907TIP3   OH235915   7.365   1.530   8.080 -0.0543 -0.0680  0.3243
 3907TIP3    H135916   7.447   1.559   8.119  0.8323 -3.1738  0.9905
 3907TIP3    H235917   7.307   1.514   8.154 -1.0032  1.1589 -0.1044
 3908TIP3   OH235918   6.132   0.669   9.153  0.2139 -0.2237  0.5659
 3908TIP3    H135919   6.040   0.689   9.170  0.6192  0.8809  1.6887
 3908TIP3    H235920   6.176   0.754   9.161  1.0507 -0.2848 -2.3529
 3909TIP3   OH235921   4.477   0.503   9.021  0.3340  0.2590  0.7399
 3909TIP3    H135922   4.479   0.538   8.932  3.3089 -2.5487 -0.5142
 3909TIP3    H235923   4.503   0.412   9.011 -0.6858 -0.5940  4.4009
 3910TIP3   OH235924   3.212   3.524   9.129  0.2161 -0.6953 -0.2104
 3910TIP3    H135925   3.276   3.519   9.201 -2.2630  2.5023  2.5084
 3910TIP3    H235926   3.128   3.506   9.171 -1.2421  0.1836 -2.5730
 3911TIP3   OH235927   0.886   6.617   9.399  0.2802  0.5125  0.2645
 3911TIP3    H135928   0.820   6.687   9.398 -0.0151  0.2598 -2.1416
 3911TIP3    H235929   0.838   6.539   9.373  1.1471 -0.0976  0.4733
 3912TIP3   OH235930   5.640   4.767   8.456  0.1081  0.1262  0.4709
 3912TIP3    H135931   5.674   4.819   8.383 -0.5142  0.9548  0.7657
 3912TIP3    H235932   5.708   4.701   8.471  0.5091  0.3008 -0.4759
 3913TIP3   OH235933   7.129   2.539   9.305 -0.0574  0.7068  0.2770
 3913TIP3    H135934   7.155   2.455   9.343  2.0968  0.7539 -0.9584
 3913TIP3    H235935   7.079   2.516   9.227  0.2545  0.5602  0.1183
 3914TIP3   OH235936   2.694   0.893   7.826 -0.0207  0.3571 -0.0196
 3914TIP3    H135937   2.722   0.985   7.833 -1.7480  0.9852 -0.6660
 3914TIP3    H235938   2.606   0.893   7.865  0.1282 -1.1313  0.3528
 3915TIP3   OH235939   0.931   1.414   7.226 -0.9215 -0.0686 -0.2596
 3915TIP3    H135940   1.013   1.421   7.274 -0.0782 -1.5271 -1.3957
 3915TIP3    H235941   0.863   1.419   7.294  0.0942  1.0210  0.7081
 3916TIP3   OH235942   6.609   6.174   8.582  0.2853 -0.3614 -0.3624
 3916TIP3    H135943   6.621   6.217   8.497 -0.1442  0.2612 -0.1204
 3916TIP3    H235944   6.648   6.087   8.571 -2.1315 -1.3364 -2.0594
 3917TIP3   OH235945   2.849   5.181   8.216  0.6005  0.2585 -0.4274
 3917TIP3    H135946   2.909   5.109   8.236  0.1668  0.2478  0.9341
 3917TIP3    H235947   2.788   5.144   8.152 -0.2667 -0.9742  1.0258
 3918TIP3   OH235948   6.264   2.219   8.079  0.6818  0.7129  0.2695
 3918TIP3    H135949   6.264   2.296   8.022  2.7418 -1.1852 -2.5457
 3918TIP3    H235950   6.180   2.176   8.062  1.3582  0.0533 -1.6694
 3919TIP3   OH235951   1.241   2.763   8.174 -0.2432 -0.1406  0.0072
 3919TIP3    H135952   1.223   2.730   8.261 -0.0557 -0.2407  0.0099
 3919TIP3    H235953   1.318   2.713   8.145 -0.6446 -0.5025 -0.4376
 3920TIP3   OH235954   7.179   0.566   9.182 -0.1761 -0.1965  0.2562
 3920TIP3    H135955   7.114   0.504   9.215 -0.4622 -0.3111 -0.5033
 3920TIP3    H235956   7.239   0.512   9.131  0.8650 -0.1850  1.4230
 3921TIP3   OH235957   0.739   2.818   7.266 -0.3394 -0.1319  0.0673
 3921TIP3    H135958   0.776   2.751   7.209 -1.3243 -0.3149 -0.3885
 3921TIP3    H235959   0.647   2.823   7.240 -0.9462 -0.5730  1.9566
 3922TIP3   OH235960   1.654   7.548   9.660 -0.1341 -0.2414 -0.1761
 3922TIP3    H135961   1.610   7.477   9.612  0.9719  0.0438 -1.6938
 3922TIP3    H235962   1.734   7.564   9.611 -0.0228  1.6092  0.5207
 3923TIP3   OH235963   1.128   4.309   6.905  0.1923  0.1261 -0.0494
 3923TIP3    H135964   1.158   4.340   6.820 -1.2665 -1.0305 -1.0113
 3923TIP3    H235965   1.203   4.324   6.963  1.7257 -0.3683 -1.8102
 3924TIP3   OH235966   1.087   1.761   7.271 -0.3401 -0.1084 -0.3106
 3924TIP3    H135967   1.088   1.670   7.299  1.4686 -0.2006 -0.5229
 3924TIP3    H235968   1.046   1.809   7.343  1.3591 -0.7341  1.1417
 3925TIP3   OH235969   0.011   2.024   7.335 -0.3370  0.0134 -0.7130
 3925TIP3    H135970   0.064   1.994   7.262  0.4649  2.4443 -1.2397
 3925TIP3    H235971  -0.079   2.001   7.312  0.1929 -1.7373 -1.0986
 3926TIP3   OH235972   0.320   1.257   7.195  0.4493 -0.6590 -0.6208
 3926TIP3    H135973   0.289   1.177   7.151  0.7169 -0.8587 -0.4507
 3926TIP3    H235974   0.242   1.312   7.203  0.1781 -1.0798 -0.3570
 3927TIP3   OH235975   4.267   6.284   7.217 -0.1781 -0.4326 -0.1434
 3927TIP3    H135976   4.262   6.190   7.234 -1.2400 -0.5530 -0.9625
 3927TIP3    H235977   4.329   6.318   7.282 -1.7109 -1.2967  1.8761
 3928TIP3   OH235978   5.174   5.146   6.589 -0.1190  0.3374 -0.0693
 3928TIP3    H135979   5.245   5.178   6.534 -0.8716 -0.1499 -1.3683
 3928TIP3    H235980   5.129   5.081   6.535 -3.1460  2.4815 -0.3587
 3929TIP3   OH235981   3.207   2.629   7.527 -0.8861  0.7675 -0.4731
 3929TIP3    H135982   3.161   2.714   7.529  0.3162  1.4323  0.5922
 3929TIP3    H235983   3.137   2.564   7.530 -1.8450  1.7352  2.8372
 3930TIP3   OH235984   7.550   5.637   9.319 -0.1354  0.2229  0.2534
 3930TIP3    H135985   7.469   5.594   9.345 -0.8964  1.7972  0.6209
 3930TIP3    H235986   7.553   5.625   9.224 -1.0089  0.4577  0.1819
 3931TIP3   OH235987   5.734   7.319   8.694 -0.0820 -0.0306 -0.3364
 3931TIP3    H135988   5.808   7.264   8.721  1.1749  0.6649 -2.1700
 3931TIP3    H235989   5.741   7.397   8.749  1.5486  0.7182 -1.5077
 3932TIP3   OH235990   5.795   3.650   7.839  0.1008 -0.1650  0.0032
 3932TIP3    H135991   5.868   3.711   7.833 -1.6617  2.2636  1.4804
 3932TIP3    H235992   5.754   3.651   7.753 -0.6393  1.8127  0.3352
 3933TIP3   OH235993   6.221   2.335   8.556 -0.0706 -0.2169  0.0754
 3933TIP3    H135994   6.175   2.252   8.564 -0.1831 -0.0182  2.3550
 3933TIP3    H235995   6.267   2.331   8.472 -3.5230 -0.7650 -1.9562
 3934TIP3   OH235996   4.782   0.483   8.396 -0.6566 -0.4262  0.2302
 3934TIP3    H135997   4.692   0.504   8.421 -0.8762  1.3473 -1.7745
 3934TIP3    H235998   4.837   0.537   8.453 -1.0944  2.3787 -1.8097
 3935TIP3   OH235999   1.466   1.913   9.085 -0.7544 -0.7187  0.1769
 3935TIP3    H136000   1.370   1.910   9.081 -0.8301  0.3269  1.0141
 3935TIP3    H236001   1.490   1.982   9.023 -0.4359 -1.8599 -1.0318
 3936TIP3   OH236002   2.474   3.488   9.120  0.2851 -0.2525 -0.4328
 3936TIP3    H136003   2.520   3.405   9.124  1.0429  0.1344 -0.9575
 3936TIP3    H236004   2.422   3.484   9.040 -2.2012 -1.4788  1.1138
 3937TIP3   OH236005   3.857   5.867   8.432  0.1663 -0.4915 -1.0731
 3937TIP3    H136006   3.805   5.926   8.378 -2.2541 -0.8816  0.6683
 3937TIP3    H236007   3.913   5.925   8.484 -2.9924  0.5674  1.4746
 3938TIP3   OH236008   5.511   1.854   7.729  0.0171 -0.4777 -0.1026
 3938TIP3    H136009   5.542   1.877   7.642  0.9716  1.4218  0.6762
 3938TIP3    H236010   5.415   1.857   7.722  0.0820  1.2425 -0.7328
 3939TIP3   OH236011   1.764   5.534   8.795 -0.2175  0.0158  0.5007
 3939TIP3    H136012   1.692   5.575   8.748  0.5669  0.5704 -0.2223
 3939TIP3    H236013   1.724   5.502   8.876 -1.8408 -1.8917 -0.9391
 3940TIP3   OH236014   0.934   1.347   7.681 -0.6996  0.3458  0.3034
 3940TIP3    H136015   0.987   1.287   7.628  0.2145  1.6384 -0.2911
 3940TIP3    H236016   0.846   1.311   7.676  0.0758 -1.8995  1.3612
 3941TIP3   OH236017   7.234   1.948   8.416  0.6191  0.1588  0.0836
 3941TIP3    H136018   7.241   2.026   8.361  2.5985  0.4221  0.6597
 3941TIP3    H236019   7.170   1.971   8.483  0.5179  0.9479 -0.2763
 3942TIP3   OH236020   1.695   4.404   9.316  0.2622 -0.1168 -0.3186
 3942TIP3    H136021   1.776   4.358   9.340  0.6132  0.0030 -1.2206
 3942TIP3    H236022   1.725   4.482   9.270 -0.3717 -0.1717 -0.8343
 3943TIP3   OH236023   2.046   4.069   9.308  0.3756 -0.1698  0.7532
 3943TIP3    H136024   1.996   3.989   9.321 -0.2661  0.1437  0.2862
 3943TIP3    H236025   2.134   4.040   9.284 -0.1127 -0.7514 -0.4095
 3944TIP3   OH236026   0.311   7.373   7.025  0.1267 -0.1593  0.0368
 3944TIP3    H136027   0.366   7.312   6.976 -0.1121 -1.5263  1.3989
 3944TIP3    H236028   0.346   7.459   7.004  0.5059 -0.7335 -1.9149
 3945TIP3   OH236029   2.187   3.701   8.383 -0.2433  0.5060 -0.0901
 3945TIP3    H136030   2.113   3.658   8.340 -0.5533  1.2922 -0.3713
 3945TIP3    H236031   2.261   3.644   8.365 -0.7318 -0.1653 -0.0246
 3946TIP3   OH236032   6.126   7.204   6.728 -0.6336 -0.4258 -0.2984
 3946TIP3    H136033   6.194   7.266   6.752 -0.7070 -0.4363 -0.0589
 3946TIP3    H236034   6.172   7.120   6.722 -0.6984 -0.5081  0.2806
 3947TIP3   OH236035   7.559   1.857   7.851  0.2711 -0.2605 -0.5235
 3947TIP3    H136036   7.543   1.868   7.944  2.1837  0.2152 -0.2044
 3947TIP3    H236037   7.649   1.825   7.846  1.0810  2.0135 -2.2909
 3948TIP3   OH236038   5.165   3.320   9.054  0.2654  0.2064 -0.4943
 3948TIP3    H136039   5.260   3.328   9.051  0.1640  1.6096 -0.7338
 3948TIP3    H236040   5.149   3.257   9.125  1.3892 -1.5445 -1.6980
 3949TIP3   OH236041   0.450   6.354   8.381  0.0656 -0.0459  0.5391
 3949TIP3    H136042   0.406   6.429   8.421  0.1235  1.6055 -2.2568
 3949TIP3    H236043   0.529   6.391   8.342  0.1928 -1.5812 -0.7644
 3950TIP3   OH236044   1.902   7.228   9.185  0.2817  0.1907 -0.2860
 3950TIP3    H136045   1.824   7.198   9.233  1.1593  0.4978  1.4108
 3950TIP3    H236046   1.872   7.238   9.095 -0.8083 -2.9526 -0.4108
 3951TIP3   OH236047   0.754   6.658   8.071  0.3415  0.2568 -0.2666
 3951TIP3    H136048   0.733   6.588   8.133  1.1720 -0.2953 -0.5934
 3951TIP3    H236049   0.843   6.639   8.042  0.0541  0.6212 -1.4641
 3952TIP3   OH236050   2.779   3.354   8.635 -0.1931 -0.0872  0.0027
 3952TIP3    H136051   2.788   3.422   8.568  0.0420 -1.0506 -0.9733
 3952TIP3    H236052   2.748   3.277   8.587 -1.2666 -0.4473  1.2202
 3953TIP3   OH236053   1.719   0.854   7.751  0.3474  0.5631  0.0999
 3953TIP3    H136054   1.690   0.764   7.735  0.2151  0.7409 -0.7152
 3953TIP3    H236055   1.660   0.886   7.819 -0.6280  0.5359 -0.7133
 3954TIP3   OH236056   2.947   2.601   8.674 -0.0655  0.0956  0.4747
 3954TIP3    H136057   2.877   2.663   8.693 -0.1746  0.3865 -0.7476
 3954TIP3    H236058   2.948   2.595   8.578  2.5448  1.2257  0.3471
 3955TIP3   OH236059   2.163   5.340   8.270  0.7776 -0.5197  0.2842
 3955TIP3    H136060   2.204   5.255   8.251  0.7410 -0.5245  0.2251
 3955TIP3    H236061   2.186   5.395   8.195  1.3895 -0.2644  0.6499
 3956TIP3   OH236062   1.919   0.172   7.637  0.2002  0.0996  0.0878
 3956TIP3    H136063   1.904   0.079   7.653 -0.0609 -0.0668 -1.0359
 3956TIP3    H236064   1.997   0.174   7.581 -0.4746  0.4730 -0.8600
 3957TIP3   OH236065   5.013   2.663   8.781 -0.5319 -0.1779  0.4874
 3957TIP3    H136066   5.105   2.686   8.780 -0.5414 -0.0057  1.6456
 3957TIP3    H236067   5.006   2.588   8.722 -0.3217  2.0190 -2.5233
 3958TIP3   OH236068   2.036   2.864   7.741 -0.2645 -0.1465  0.0755
 3958TIP3    H136069   2.002   2.859   7.830 -0.7840 -1.3168 -0.1786
 3958TIP3    H236070   1.987   2.937   7.701  1.7427  2.1167  1.4426
 3959TIP3   OH236071   3.332   2.661   9.061  0.1344  0.0326  0.0093
 3959TIP3    H136072   3.254   2.636   9.011 -0.6355  1.6429  0.3312
 3959TIP3    H236073   3.381   2.718   9.001  0.3181  0.1870  0.3050
 3960TIP3   OH236074   3.191   6.626   7.726 -0.4307 -0.0910 -0.0482
 3960TIP3    H136075   3.245   6.703   7.747 -0.4061 -0.1451  0.0880
 3960TIP3    H236076   3.253   6.560   7.695 -0.6006  0.4422 -1.6307
 3961TIP3   OH236077   5.675   0.943   8.805  0.2864 -0.2947 -0.1221
 3961TIP3    H136078   5.739   0.934   8.876  0.9733  1.9046 -0.3770
 3961TIP3    H236079   5.593   0.963   8.850  0.6425  0.7261  0.1092
 3962TIP3   OH236080   3.890   4.507   7.082 -0.6006  0.2632 -0.2080
 3962TIP3    H136081   3.905   4.571   7.013  0.5567 -0.1029 -0.3042
 3962TIP3    H236082   3.802   4.473   7.063 -0.5075  0.5298 -1.2060
 3963TIP3   OH236083   1.278   0.201   8.164  0.3534 -0.1496 -0.2017
 3963TIP3    H136084   1.327   0.283   8.175 -0.2544 -0.0777  2.5086
 3963TIP3    H236085   1.192   0.229   8.133  0.7495  0.0378 -1.1828
 3964TIP3   OH236086   5.494   5.380   7.610 -0.8170 -0.6943  0.5496
 3964TIP3    H136087   5.507   5.285   7.614 -0.2623 -0.6282  0.4016
 3964TIP3    H236088   5.406   5.394   7.647 -1.3640 -1.3678 -0.4703
 3965TIP3   OH236089   0.055   1.200   7.403  0.7152  0.1039  0.0074
 3965TIP3    H136090   0.117   1.128   7.399  0.8593  0.1988  0.5097
 3965TIP3    H236091   0.093   1.268   7.348  0.9953  0.1136  0.2126
 3966TIP3   OH236092   0.337   6.471   8.728  0.5713  0.4880 -0.0885
 3966TIP3    H136093   0.423   6.473   8.770  0.7232 -1.0322 -0.2573
 3966TIP3    H236094   0.277   6.504   8.795  1.0725 -0.0160  0.6320
 3967TIP3   OH236095   2.356   6.502   8.779 -0.6047 -0.6672 -0.2394
 3967TIP3    H136096   2.381   6.553   8.856  1.1545 -1.8277  0.0043
 3967TIP3    H236097   2.397   6.547   8.705 -3.1713  1.0721 -0.7397
 3968TIP3   OH236098   4.503   4.485   8.563 -0.3293 -0.0426  0.1581
 3968TIP3    H136099   4.506   4.394   8.593 -1.7391  0.1356  0.9008
 3968TIP3    H236100   4.581   4.525   8.603 -0.0158 -0.7701  0.3016
 3969TIP3   OH236101   3.010   7.523   7.811 -0.5989 -0.4270 -0.2660
 3969TIP3    H136102   2.969   7.486   7.889  1.0518 -1.4088  0.1611
 3969TIP3    H236103   2.944   7.511   7.742 -1.5295 -0.8179  0.6657
 3970TIP3   OH236104   4.667   2.358   7.075 -0.0735 -0.4203  0.4950
 3970TIP3    H136105   4.746   2.356   7.128  0.1624 -0.8907  0.1343
 3970TIP3    H236106   4.638   2.267   7.070 -1.0572 -0.1662  1.2380
 3971TIP3   OH236107   0.710   3.714   7.920  0.1060 -0.1067  0.0424
 3971TIP3    H136108   0.765   3.766   7.862 -1.5234  0.4858 -1.0440
 3971TIP3    H236109   0.705   3.766   8.001  1.2358 -0.2437  0.2116
 3972TIP3   OH236110   1.513   0.916   9.524  0.0090  0.6312 -0.1301
 3972TIP3    H136111   1.600   0.906   9.562  0.7773  0.0117 -1.9635
 3972TIP3    H236112   1.519   0.993   9.468 -1.0259  1.3495  0.6890
 3973TIP3   OH236113   3.878   3.484   7.467  0.4598  0.2969  0.3185
 3973TIP3    H136114   3.854   3.566   7.510 -0.8645  0.6193 -0.9841
 3973TIP3    H236115   3.898   3.509   7.376  1.5024 -0.6198  0.2686
 3974TIP3   OH236116   6.925   3.488   7.483 -0.4170  0.1149 -0.0869
 3974TIP3    H136117   6.966   3.454   7.404  1.3379  1.1532  0.3270
 3974TIP3    H236118   6.969   3.443   7.555  0.3481  1.5475  0.3844
 3975TIP3   OH236119   2.912   3.156   7.621 -0.0571  0.2151 -0.0445
 3975TIP3    H136120   2.877   3.148   7.532 -2.4301  1.7495  0.6809
 3975TIP3    H236121   2.868   3.232   7.658  1.6410  0.2408  2.1364
 3976TIP3   OH236122   1.714   1.969   8.024 -0.2900 -0.4397 -0.0010
 3976TIP3    H136123   1.788   2.028   8.037 -0.7270 -0.3355  2.6135
 3976TIP3    H236124   1.638   2.019   8.053 -1.3393 -0.7888 -1.9877
 3977TIP3   OH236125   3.609   5.277   9.456 -0.1455 -0.3152  0.2153
 3977TIP3    H136126   3.638   5.348   9.514 -1.4510  0.1415  0.3324
 3977TIP3    H236127   3.648   5.298   9.371 -0.0941  0.2677  0.3763
 3978TIP3   OH236128   3.082   6.778   8.507  0.5024 -0.5411 -0.0209
 3978TIP3    H136129   3.024   6.854   8.498  1.6424  0.1189 -3.1667
 3978TIP3    H236130   3.044   6.713   8.448  2.2292 -0.5381 -1.1954
 3979TIP3   OH236131   0.306   3.652   7.794  0.0128  0.0259  0.1335
 3979TIP3    H136132   0.396   3.626   7.775 -0.8186 -1.5686 -2.1032
 3979TIP3    H236133   0.273   3.684   7.710 -1.3447  1.1144  1.0553
 3980TIP3   OH236134   0.629   3.893   8.134 -0.4027  0.4002  0.4459
 3980TIP3    H136135   0.658   3.909   8.224 -0.6201  1.2453  0.3736
 3980TIP3    H236136   0.645   3.976   8.089 -1.2240  0.2953 -0.0504
 3981TIP3   OH236137   4.400   4.143   8.144  0.1061 -0.2680  0.3834
 3981TIP3    H136138   4.360   4.210   8.089 -0.4061 -0.4550  0.5262
 3981TIP3    H236139   4.347   4.065   8.130 -0.2925 -0.2047  1.4621
 3982TIP3   OH236140   3.651   7.316   7.407 -0.2268  0.0057  0.4610
 3982TIP3    H136141   3.730   7.321   7.353  0.3273 -2.4754  0.9147
 3982TIP3    H236142   3.643   7.402   7.446 -0.1205  1.6360 -2.7613
 3983TIP3   OH236143   0.128   4.696   7.778 -0.3900  0.2535 -0.1207
 3983TIP3    H136144   0.153   4.644   7.855  0.0961 -0.3844 -0.6991
 3983TIP3    H236145   0.165   4.649   7.704 -4.6710 -1.8282 -1.2954
 3984TIP3   OH236146   6.601   2.278   9.162  0.2682  0.3739 -0.1738
 3984TIP3    H136147   6.560   2.192   9.171  0.6157 -0.2453 -3.4422
 3984TIP3    H236148   6.529   2.340   9.165 -0.4804 -0.3787 -1.6289
 3985TIP3   OH236149   6.013   2.875   7.667 -0.3639 -0.4449  0.1055
 3985TIP3    H136150   5.975   2.793   7.698 -0.5565  0.0505  1.2281
 3985TIP3    H236151   5.938   2.931   7.648 -0.2881 -0.9264 -1.9381
 3986TIP3   OH236152   2.125   3.123   7.569  0.1116 -0.1141  0.4010
 3986TIP3    H136153   2.171   3.116   7.485  1.6923  0.7477  1.1628
 3986TIP3    H236154   2.069   3.201   7.560 -0.9341 -0.9172 -0.3710
 3987TIP3   OH236155   1.819   4.416   8.942  0.1148 -0.1807  0.4824
 3987TIP3    H136156   1.761   4.467   8.886  0.3748 -1.0709 -0.6477
 3987TIP3    H236157   1.761   4.365   8.997 -0.1624 -0.2045  0.1725
 3988TIP3   OH236158   1.649   2.511   7.366 -0.4015  0.4953  0.2323
 3988TIP3    H136159   1.634   2.598   7.330  0.1209  0.5081  0.0462
 3988TIP3    H236160   1.647   2.453   7.290 -0.0115  0.4351  0.2664
 3989TIP3   OH236161   5.962   7.389   9.064  0.0959  0.4465 -0.3483
 3989TIP3    H136162   5.934   7.331   9.135 -0.5587  1.4232  0.2180
 3989TIP3    H236163   5.987   7.470   9.108  1.4535  0.4415 -1.0834
 3990TIP3   OH236164   7.632   2.172   8.498  0.0721  0.0743  0.1384
 3990TIP3    H136165   7.636   2.079   8.518 -1.2429 -0.0531 -0.1430
 3990TIP3    H236166   7.567   2.179   8.428  0.7132  1.1200 -0.3867
 3991TIP3   OH236167   4.883   0.028   9.613  0.7348 -0.2271 -0.0047
 3991TIP3    H136168   4.835  -0.053   9.593  1.6529 -0.6985 -0.3649
 3991TIP3    H236169   4.825   0.076   9.672  0.5497 -1.5549  0.9334
 3992TIP3   OH236170   0.597   1.739   8.882 -0.2929 -0.0164 -0.4163
 3992TIP3    H136171   0.670   1.798   8.861 -0.9545  1.5298  1.4298
 3992TIP3    H236172   0.612   1.663   8.826  1.9451  0.8557 -1.1175
 3993TIP3   OH236173   3.148   1.902   9.161  0.4226 -0.1065 -0.0387
 3993TIP3    H136174   3.235   1.908   9.199 -0.0011 -0.5188  1.0376
 3993TIP3    H236175   3.163   1.907   9.067  1.4475  1.6049  0.1646
 3994TIP3   OH236176   2.038   2.289   8.658  0.8705 -0.5639 -0.1984
 3994TIP3    H136177   1.959   2.332   8.626 -0.0917 -2.2706 -0.1881
 3994TIP3    H236178   2.015   2.197   8.666  1.4845 -0.5892  3.8272
 3995TIP3   OH236179   1.671   0.175   8.974  0.3800 -0.2004 -0.3982
 3995TIP3    H136180   1.583   0.142   8.993  1.1222 -1.3195  1.3598
 3995TIP3    H236181   1.657   0.246   8.912 -1.7724 -0.2832 -0.0858
 3996TIP3   OH236182   1.047   3.537   9.109  0.1393 -0.1591 -0.5661
 3996TIP3    H136183   0.966   3.514   9.063 -0.5907  0.2686  0.4777
 3996TIP3    H236184   1.087   3.604   9.054 -0.8903  0.5916 -0.4407
 3997TIP3   OH236185   6.042   1.506   9.063 -0.3165 -0.3196  0.0188
 3997TIP3    H136186   6.014   1.556   9.140  1.1385  0.4074  0.1085
 3997TIP3    H236187   6.123   1.464   9.089  0.5380  0.4400 -1.2759
 3998TIP3   OH236188   0.736   4.097   9.539  0.1795 -0.4998 -0.7550
 3998TIP3    H136189   0.772   4.170   9.588 -0.1308 -1.5566  1.1571
 3998TIP3    H236190   0.648   4.125   9.514  0.2282 -0.0627 -0.4322
 3999TIP3   OH236191   4.239   0.826   9.266  1.0958 -0.0544  0.1079
 3999TIP3    H136192   4.323   0.861   9.293  1.2706 -1.6916  1.8780
 3999TIP3    H236193   4.222   0.753   9.326 -1.0081 -0.5522 -0.9722
 4000TIP3   OH236194   6.851   1.912   8.372 -0.1236 -0.4989 -0.1420
 4000TIP3    H136195   6.799   1.856   8.431 -0.2591 -2.4556 -2.0216
 4000TIP3    H236196   6.926   1.939   8.425 -0.8406 -1.2200  1.3005
 4001TIP3   OH236197   2.517   7.158   7.542  0.3919  0.8286 -1.0222
 4001TIP3    H136198   2.458   7.134   7.614  0.4176  0.3005 -1.1695
 4001TIP3    H236199   2.502   7.091   7.476  1.6028  0.3277 -0.8181
 4002TIP3   OH236200   1.257   3.129   9.343 -0.0874 -0.0851 -0.5469
 4002TIP3    H136201   1.227   3.062   9.282 -0.8249  0.5710 -0.9332
 4002TIP3    H236202   1.319   3.182   9.293 -1.6507  1.2397 -1.2039
 4003TIP3   OH236203   7.558   1.574   8.253 -0.8599  0.2183 -0.3952
 4003TIP3    H136204   7.638   1.607   8.294 -1.3729  0.4687  0.4111
 4003TIP3    H236205   7.529   1.503   8.310  0.2932 -1.8324 -2.1480
 4004TIP3   OH236206   3.156   3.193   6.679  0.2793  0.2841  0.0811
 4004TIP3    H136207   3.164   3.109   6.634 -0.2725  1.2287 -1.8977
 4004TIP3    H236208   3.091   3.177   6.747  0.8474 -1.1138  0.3332
 4005TIP3   OH236209   2.100   7.580   6.499  0.2695  0.3099  0.3218
 4005TIP3    H136210   2.093   7.676   6.500  0.7050  0.3903 -1.1761
 4005TIP3    H236211   2.174   7.561   6.556  2.6824  1.2058 -2.2891
 4006TIP3   OH236212   0.530   6.192   9.464 -0.1195  0.2118 -0.3252
 4006TIP3    H136213   0.459   6.200   9.528 -1.4197  0.2543 -1.7349
 4006TIP3    H236214   0.510   6.113   9.415  1.2751 -0.2356 -0.2410
 4007TIP3   OH236215   2.732   6.805   7.916 -0.2275  0.4166  0.5177
 4007TIP3    H136216   2.694   6.735   7.864 -0.0412  0.9778 -0.4034
 4007TIP3    H236217   2.800   6.762   7.968  0.4442  0.0353 -0.6344
 4008TIP3   OH236218   3.018   6.378   8.666 -0.1729  0.4014 -0.4500
 4008TIP3    H136219   2.969   6.304   8.703 -0.4427  0.3526 -0.8913
 4008TIP3    H236220   3.002   6.371   8.572  2.0264 -0.5706 -0.8001
 4009TIP3   OH236221   2.515   5.255   7.228 -0.1539  0.0432 -0.0098
 4009TIP3    H136222   2.439   5.245   7.170 -1.1062 -0.1687  1.2345
 4009TIP3    H236223   2.482   5.308   7.301  0.6100 -0.9251  1.0611
 4010TIP3   OH236224   6.085   7.012   8.466  0.0833 -0.3396  0.1610
 4010TIP3    H136225   6.181   7.010   8.473  0.1717  1.7696  0.3471
 4010TIP3    H236226   6.069   7.069   8.390 -1.0317 -0.8572 -0.0041
 4011TIP3   OH236227   4.918   3.733   8.164 -0.1131  0.6047  0.3706
 4011TIP3    H136228   4.903   3.812   8.112  0.9706  1.2309  0.9748
 4011TIP3    H236229   5.005   3.745   8.201 -0.6762 -0.0298  1.9858
 4012TIP3   OH236230   0.196   4.323   7.843  0.1897  0.2612  0.4704
 4012TIP3    H136231   0.258   4.267   7.891 -0.0321  0.0585  0.5207
 4012TIP3    H236232   0.110   4.293   7.873  0.0888  1.3351  1.3091
 4013TIP3   OH236233   6.004   0.442   8.812  0.2510 -0.1983  0.0896
 4013TIP3    H136234   6.084   0.422   8.861 -0.2202 -1.4956  0.3790
 4013TIP3    H236235   6.022   0.412   8.723  0.3898  0.3272 -0.0652
 4014TIP3   OH236236   5.312   7.286   7.940  0.6157 -0.2815  0.0306
 4014TIP3    H136237   5.348   7.374   7.942 -1.5496  0.6766  0.0434
 4014TIP3    H236238   5.297   7.269   7.847 -2.8286  1.1753  0.1600
 4015TIP3   OH236239   7.627   0.414   7.108 -0.5880  0.4800  0.2467
 4015TIP3    H136240   7.613   0.442   7.199  0.5385  0.0076  0.5864
 4015TIP3    H236241   7.683   0.482   7.071 -0.8666  0.5572 -0.0324
 4016TIP3   OH236242   1.226   0.307   8.778 -0.6710  0.9407 -0.2274
 4016TIP3    H136243   1.200   0.367   8.848 -1.1146 -0.5038  0.9063
 4016TIP3    H236244   1.241   0.223   8.822  0.1434  0.2565 -1.7177
 4017TIP3   OH236245   6.375   5.430   8.467  0.1808 -0.0359  0.6576
 4017TIP3    H136246   6.365   5.511   8.418 -0.8633 -1.3708 -1.4927
 4017TIP3    H236247   6.440   5.380   8.417 -0.1513 -1.0398  1.2032
 4018TIP3   OH236248   6.799   7.112   8.775  0.3887 -0.0491  0.4582
 4018TIP3    H136249   6.811   7.035   8.830  1.6262 -1.0161 -1.0547
 4018TIP3    H236250   6.706   7.131   8.778  0.1238 -1.3981  1.1428
 4019TIP3   OH236251   0.974   2.232   8.965  0.1790 -1.2576 -0.0136
 4019TIP3    H136252   1.052   2.288   8.963 -1.1992  0.7693 -1.0765
 4019TIP3    H236253   0.941   2.234   8.875 -1.2185 -1.8506  0.4555
 4020TIP3   OH236254   6.253   5.678   8.883  0.6565 -0.1957  0.1427
 4020TIP3    H136255   6.322   5.628   8.839  1.9833  1.7096 -0.0468
 4020TIP3    H236256   6.228   5.623   8.957  0.8087 -1.9152 -1.0303
 4021TIP3   OH236257   2.572   3.023   8.673  0.6250  0.6206  0.3260
 4021TIP3    H136258   2.659   3.018   8.713  0.3161  1.1910  1.0809
 4021TIP3    H236259   2.533   3.102   8.709  0.1520  0.9069 -0.7584
 4022TIP3   OH236260   4.091   5.936   8.813 -0.4761 -0.5332 -0.7822
 4022TIP3    H136261   4.007   5.897   8.788 -0.1388 -1.2721 -0.7790
 4022TIP3    H236262   4.128   5.875   8.877 -0.7153  0.6429  0.5384
 4023TIP3   OH236263   1.234   1.517   8.621 -0.4157 -0.2207  0.3229
 4023TIP3    H136264   1.237   1.602   8.665 -0.4497  0.3613 -0.7481
 4023TIP3    H236265   1.207   1.538   8.531 -0.8131 -1.4091  0.1464
 4024TIP3   OH236266   0.455   5.987   9.282  0.6876  0.2947 -0.1111
 4024TIP3    H136267   0.483   5.979   9.191  0.6657  0.3414 -0.1216
 4024TIP3    H236268   0.360   5.997   9.277  0.5263 -1.0368 -0.0188
 4025TIP3   OH236269   2.435   2.989   8.450 -0.1031  0.4424 -0.2017
 4025TIP3    H136270   2.463   2.902   8.420  0.4954  0.9286 -1.0844
 4025TIP3    H236271   2.490   3.005   8.527 -0.1331  0.0975 -0.1024
 4026TIP3   OH236272   2.423   4.465   7.505  0.7035 -0.7737 -0.2816
 4026TIP3    H136273   2.354   4.423   7.454 -0.6191 -0.3356  1.0852
 4026TIP3    H236274   2.422   4.556   7.476  1.3935 -0.9582 -0.9386
 4027TIP3   OH236275   1.827   4.278   7.943 -0.4498  0.3776  0.4201
 4027TIP3    H136276   1.736   4.297   7.919 -0.5559  1.5747  1.6453
 4027TIP3    H236277   1.862   4.362   7.970  0.2216 -0.5191  2.5046
 4028TIP3   OH236278   5.739   3.079   8.358 -0.0583  0.2677  0.1624
 4028TIP3    H136279   5.774   2.991   8.374 -1.6549 -0.4135  0.1895
 4028TIP3    H236280   5.767   3.130   8.434 -0.0296 -0.5322  0.7058
 4029TIP3   OH236281   0.492   4.894   8.658 -0.1902 -0.0445 -0.1792
 4029TIP3    H136282   0.528   4.811   8.627  0.5092  0.4534 -0.7340
 4029TIP3    H236283   0.524   4.959   8.596 -0.0627  0.7587  0.6966
 4030TIP3   OH236284   7.624   0.372   8.547 -0.1754  0.4393 -0.1157
 4030TIP3    H136285   7.592   0.325   8.624 -0.1113  1.8988  0.8481
 4030TIP3    H236286   7.719   0.370   8.555 -0.1440 -0.0421 -0.5654
 4031TIP3   OH236287   0.967   4.610   8.765  0.1625  0.2971  0.2245
 4031TIP3    H136288   0.885   4.643   8.803 -0.8291 -1.8831  0.1366
 4031TIP3    H236289   1.032   4.626   8.833 -1.1156 -1.3318  1.9435
 4032TIP3   OH236290   3.745   2.138   8.325 -0.1013  0.0460 -0.0202
 4032TIP3    H136291   3.837   2.154   8.347 -0.6313  1.1056  1.5303
 4032TIP3    H236292   3.749   2.071   8.256  1.8073 -0.1592  0.2254
 4033TIP3   OH236293   4.474   2.037   7.110 -0.1102  0.3755 -0.0658
 4033TIP3    H136294   4.538   2.038   7.039 -0.2329  0.3743 -0.1751
 4033TIP3    H236295   4.390   2.022   7.068 -0.3160  1.3490 -0.0249
 4034TIP3   OH236296   0.557   4.299   9.479  0.8653  0.4698 -0.9247
 4034TIP3    H136297   0.614   4.372   9.455 -0.3176  1.5334 -0.6348
 4034TIP3    H236298   0.469   4.329   9.456  0.4220 -1.2206 -1.5956
 4035TIP3   OH236299   5.939   4.132   7.432  0.6073  0.5011  0.4804
 4035TIP3    H136300   5.957   4.159   7.342 -0.2270  0.7386  0.3704
 4035TIP3    H236301   5.994   4.055   7.445  0.3224  0.1238 -0.4348
 4036TIP3   OH236302   3.876   5.320   8.990  0.3709  0.2518  0.6767
 4036TIP3    H136303   3.905   5.229   8.992 -2.9141 -0.9035  3.2390
 4036TIP3    H236304   3.916   5.360   9.067  0.5963  0.5880  0.3903
 4037TIP3   OH236305   0.699   5.248   7.418  0.3316  0.8821 -0.3466
 4037TIP3    H136306   0.742   5.193   7.483 -1.3926 -1.5244 -1.1099
 4037TIP3    H236307   0.751   5.235   7.338 -0.0212  0.4163 -0.5035
 4038TIP3   OH236308   7.070   4.354   7.460 -0.2003  0.4887  0.3126
 4038TIP3    H136309   7.134   4.420   7.435 -0.4653 -0.0940 -2.1572
 4038TIP3    H236310   6.990   4.378   7.413 -0.6695 -0.8596  0.3564
 4039TIP3   OH236311   7.193   7.228   8.154  0.4142  0.7197 -0.4394
 4039TIP3    H136312   7.167   7.144   8.117  1.6226  0.6582 -1.1819
 4039TIP3    H236313   7.201   7.211   8.248 -0.0762  0.2099 -0.4805
 4040TIP3   OH236314   2.263   5.739   8.949 -0.0983  0.0686  0.9444
 4040TIP3    H136315   2.206   5.789   8.890  0.0002  1.6211  2.0986
 4040TIP3    H236316   2.252   5.648   8.922 -0.4510  0.6592 -1.1254
 4041TIP3   OH236317   0.173   1.009   9.065  0.0806  0.1854  0.2333
 4041TIP3    H136318   0.078   0.998   9.069 -0.1380  1.9316  0.6216
 4041TIP3    H236319   0.186   1.102   9.045  1.7063  0.1734  1.0164
 4042TIP3   OH236320   7.192   4.761   6.934 -0.3888  0.0115 -0.1151
 4042TIP3    H136321   7.218   4.837   6.882  1.3158 -0.2270  0.3204
 4042TIP3    H236322   7.114   4.789   6.981 -0.7395  0.9280 -1.1865
 4043TIP3   OH236323   0.553   6.045   8.161  0.3324  0.2984 -0.2070
 4043TIP3    H136324   0.577   5.983   8.230  0.5040 -1.2179 -1.5620
 4043TIP3    H236325   0.630   6.102   8.153  2.1978 -2.2191 -2.0032
 4044TIP3   OH236326   1.166   4.988   9.202  0.0731  0.0181  0.0216
 4044TIP3    H136327   1.176   5.083   9.208 -1.3105  0.1951 -0.0793
 4044TIP3    H236328   1.195   4.966   9.114 -0.2704  0.4583 -0.2057
 4045TIP3   OH236329   6.287   1.531   8.833  0.9272  0.3677 -0.1722
 4045TIP3    H136330   6.199   1.512   8.800  1.7335 -1.7098 -1.2864
 4045TIP3    H236331   6.288   1.491   8.920  0.7710  0.3902 -0.1589
 4046TIP3   OH236332   6.917   2.852   7.172  0.6232  0.1039 -0.4794
 4046TIP3    H136333   6.833   2.897   7.160  0.5956  0.5898  1.3236
 4046TIP3    H236334   6.904   2.766   7.131 -0.3855  0.5554 -1.1546
 4047TIP3   OH236335   6.853   3.845   7.867 -0.1219  0.3725 -0.6498
 4047TIP3    H136336   6.781   3.873   7.811  0.2620  1.7502 -0.4766
 4047TIP3    H236337   6.932   3.857   7.814 -0.0028 -1.3344 -0.9196
 4048TIP3   OH236338   2.274   3.975   7.073 -0.2789 -0.2043 -0.5293
 4048TIP3    H136339   2.334   4.038   7.034  0.8808 -1.2979 -0.5991
 4048TIP3    H236340   2.331   3.908   7.112 -1.4303 -0.3717  0.9825
 4049TIP3   OH236341   4.115   0.599   7.045 -0.3157 -0.5212 -0.2937
 4049TIP3    H136342   4.122   0.598   6.950 -2.8600 -1.6954 -0.5436
 4049TIP3    H236343   4.101   0.691   7.067  0.9535 -0.1394 -0.9304
 4050TIP3   OH236344   2.893   7.081   7.959  0.4864 -0.3286  0.2473
 4050TIP3    H136345   2.975   7.040   7.932  1.0150  0.2634  0.8878
 4050TIP3    H236346   2.846   7.013   8.007  0.9643 -0.4412  0.5601
 4051TIP3   OH236347   3.802   6.229   8.945  0.4434  0.0338  0.3013
 4051TIP3    H136348   3.725   6.180   8.918  0.7740  0.2813 -1.1424
 4051TIP3    H236349   3.769   6.295   9.006 -0.3480 -0.4032  0.3491
 4052TIP3   OH236350   0.930   4.065   9.339 -0.2847  0.1573  1.0956
 4052TIP3    H136351   0.865   4.093   9.403 -1.2245  0.2466  0.1311
 4052TIP3    H236352   1.013   4.097   9.374 -1.1050  2.8871  0.8252
 4053TIP3   OH236353   1.465   1.545   8.184 -0.0201  0.2542  0.2181
 4053TIP3    H136354   1.430   1.632   8.203  0.3229  0.4379  0.0213
 4053TIP3    H236355   1.539   1.562   8.126  0.0178 -0.1743  0.1417
 4054TIP3   OH236356   5.141   3.986   7.197 -0.9963  0.6443  0.0819
 4054TIP3    H136357   5.160   3.896   7.225  1.3114  1.4642  1.4267
 4054TIP3    H236358   5.163   3.988   7.104 -2.2395 -0.4382 -0.2687
 4055TIP3   OH236359   4.106   4.111   7.863  0.6560  0.2659 -0.2046
 4055TIP3    H136360   4.081   4.143   7.777 -1.7153 -1.2169 -0.1451
 4055TIP3    H236361   4.180   4.052   7.847  0.9410  0.8501 -1.0634
 4056TIP3   OH236362   5.068   2.901   7.901 -0.1663  0.2960  0.6833
 4056TIP3    H136363   5.000   2.841   7.933 -2.9391  2.9037  0.0703
 4056TIP3    H236364   5.045   2.916   7.809  1.7557  0.6438  0.2286
 4057TIP3   OH236365   1.805   0.581   9.129 -0.5446  0.2134 -0.1788
 4057TIP3    H136366   1.712   0.564   9.146 -0.4449  0.0582  0.2127
 4057TIP3    H236367   1.840   0.498   9.099 -0.4711  0.2040 -0.0659
 4058TIP3   OH236368   7.239   1.352   8.572 -0.3773 -0.0663  0.3860
 4058TIP3    H136369   7.236   1.439   8.612 -2.8135  0.0683  0.0881
 4058TIP3    H236370   7.192   1.296   8.635 -0.8659 -0.6508 -0.4802
 4059TIP3   OH236371   6.879   5.396   9.266 -0.2832  0.2178 -0.0500
 4059TIP3    H136372   6.947   5.407   9.200 -0.2525 -0.9088 -0.2207
 4059TIP3    H236373   6.797   5.406   9.218 -0.2569  0.4281 -0.0549
 4060TIP3   OH236374   5.711   1.510   7.717  0.1355  0.1854 -0.7360
 4060TIP3    H136375   5.628   1.514   7.763  0.5448 -0.4230  0.0676
 4060TIP3    H236376   5.695   1.557   7.635 -1.0114  0.0128 -0.6221
 4061TIP3   OH236377   5.341   0.801   6.834 -0.4028 -0.1420 -0.3910
 4061TIP3    H136378   5.256   0.757   6.835 -0.9252  0.8548  0.1111
 4061TIP3    H236379   5.378   0.784   6.920 -0.8338  0.8167 -0.0081
 4062TIP3   OH236380   5.541   5.408   8.841 -0.0141  0.6249  0.1194
 4062TIP3    H136381   5.596   5.332   8.820  1.0838  1.0621  1.3266
 4062TIP3    H236382   5.487   5.379   8.914 -1.3132  0.2639 -0.9309
 4063TIP3   OH236383   2.811   3.989   8.039 -0.0712 -0.3999  0.0828
 4063TIP3    H136384   2.841   3.929   7.971  4.8217  1.6676 -0.0350
 4063TIP3    H236385   2.793   4.071   7.992 -0.9873 -0.1336  0.8599
 4064TIP3   OH236386   2.679   2.714   9.457  0.0173 -0.1758  0.0293
 4064TIP3    H136387   2.774   2.706   9.465  0.0984  0.2140 -0.4613
 4064TIP3    H236388   2.646   2.700   9.545  0.4749 -1.0252  0.0779
 4065TIP3   OH236389   5.146   0.572   7.868 -0.0330  0.1421  0.4367
 4065TIP3    H136390   5.052   0.575   7.853 -0.2365 -0.3181  1.5317
 4065TIP3    H236391   5.185   0.581   7.780 -1.0827  0.3298 -0.0229
 4066TIP3   OH236392   1.333   4.295   9.060  0.6021  0.5522 -0.5468
 4066TIP3    H136393   1.246   4.262   9.037  0.8071  0.3637 -1.0482
 4066TIP3    H236394   1.378   4.307   8.977  0.6752  1.7241 -0.3601
 4067TIP3   OH236395   3.205   4.380   7.100 -1.0656 -0.0189 -0.2248
 4067TIP3    H136396   3.283   4.436   7.095 -0.2624 -1.0321  0.3100
 4067TIP3    H236397   3.224   4.320   7.172 -1.1862 -1.9964 -1.7411
 4068TIP3   OH236398   2.336   7.143   7.011 -0.2362 -0.3785  0.1071
 4068TIP3    H136399   2.302   7.182   7.091 -0.2046  2.3911 -1.1013
 4068TIP3    H236400   2.272   7.169   6.944 -0.1548 -2.4353 -0.8289
 4069TIP3   OH236401   6.181   3.481   8.502 -0.8138 -0.0586 -0.1282
 4069TIP3    H136402   6.130   3.513   8.577 -2.6876 -2.9962  0.0316
 4069TIP3    H236403   6.240   3.416   8.539 -1.8573 -1.6491 -1.1115
 4070TIP3   OH236404   2.179   3.895   8.981 -0.3290  0.0283  0.2595
 4070TIP3    H136405   2.163   3.831   8.911  0.3978 -2.5266  2.2886
 4070TIP3    H236406   2.236   3.849   9.043  0.1965  2.6715  1.8737
 4071TIP3   OH236407   5.285   5.398   8.145  0.3178 -0.1853 -0.3345
 4071TIP3    H136408   5.363   5.384   8.200 -0.4931  0.4046  1.0155
 4071TIP3    H236409   5.223   5.444   8.202 -0.2517  1.2699 -2.0170
 4072TIP3   OH236410   7.197   4.533   8.365  0.3742  0.2423  0.5042
 4072TIP3    H136411   7.183   4.564   8.455 -0.3458  1.8972 -0.1293
 4072TIP3    H236412   7.114   4.494   8.340  0.3139  0.5077  0.2902
 4073TIP3   OH236413   6.884   7.025   9.317  0.2572 -0.2104  0.3101
 4073TIP3    H136414   6.946   6.952   9.316 -1.0162 -1.3411  0.9935
 4073TIP3    H236415   6.804   6.990   9.278 -0.8270  0.3660  1.9095
 4074TIP3   OH236416   2.304   6.230   7.783 -0.0153  0.0518 -0.5258
 4074TIP3    H136417   2.322   6.314   7.740 -1.4181  0.0366 -1.2275
 4074TIP3    H236418   2.254   6.253   7.861  1.5010 -0.0060  0.4892
 4075TIP3   OH236419   0.687   3.383   7.161 -0.1168  0.3376 -0.5421
 4075TIP3    H136420   0.687   3.300   7.114 -0.4294  0.6991 -1.2027
 4075TIP3    H236421   0.631   3.368   7.237  0.2622 -0.2085 -0.3633
 4076TIP3   OH236422   7.540   3.637   7.925  0.3364  0.4591 -0.1503
 4076TIP3    H136423   7.460   3.666   7.969 -0.7063 -3.0039  0.5712
 4076TIP3    H236424   7.607   3.638   7.993  0.0221  0.0751  0.1679
 4077TIP3   OH236425   0.092   5.594   8.379 -0.5593 -0.8486 -0.4050
 4077TIP3    H136426   0.158   5.608   8.310 -0.5880  2.4935  0.0825
 4077TIP3    H236427   0.025   5.541   8.337  1.1961 -2.1867 -1.7019
 4078TIP3   OH236428   4.555   2.165   9.389 -1.0855 -0.6006  0.2265
 4078TIP3    H136429   4.518   2.206   9.311 -2.0301 -1.4086  0.2308
 4078TIP3    H236430   4.608   2.234   9.430 -1.3887  0.1295 -0.5890
 4079TIP3   OH236431   7.413   4.587   7.312  0.0612  0.3848 -0.2125
 4079TIP3    H136432   7.477   4.549   7.252  0.3564  1.9498 -0.9259
 4079TIP3    H236433   7.382   4.512   7.363  2.4603 -0.4306  0.1873
 4080TIP3   OH236434   7.676   5.288   7.497 -0.1699  0.2252  0.4458
 4080TIP3    H136435   7.733   5.312   7.424 -1.6587  0.8878 -0.5347
 4080TIP3    H236436   7.737   5.266   7.568  1.3576  3.1738  0.2170
 4081TIP3   OH236437   5.126   5.583   7.953  0.3857 -0.1050  0.0266
 4081TIP3    H136438   5.152   5.663   7.998  2.0971 -1.0702  0.8524
 4081TIP3    H236439   5.054   5.548   8.005  0.3023  0.3849  0.2392
 4082TIP3   OH236440   5.120   3.507   8.867 -0.5281 -0.0763  0.2045
 4082TIP3    H136441   5.140   3.451   8.942  3.0291  0.9418  0.1870
 4082TIP3    H236442   5.078   3.448   8.804 -1.2118 -1.5610  1.9595
 4083TIP3   OH236443   2.988   5.999   8.223 -0.5245 -0.2299 -0.1706
 4083TIP3    H136444   2.940   5.930   8.178 -1.9063  1.0868 -0.7768
 4083TIP3    H236445   2.923   6.041   8.279  0.6887 -0.4915  1.5314
 4084TIP3   OH236446   0.833   5.976   9.124  0.3154  0.0992  0.3907
 4084TIP3    H136447   0.850   5.970   9.218  1.3343 -1.1506  0.1415
 4084TIP3    H236448   0.913   6.013   9.087  0.2678 -0.2683 -0.0904
 4085TIP3   OH236449   7.503   7.409   9.126  0.1084 -0.4702 -0.3794
 4085TIP3    H136450   7.534   7.495   9.098  2.4165 -1.0197  0.2611
 4085TIP3    H236451   7.524   7.351   9.054 -1.1225 -0.5938 -0.6615
 4086TIP3   OH236452   2.019   2.275   7.617 -0.3849 -0.4845 -0.5621
 4086TIP3    H136453   1.947   2.226   7.575 -0.8968  1.4334 -2.0573
 4086TIP3    H236454   2.087   2.278   7.550 -0.3891  0.8757 -0.5138
 4087TIP3   OH236455   4.428   7.344   8.326  0.0358 -0.5102 -0.1070
 4087TIP3    H136456   4.413   7.250   8.333  1.6338 -0.6928  1.5733
 4087TIP3    H236457   4.367   7.383   8.389  0.7905 -0.6037  0.6971
 4088TIP3   OH236458   3.765   3.951   7.809  0.0663 -0.5227 -0.0947
 4088TIP3    H136459   3.775   4.038   7.769 -0.7748  0.3395  1.4511
 4088TIP3    H236460   3.785   3.890   7.739  1.3357  0.9247 -1.0615
 4089TIP3   OH236461   5.065   1.911   7.528 -0.4928 -0.6513  0.0751
 4089TIP3    H136462   4.988   1.962   7.502 -0.5718  0.1871  1.8086
 4089TIP3    H236463   5.056   1.829   7.481 -0.8503  0.5603 -2.1047
 4090TIP3   OH236464   6.688   6.907   9.189  0.1757  0.0725  0.1403
 4090TIP3    H136465   6.666   6.813   9.188 -1.0955  0.3505  0.5739
 4090TIP3    H236466   6.606   6.950   9.214  0.6336  1.3401 -0.5096
 4091TIP3   OH236467   5.037   4.484   7.403  0.8584  0.4430  0.1200
 4091TIP3    H136468   4.958   4.531   7.432  0.1878  0.4282 -1.6001
 4091TIP3    H236469   5.015   4.451   7.316  2.0783 -1.2868  0.4293
 4092TIP3   OH236470   2.391   5.405   8.475  0.0779  0.4213 -0.0431
 4092TIP3    H136471   2.463   5.446   8.523 -0.2692  1.0958 -0.0862
 4092TIP3    H236472   2.388   5.315   8.508  0.4367  0.6152  0.5261
 4093TIP3   OH236473   6.283   2.746   7.992 -0.4098 -0.0182  0.2323
 4093TIP3    H136474   6.273   2.720   8.083 -3.2690 -2.2433 -0.5658
 4093TIP3    H236475   6.359   2.804   7.991 -1.0935  1.2084  4.2093
 4094TIP3   OH236476   2.756   1.663   8.134  0.3254  0.4549 -0.1815
 4094TIP3    H136477   2.746   1.645   8.227 -0.9406  0.2485 -0.3449
 4094TIP3    H236478   2.669   1.649   8.097  0.6635  1.1470 -1.2947
 4095TIP3   OH236479   0.289   1.001   7.367  0.1457  0.3263 -0.1951
 4095TIP3    H136480   0.212   0.946   7.371 -0.0638  0.6685  0.8980
 4095TIP3    H236481   0.317   0.998   7.276 -0.6638 -0.4703 -0.4224
 4096TIP3   OH236482   3.011   6.719   7.210  0.1073  0.7247 -0.3313
 4096TIP3    H136483   2.964   6.771   7.274 -0.8115 -0.3383 -0.1138
 4096TIP3    H236484   3.100   6.756   7.209 -0.5188  2.3092 -0.2500
 4097TIP3   OH236485   1.375   1.103   8.322 -0.1992  0.3479  0.2886
 4097TIP3    H136486   1.336   1.171   8.378  0.2789  1.9784 -1.2738
 4097TIP3    H236487   1.464   1.093   8.356 -0.9740 -1.2997  2.0299
 4098TIP3   OH236488   0.795   1.269   8.423  1.0282  0.4220 -0.1075
 4098TIP3    H136489   0.753   1.204   8.367 -0.1291 -0.0175  1.2189
 4098TIP3    H236490   0.737   1.345   8.420  1.6623  0.9031 -0.5522
 4099TIP3   OH236491   6.091   5.679   8.472  0.3873  0.1597  0.0369
 4099TIP3    H136492   6.013   5.649   8.519  0.5714  0.2462  0.4021
 4099TIP3    H236493   6.060   5.696   8.383  0.3028 -1.2282 -0.2258
 4100TIP3   OH236494   0.825   4.833   8.933  0.4036 -0.3391  0.3833
 4100TIP3    H136495   0.793   4.806   9.019  0.1980  2.9287  1.4786
 4100TIP3    H236496   0.757   4.893   8.901  1.1236 -0.4648 -1.4885
 4101TIP3   OH236497   2.181   6.409   8.521 -0.8032 -0.4524  0.0450
 4101TIP3    H136498   2.224   6.456   8.592  0.8913 -1.1674 -0.4556
 4101TIP3    H236499   2.230   6.328   8.513 -1.5177 -0.7748 -1.3605
 4102TIP3   OH236500   6.516   4.881   8.353 -0.3474 -0.1139 -0.8590
 4102TIP3    H136501   6.448   4.899   8.418  0.4754  2.0923 -0.5091
 4102TIP3    H236502   6.590   4.850   8.405 -0.4406 -0.6247 -1.0256
 4103TIP3   OH236503   3.583   2.815   9.266 -0.6211 -0.3545 -0.1260
 4103TIP3    H136504   3.667   2.772   9.282 -0.1069  0.5833 -0.2107
 4103TIP3    H236505   3.559   2.789   9.177 -0.2681 -0.3886 -0.2124
 4104TIP3   OH236506   1.832   1.773   7.519  0.1464  0.0417 -0.4514
 4104TIP3    H136507   1.805   1.721   7.595  0.3248  0.2661 -0.2332
 4104TIP3    H236508   1.798   1.724   7.444 -0.5059  0.0944 -0.2039
 4105TIP3   OH236509   7.110   0.372   7.973  0.2054  0.3605 -0.2503
 4105TIP3    H136510   7.139   0.335   7.890 -0.3904 -0.7121  0.0028
 4105TIP3    H236511   7.189   0.413   8.010  0.9646 -0.9012 -0.4192
 4106TIP3   OH236512   0.352   2.912   7.620 -0.4291  0.2916 -0.1285
 4106TIP3    H136513   0.321   2.920   7.710 -1.2145  2.2599 -0.5188
 4106TIP3    H236514   0.380   2.821   7.612 -1.2758 -0.1876  1.7994
 4107TIP3   OH236515   3.402   2.819   7.439 -0.2225  0.1406 -0.4805
 4107TIP3    H136516   3.377   2.862   7.520  0.7310 -0.0719 -0.0524
 4107TIP3    H236517   3.349   2.739   7.437  1.2350 -0.9658  1.0672
 4108TIP3   OH236518   0.227   6.390   7.721 -0.2066 -0.2891  0.5560
 4108TIP3    H136519   0.269   6.462   7.768  0.2179 -0.2370  0.1032
 4108TIP3    H236520   0.267   6.311   7.758  1.1573 -0.2040 -0.6768
 4109TIP3   OH236521   4.306   2.531   9.138 -0.4456  0.7778 -0.0116
 4109TIP3    H136522   4.373   2.526   9.205 -0.4852 -0.0807 -0.0350
 4109TIP3    H236523   4.313   2.449   9.090  0.0733  1.6513 -1.5294
 4110TIP3   OH236524   5.444   2.093   8.032  0.1244 -0.1923 -0.1299
 4110TIP3    H136525   5.370   2.122   7.979 -0.5008 -1.8420 -0.2281
 4110TIP3    H236526   5.404   2.039   8.101  0.9540  1.5175  1.7825
 4111TIP3   OH236527   4.854   2.877   8.984  0.0711 -0.0726  0.0612
 4111TIP3    H136528   4.849   2.870   8.889  0.7481  1.1256 -0.0803
 4111TIP3    H236529   4.904   2.957   9.000 -0.5217  0.0520  1.4370
 4112TIP3   OH236530   0.602   3.169   6.997 -0.3504  0.1003 -0.3136
 4112TIP3    H136531   0.597   3.163   6.902 -0.1454  2.7007 -0.5641
 4112TIP3    H236532   0.532   3.113   7.028  0.9679 -2.5950 -1.8499
 4113TIP3   OH236533   2.425   2.321   9.226  0.4488  0.4734  0.2822
 4113TIP3    H136534   2.519   2.334   9.208  0.1640 -0.8829 -2.9393
 4113TIP3    H236535   2.382   2.347   9.145 -1.9880  0.7115  1.5726
 4114TIP3   OH236536   0.332   1.219   8.149  0.2570  0.4638  0.3066
 4114TIP3    H136537   0.384   1.150   8.107  1.6708  2.1112 -0.7863
 4114TIP3    H236538   0.244   1.206   8.116  1.0363  0.7673 -2.0355
 4115TIP3   OH236539   3.900   0.883   7.993  0.1324  0.2186  0.3355
 4115TIP3    H136540   3.876   0.829   8.068 -0.5196  0.9261  0.6385
 4115TIP3    H236541   3.907   0.972   8.028  0.9172  0.3895 -0.2189
 4116TIP3   OH236542   0.948   2.758   8.002 -0.0967  0.2158 -0.3106
 4116TIP3    H136543   1.025   2.814   8.005 -0.0566  0.2271 -1.2602
 4116TIP3    H236544   0.978   2.674   8.037  0.1079  0.4804  0.1602
 4117TIP3   OH236545   1.416   2.123   6.971 -0.1292  0.2771 -0.0232
 4117TIP3    H136546   1.467   2.129   6.890  0.1635  0.9399  0.2022
 4117TIP3    H236547   1.359   2.200   6.970 -0.8913 -0.2820 -0.1095
 4118TIP3   OH236548   1.892   6.213   7.682 -0.6881 -0.0775  0.1429
 4118TIP3    H136549   1.817   6.224   7.624 -0.1004  0.2819 -0.5747
 4118TIP3    H236550   1.856   6.179   7.763 -1.5995 -0.0730 -0.2552
 4119TIP3   OH236551   3.418   6.524   8.424  0.1536 -0.4614 -0.0444
 4119TIP3    H136552   3.396   6.452   8.483 -1.2633  0.4191  0.5619
 4119TIP3    H236553   3.462   6.588   8.479 -0.4833  0.0304 -0.0940
 4120TIP3   OH236554   3.377   0.808   7.491 -0.1358  0.2776 -0.4379
 4120TIP3    H136555   3.375   0.889   7.440 -1.2069  0.4244 -0.1951
 4120TIP3    H236556   3.413   0.834   7.576 -0.6673  0.5504 -0.2908
 4121TIP3   OH236557   1.026   1.937   7.733 -0.1405 -0.2797 -0.0539
 4121TIP3    H136558   1.050   1.998   7.804 -1.2510  1.7137 -1.3038
 4121TIP3    H236559   1.056   1.852   7.764  2.5999  1.0329  1.2916
 4122TIP3   OH236560   6.478   5.321   8.102  0.2781  0.0205  0.3387
 4122TIP3    H136561   6.386   5.300   8.118  0.0706  0.9332  0.3818
 4122TIP3    H236562   6.525   5.239   8.122 -0.4154 -0.1431  1.3907
 4123TIP3   OH236563   6.409   5.305   9.200 -0.3718 -0.1500 -0.0771
 4123TIP3    H136564   6.384   5.218   9.233 -2.5203  0.9542  1.4050
 4123TIP3    H236565   6.477   5.335   9.260 -0.9848 -0.0419  0.5718
 4124TIP3   OH236566   2.923   3.336   8.135  0.2187 -0.2968 -0.3080
 4124TIP3    H136567   2.883   3.346   8.049  0.4654  0.5511 -0.3353
 4124TIP3    H236568   3.017   3.347   8.120  0.2267  0.2795  0.1236
 4125TIP3   OH236569   5.615   5.656   8.216 -0.0712 -0.1490  0.6227
 4125TIP3    H136570   5.649   5.719   8.153 -2.3280  1.3549  0.7982
 4125TIP3    H236571   5.571   5.709   8.282 -4.4223 -1.7645 -0.5868
 4126TIP3   OH236572   5.793   5.468   7.592  0.0723  0.0694  0.5384
 4126TIP3    H136573   5.839   5.495   7.671 -0.1046  3.9891 -0.5059
 4126TIP3    H236574   5.700   5.475   7.615  0.0163  0.4026  0.2048
 4127TIP3   OH236575   0.690   5.011   7.761  0.2185 -0.2339 -0.8449
 4127TIP3    H136576   0.751   4.940   7.782 -1.0233 -1.1007  0.0188
 4127TIP3    H236577   0.605   4.968   7.755 -0.1802  0.7406 -3.2288
 4128TIP3   OH236578   4.417   3.894   9.072 -0.2475  0.3335  0.2748
 4128TIP3    H136579   4.436   3.825   9.135  0.8016 -0.5703 -0.9852
 4128TIP3    H236580   4.342   3.861   9.022 -2.0255  1.6748  1.9151
 4129TIP3   OH236581   4.555   0.421   7.574 -1.0974 -0.0525 -0.7733
 4129TIP3    H136582   4.586   0.391   7.659  0.4354  2.2175 -0.4390
 4129TIP3    H236583   4.635   0.427   7.521 -1.6440  1.1397 -1.5046
 4130TIP3   OH236584   6.744   5.508   8.460  0.1621 -0.2019 -0.3185
 4130TIP3    H136585   6.744   5.413   8.462  0.6066 -0.2193 -0.8589
 4130TIP3    H236586   6.827   5.531   8.419 -0.3089  0.3950 -0.9611
 4131TIP3   OH236587   7.087   4.054   8.495 -0.0922  0.0913 -0.5244
 4131TIP3    H136588   7.146   4.111   8.543  0.1779 -1.8384  1.6387
 4131TIP3    H236589   7.003   4.062   8.540 -0.7458  0.6475 -1.7822
 4132TIP3   OH236590   7.341   6.230   8.745  0.5297  0.5302  0.3340
 4132TIP3    H136591   7.339   6.187   8.659  3.0215  1.4754 -0.3048
 4132TIP3    H236592   7.434   6.239   8.765  0.0340  0.1427  3.2981
 4133TIP3   OH236593   7.587   0.931   8.330  0.2832 -0.0613  0.0743
 4133TIP3    H136594   7.532   0.853   8.323 -0.8496  0.8161 -1.5251
 4133TIP3    H236595   7.526   1.004   8.318  1.5071  1.0334  0.3009
 4134TIP3   OH236596   5.565   1.248   7.840 -0.0911 -0.4119  0.0254
 4134TIP3    H136597   5.522   1.329   7.813  0.1964 -1.0472 -2.5509
 4134TIP3    H236598   5.633   1.275   7.902 -1.6535  0.9934  1.2188
 4135TIP3   OH236599   3.363   1.914   9.337 -0.0226  0.8050 -0.3512
 4135TIP3    H136600   3.368   1.867   9.420 -3.5308  1.7470  0.5674
 4135TIP3    H236601   3.371   2.006   9.362  0.4219  1.0416 -1.3074
 4136TIP3   OH236602   3.765   2.084   7.360  0.2079 -0.0049  0.4867
 4136TIP3    H136603   3.811   2.017   7.310  1.9618  1.8245 -0.5231
 4136TIP3    H236604   3.748   2.154   7.297 -0.9344  0.8177  1.6374
 4137TIP3   OH236605   7.501   4.977   8.074 -0.2183  0.2791  0.2023
 4137TIP3    H136606   7.537   4.996   8.160  1.9926 -2.2787 -0.0429
 4137TIP3    H236607   7.500   4.881   8.069 -1.4511  0.3468 -2.1706
 4138TIP3   OH236608   0.744   2.018   7.773  0.1419 -1.0582 -0.3637
 4138TIP3    H136609   0.822   1.964   7.767  0.2013 -0.8233 -2.0584
 4138TIP3    H236610   0.773   2.097   7.820  1.0909 -0.6895 -1.5337
 4139TIP3   OH236611   1.015   5.556   9.140  0.1095 -0.0781  0.4761
 4139TIP3    H136612   1.053   5.511   9.064 -0.8483  1.4343 -0.9709
 4139TIP3    H236613   1.078   5.625   9.160 -1.1816  1.6833 -1.1788
 4140TIP3   OH236614   0.692   1.710   7.700  0.1815  0.2136  0.0516
 4140TIP3    H136615   0.632   1.643   7.668  0.7724 -0.6075  0.6111
 4140TIP3    H236616   0.643   1.757   7.767  0.4377 -1.0529  1.1685
 4141TIP3   OH236617   3.782   1.181   7.203 -0.1224 -0.5561  0.3720
 4141TIP3    H136618   3.755   1.267   7.235  0.2819 -0.7343  1.2107
 4141TIP3    H236619   3.864   1.162   7.249  0.9278 -0.4821 -1.3460
 4142TIP3   OH236620   3.995   1.488   7.922  0.2397  0.1759 -0.1515
 4142TIP3    H136621   4.089   1.497   7.937  0.2428 -0.3342  0.1691
 4142TIP3    H236622   3.967   1.575   7.894  0.4944  0.8355  1.4998
 4143TIP3   OH236623   0.026   7.621   8.514 -0.2116  0.2343 -0.2030
 4143TIP3    H136624  -0.024   7.660   8.586  1.8250 -0.2622  1.5924
 4143TIP3    H236625   0.082   7.692   8.483 -1.3033  0.5401 -1.6126
 4144TIP3   OH236626   3.094   1.408   8.173  0.3110 -0.0740 -0.0961
 4144TIP3    H136627   3.117   1.368   8.258 -0.1608 -0.5162 -0.1733
 4144TIP3    H236628   3.148   1.360   8.110 -0.3759 -0.7067 -0.2080
 4145TIP3   OH236629   7.282   2.966   8.974 -0.2223 -0.0925 -0.9649
 4145TIP3    H136630   7.335   2.889   8.951 -0.0917  0.2592 -1.8916
 4145TIP3    H236631   7.234   2.940   9.053  1.8371 -0.1895  0.3270
 4146TIP3   OH236632   0.790   3.751   7.304 -0.1404 -0.9129  0.2290
 4146TIP3    H136633   0.834   3.679   7.258  2.6523  0.4264  0.5850
 4146TIP3    H236634   0.754   3.805   7.233  0.6384 -0.9507 -0.2074
 4147TIP3   OH236635   6.681   5.475   9.062  0.4999  0.1914 -0.2798
 4147TIP3    H136636   6.730   5.539   9.012  0.0752 -0.3868 -1.4807
 4147TIP3    H236637   6.610   5.525   9.103  0.2997  0.5333 -1.0312
 4148TIP3   OH236638   5.517   2.708   8.164  0.0860  0.2620 -0.1816
 4148TIP3    H136639   5.583   2.649   8.201  0.1412  1.6988  2.2410
 4148TIP3    H236640   5.532   2.705   8.069  0.4347 -3.0958 -0.1231
 4149TIP3   OH236641   6.761   1.682   8.629 -0.3827 -0.6194  0.1226
 4149TIP3    H136642   6.699   1.626   8.677  0.2942 -1.1470  0.3979
 4149TIP3    H236643   6.759   1.649   8.539 -1.0645 -0.1388 -0.0472
 4150TIP3   OH236644   7.103   3.452   7.924  0.0859 -0.0797 -0.1008
 4150TIP3    H136645   7.065   3.502   7.996  1.9256 -0.0108  0.8894
 4150TIP3    H236646   7.146   3.377   7.966  1.3353  0.0425 -1.0780
 4151TIP3   OH236647   0.660   5.371   6.975 -0.0324 -0.1271  0.0781
 4151TIP3    H136648   0.731   5.326   7.021 -0.3707 -0.4768  0.2665
 4151TIP3    H236649   0.703   5.444   6.930  0.3350  0.1327  0.8210
 4152TIP3   OH236650   2.890   3.193   7.360  0.1953 -0.1346 -0.1153
 4152TIP3    H136651   2.949   3.212   7.286 -0.3001  1.2162 -0.1911
 4152TIP3    H236652   2.811   3.244   7.341 -0.8288 -1.5322  0.2307
 4153TIP3   OH236653   3.894   4.752   9.468  0.4768 -0.2259  0.2141
 4153TIP3    H136654   3.947   4.799   9.404  0.8947  0.4553  1.0375
 4153TIP3    H236655   3.931   4.663   9.470  1.5764  0.2196  0.7281
 4154TIP3   OH236656   2.215   3.080   7.309 -0.2247  0.2414 -0.7170
 4154TIP3    H136657   2.236   3.143   7.240  0.3959 -0.1883 -0.9270
 4154TIP3    H236658   2.223   2.994   7.267  2.9018 -0.2138  0.5233
 4155TIP3   OH236659   5.459   1.489   7.821 -0.7380 -0.0834  0.4156
 4155TIP3    H136660   5.456   1.528   7.909 -1.8571  2.3686 -0.6087
 4155TIP3    H236661   5.367   1.480   7.796 -0.4286 -0.8810 -0.4786
 4156TIP3   OH236662   0.514   6.174   6.762 -0.4706 -0.3521  0.8439
 4156TIP3    H136663   0.576   6.137   6.699 -1.7369  0.5280 -1.0412
 4156TIP3    H236664   0.455   6.102   6.783  0.4875 -0.8910  1.7603
 4157TIP3   OH236665   6.940   6.784   7.591  0.4419  0.0150  0.5913
 4157TIP3    H136666   6.984   6.714   7.544 -2.5345  0.4668 -3.3192
 4157TIP3    H236667   6.891   6.739   7.660 -1.1052 -1.8469 -1.5859
 4158TIP3   OH236668   2.315   6.446   7.635 -0.5737 -0.1688  0.4669
 4158TIP3    H136669   2.353   6.531   7.657 -0.2242 -0.3626  0.6230
 4158TIP3    H236670   2.325   6.438   7.540  0.2156 -0.4237  0.5634
 4159TIP3   OH236671   1.959   3.610   8.284 -0.0469 -0.4082 -0.4298
 4159TIP3    H136672   1.893   3.590   8.217 -1.1654  0.2045  0.4528
 4159TIP3    H236673   1.968   3.528   8.333 -1.1160 -0.1510  0.2338
 4160TIP3   OH236674   5.960   6.682   7.008 -0.2249  0.4032 -0.3421
 4160TIP3    H136675   5.873   6.721   7.002  0.0293  0.8064 -1.8719
 4160TIP3    H236676   6.016   6.754   7.038 -0.2707  0.3813 -0.2032
 4161TIP3   OH236677   6.625   6.651   9.081 -0.5043  0.4670 -0.2847
 4161TIP3    H136678   6.562   6.608   9.139 -1.4492  1.2177 -0.7284
 4161TIP3    H236679   6.693   6.585   9.066 -1.5563 -0.6337 -0.3760
 4162TIP3   OH236680   5.845   6.747   8.216  0.2362 -0.2141 -0.2911
 4162TIP3    H136681   5.937   6.723   8.213  0.4800  0.5663  0.5562
 4162TIP3    H236682   5.821   6.743   8.308  0.2142  2.3453 -0.1003
 4163TIP3   OH236683   0.554   4.433   7.943  0.1306  0.5561  0.3145
 4163TIP3    H136684   0.504   4.495   7.995 -1.1464 -2.8291  3.5458
 4163TIP3    H236685   0.624   4.404   8.001  1.3819 -0.2484 -1.4984
 4164TIP3   OH236686   7.130   5.103   9.066 -0.1460 -0.5236  0.3542
 4164TIP3    H136687   7.054   5.093   9.122  0.4863  2.5823  1.9832
 4164TIP3    H236688   7.205   5.088   9.124  0.5576 -1.6053 -0.7630
 4165TIP3   OH236689   2.984   4.559   7.154  0.4748 -0.0779  0.0772
 4165TIP3    H136690   3.078   4.548   7.167  0.6546 -0.0066 -1.1014
 4165TIP3    H236691   2.965   4.509   7.075 -0.3181  0.6423 -0.1930
 4166TIP3   OH236692   5.394   2.386   8.474 -0.1223 -0.5972  0.8119
 4166TIP3    H136693   5.457   2.357   8.408 -0.2731 -1.1673  0.9093
 4166TIP3    H236694   5.374   2.476   8.451 -0.5136 -0.9299 -0.1941
 4167TIP3   OH236695   2.220   4.772   7.355  0.1535  0.0072  0.6613
 4167TIP3    H136696   2.312   4.773   7.380  1.0416  0.9810 -2.2308
 4167TIP3    H236697   2.190   4.862   7.368  0.1640  0.1276 -0.0805
 4168TIP3   OH236698   4.482   0.973   8.343  0.7106  0.4177 -0.3669
 4168TIP3    H136699   4.474   0.878   8.347  0.9733  0.4305  0.8191
 4168TIP3    H236700   4.434   0.998   8.263 -0.1975 -0.6166 -0.1708
 4169TIP3   OH236701   2.818   0.780   8.126  0.0621 -0.9245 -0.2359
 4169TIP3    H136702   2.754   0.760   8.058  0.1877 -0.3573 -0.5291
 4169TIP3    H236703   2.783   0.739   8.205  0.1064 -1.9168 -0.7213
 4170TIP3   OH236704   1.872   5.667   6.620 -0.4697  0.3737  0.1371
 4170TIP3    H136705   1.804   5.733   6.604 -0.0390  0.5275 -1.1861
 4170TIP3    H236706   1.949   5.718   6.645 -0.9234  0.1753  2.1084
 4171TIP3   OH236707   3.202   5.842   8.933  0.3967  0.1427 -0.5720
 4171TIP3    H136708   3.257   5.784   8.880 -0.9294 -0.9558 -0.8206
 4171TIP3    H236709   3.213   5.929   8.893 -1.4900 -0.8194 -3.5549
 4172TIP3   OH236710   5.248   7.062   9.661 -0.0421  0.4717  0.7225
 4172TIP3    H136711   5.294   7.029   9.583 -2.1702  1.1269 -0.9192
 4172TIP3    H236712   5.251   6.988   9.722 -0.0331 -0.8493 -0.7747
 4173TIP3   OH236713   5.350   6.759   7.320  0.1892 -0.4619 -0.0944
 4173TIP3    H136714   5.444   6.752   7.304 -0.1079 -1.8448 -1.5538
 4173TIP3    H236715   5.331   6.852   7.317  1.6352 -0.1070  1.0547
 4174TIP3   OH236716   0.323   4.570   8.567  0.2031  0.0451  0.5501
 4174TIP3    H136717   0.359   4.582   8.655  0.1232 -1.2818  0.7741
 4174TIP3    H236718   0.229   4.561   8.580  0.2143 -0.3713  0.3537
 4175TIP3   OH236719   2.699   0.367   6.985  0.5007 -0.1683  0.5847
 4175TIP3    H136720   2.653   0.283   6.991 -2.1031  1.0562 -0.7213
 4175TIP3    H236721   2.636   0.432   7.016  1.1465  1.6375 -1.5677
 4176TIP3   OH236722   3.977   0.079   9.123 -0.1477  0.4582 -0.4865
 4176TIP3    H136723   3.884   0.059   9.135  0.2278 -3.5236 -2.5456
 4176TIP3    H236724   3.981   0.124   9.038 -0.2215  0.9468 -0.2315
 4177TIP3   OH236725   4.123   5.097   8.845  0.6142 -0.7262 -0.0318
 4177TIP3    H136726   4.034   5.092   8.811  0.4375  0.9620  0.0924
 4177TIP3    H236727   4.117   5.060   8.933 -0.2347  0.4360  0.4228
 4178TIP3   OH236728   2.302   2.401   9.473 -0.0806  0.1317  0.3104
 4178TIP3    H136729   2.213   2.429   9.453  0.1551  1.1466  0.6133
 4178TIP3    H236730   2.345   2.391   9.388 -0.4036 -0.1045  0.1746
 4179TIP3   OH236731   3.997   3.246   7.390 -0.3765  0.2327  0.2070
 4179TIP3    H136732   3.937   3.320   7.392 -1.2230 -0.3929 -0.7541
 4179TIP3    H236733   3.976   3.197   7.470 -0.9557  0.1702  0.0207
 4180TIP3   OH236734   2.497   1.844   8.240 -0.1830  0.3493  0.1011
 4180TIP3    H136735   2.537   1.759   8.256  0.5513  0.4730 -1.0198
 4180TIP3    H236736   2.403   1.830   8.257  0.0550 -0.4247  0.8470
 4181TIP3   OH236737   7.332   6.703   6.535 -0.0408 -0.2010 -0.0562
 4181TIP3    H136738   7.273   6.628   6.527  0.0426 -0.1216 -1.9219
 4181TIP3    H236739   7.284   6.775   6.493  1.6220 -0.3264 -2.3687
 4182TIP3   OH236740   2.493   6.695   7.650 -0.2965 -0.1811 -0.3098
 4182TIP3    H136741   2.497   6.790   7.656 -0.2314 -0.1993 -0.0630
 4182TIP3    H236742   2.486   6.677   7.556 -0.0536  0.0572 -0.3744
 4183TIP3   OH236743   3.478   4.137   8.665  0.4572  0.4643 -0.0176
 4183TIP3    H136744   3.446   4.225   8.651 -0.3833 -0.0499 -1.5628
 4183TIP3    H236745   3.556   4.148   8.720  0.1906  2.1187  0.0701
 4184TIP3   OH236746   3.079   4.539   8.345  0.1752  0.2091  0.1104
 4184TIP3    H136747   3.016   4.495   8.289  0.9339 -0.5477 -0.1737
 4184TIP3    H236748   3.142   4.579   8.284  1.1104 -0.7767  0.3931
 4185TIP3   OH236749   1.379   5.924   7.003  0.3615 -0.0373  0.3830
 4185TIP3    H136750   1.378   5.839   6.958  2.2127  0.0277  0.1371
 4185TIP3    H236751   1.406   5.986   6.935 -0.3736  0.6611  0.7159
 4186TIP3   OH236752   3.188   4.537   8.026 -0.6791 -0.0089 -0.3085
 4186TIP3    H136753   3.280   4.527   8.003 -0.3885  1.6621  0.0003
 4186TIP3    H236754   3.146   4.458   7.991  0.6747 -0.2627 -1.4700
 4187TIP3   OH236755   6.440   0.217   9.189  0.7633 -0.0905  0.3444
 4187TIP3    H136756   6.475   0.283   9.248 -0.6975  0.7289  0.3398
 4187TIP3    H236757   6.497   0.222   9.112  0.0029  2.0536 -0.1589
 4188TIP3   OH236758   0.978   0.213   8.162 -0.9964  0.1152  0.3445
 4188TIP3    H136759   0.998   0.283   8.100 -0.4922 -1.2181 -1.0641
 4188TIP3    H236760   0.892   0.236   8.197 -0.8828  1.3757 -0.1445
 4189TIP3   OH236761   3.387   4.404   8.661  0.7558  0.2393 -0.3620
 4189TIP3    H136762   3.420   4.442   8.743 -1.1578  0.7504  0.2303
 4189TIP3    H236763   3.296   4.434   8.656 -0.0413 -2.1048 -1.2462
 4190TIP3   OH236764   0.628   4.915   9.238  0.1981 -0.0843  0.2555
 4190TIP3    H136765   0.722   4.896   9.242  0.0495 -0.8426  0.2534
 4190TIP3    H236766   0.605   4.939   9.327  0.3092 -0.3231  0.3498
 4191TIP3   OH236767   7.475   5.273   7.997 -0.0325 -0.4393 -0.0855
 4191TIP3    H136768   7.557   5.274   7.948  0.2463  0.5600  0.3826
 4191TIP3    H236769   7.468   5.183   8.030  0.6800 -0.6360 -0.4540
 4192TIP3   OH236770   5.842   5.743   7.005 -0.1348 -0.1618 -0.0005
 4192TIP3    H136771   5.776   5.798   6.961  0.6715  1.7327  1.0253
 4192TIP3    H236772   5.915   5.740   6.944 -0.0488  0.2306  0.0762
 4193TIP3   OH236773   3.178   6.249   8.199  0.4818 -0.1756  0.2975
 4193TIP3    H136774   3.269   6.248   8.171  0.1510  0.9710 -0.9452
 4193TIP3    H236775   3.147   6.160   8.183  1.6261 -0.8502  1.6754
 4194TIP3   OH236776   2.930   2.232   8.401 -0.2622  0.0640  0.0844
 4194TIP3    H136777   2.897   2.142   8.394  0.8334 -0.2286 -1.9379
 4194TIP3    H236778   2.865   2.285   8.356  0.8394 -0.2450 -2.0052
 4195TIP3   OH236779   3.180   6.589   8.689 -0.3191 -0.6361  0.3523
 4195TIP3    H136780   3.128   6.513   8.663 -1.5021 -0.5726  2.3539
 4195TIP3    H236781   3.158   6.656   8.624 -0.9433 -1.3162 -0.1605
 4196TIP3   OH236782   1.412   6.689   8.917 -0.6162 -0.6444  0.2614
 4196TIP3    H136783   1.470   6.724   8.985 -1.9717  0.5746  0.8440
 4196TIP3    H236784   1.374   6.610   8.957 -0.4401 -0.6384  0.4433
 4197TIP3   OH236785   3.905   7.617   9.375  0.1998  0.1719 -0.1450
 4197TIP3    H136786   3.839   7.685   9.392  1.9655  1.7192  0.9714
 4197TIP3    H236787   3.954   7.650   9.299  0.0171 -0.7023 -0.6469
 4198TIP3   OH236788   6.075   6.870   7.581 -0.1401  0.2424  0.8941
 4198TIP3    H136789   6.042   6.891   7.494 -0.3547 -2.2166  0.3019
 4198TIP3    H236790   6.170   6.874   7.572 -0.1618  2.1179  1.1723
 4199TIP3   OH236791   2.635   0.731   7.215 -0.2362  0.1141  0.1494
 4199TIP3    H136792   2.689   0.794   7.263  2.6521 -1.6609 -0.5148
 4199TIP3    H236793   2.594   0.677   7.283 -0.1097  0.6674  0.6739
 4200TIP3   OH236794   2.381   0.774   9.443  0.0352 -0.0277 -0.6900
 4200TIP3    H136795   2.305   0.827   9.420 -1.3072 -0.4025  2.3973
 4200TIP3    H236796   2.448   0.837   9.470 -0.3759  0.2266 -0.2535
 4201TIP3   OH236797   3.018   6.607   7.520  0.6288 -0.1706  0.0595
 4201TIP3    H136798   3.083   6.574   7.459  0.9061 -1.6262  1.0901
 4201TIP3    H236799   3.067   6.628   7.599  0.1507  0.8459  0.1012
 4202TIP3   OH236800   4.214   6.760   7.086 -0.1880 -0.1069  0.2025
 4202TIP3    H136801   4.233   6.697   7.017 -2.0681  0.2225 -0.6796
 4202TIP3    H236802   4.120   6.749   7.104 -0.3881  1.8451  0.5986
 4203TIP3   OH236803   0.614   3.040   7.619  0.3293 -0.3209 -0.2041
 4203TIP3    H136804   0.533   2.990   7.631  0.0444  0.0323 -0.6197
 4203TIP3    H236805   0.649   3.050   7.708 -0.9099  0.8862  0.2023
 4204TIP3   OH236806   0.960   3.495   9.415  0.2737  0.4617 -0.2002
 4204TIP3    H136807   1.012   3.539   9.348  1.9671 -2.1293 -0.7544
 4204TIP3    H236808   1.023   3.472   9.483 -0.8337  0.2821  0.8036
 4205TIP3   OH236809   0.435   5.142   8.142 -0.4892 -0.1975  0.2354
 4205TIP3    H136810   0.398   5.221   8.103 -1.5196 -1.3689 -1.2703
 4205TIP3    H236811   0.405   5.144   8.233 -0.9600  0.8570  0.0725
 4206TIP3   OH236812   2.884   7.287   7.506 -0.1121  0.6555 -0.5236
 4206TIP3    H136813   2.822   7.269   7.577 -0.8862  0.9514 -1.1071
 4206TIP3    H236814   2.960   7.232   7.525  0.7890  2.5573  1.9240
 4207TIP3   OH236815   4.654   3.384   7.132 -0.4599 -0.2665 -0.1641
 4207TIP3    H136816   4.716   3.383   7.205 -1.8678  0.6878  1.1000
 4207TIP3    H236817   4.606   3.302   7.140 -0.3668 -0.3317 -0.2599
 4208TIP3   OH236818   5.633   5.342   9.251 -0.1165 -0.1380  0.4913
 4208TIP3    H136819   5.548   5.342   9.295 -1.3508  0.1917 -1.7573
 4208TIP3    H236820   5.671   5.427   9.272 -1.4133  0.6786 -0.3417
 4209TIP3   OH236821   4.876   0.828   7.982 -0.2973 -0.3459  0.0335
 4209TIP3    H136822   4.856   0.776   7.904 -1.1880 -0.3277  0.2323
 4209TIP3    H236823   4.797   0.821   8.036  0.3704 -0.5064  1.0186
 4210TIP3   OH236824   6.283   2.054   9.440  0.1595  0.1219 -0.0867
 4210TIP3    H136825   6.244   2.088   9.520 -0.6055 -1.8796  0.4655
 4210TIP3    H236826   6.273   1.959   9.447  2.2863 -0.2736 -1.4349
 4211TIP3   OH236827   7.177   5.560   6.761 -0.0403 -0.0266 -0.1035
 4211TIP3    H136828   7.091   5.588   6.729 -0.6157 -0.2917  1.1505
 4211TIP3    H236829   7.227   5.541   6.682 -0.7402  1.2594 -0.8978
 4212TIP3   OH236830   3.823   2.467   7.467  0.0187  0.6383  0.2757
 4212TIP3    H136831   3.846   2.396   7.527  0.7458  0.3869 -0.2958
 4212TIP3    H236832   3.805   2.424   7.384  0.6415  1.1332 -0.1269
 4213TIP3   OH236833   0.834   7.351   9.478 -0.0543  0.1798 -0.3265
 4213TIP3    H136834   0.852   7.441   9.450  0.8679  1.2091  3.0811
 4213TIP3    H236835   0.920   7.310   9.486 -0.1325  0.3394  1.9050
 4214TIP3   OH236836   3.349   5.866   7.199 -0.0159 -0.6645 -0.2144
 4214TIP3    H136837   3.428   5.817   7.174  0.7699  0.6552 -0.4349
 4214TIP3    H236838   3.293   5.861   7.122  1.2062  1.0081 -1.2797
 4215TIP3   OH236839   4.597   5.597   8.948  0.2351 -0.7952  0.5936
 4215TIP3    H136840   4.681   5.554   8.930  0.5648  0.1428 -0.2151
 4215TIP3    H236841   4.546   5.584   8.868 -0.5147 -1.5839  1.1761
 4216TIP3   OH236842   0.425   7.600   9.292  0.9086  0.3248  0.3225
 4216TIP3    H136843   0.353   7.546   9.322  0.9308  0.6659  0.9937
 4216TIP3    H236844   0.477   7.542   9.235 -0.0897  0.1915 -0.4781
 4217TIP3   OH236845   2.845   0.442   8.879 -0.5698  0.7265 -0.5879
 4217TIP3    H136846   2.750   0.452   8.884 -0.9606 -2.3902  3.6127
 4217TIP3    H236847   2.879   0.510   8.937 -0.4239  0.2781 -0.1482
 4218TIP3   OH236848   0.699   2.842   6.746 -0.5202 -0.5950  0.0704
 4218TIP3    H136849   0.622   2.833   6.802 -1.5007 -0.9979 -1.3223
 4218TIP3    H236850   0.677   2.795   6.666  1.0610 -0.4543 -0.4795
 4219TIP3   OH236851   6.591   7.412   8.997 -0.1834  0.1835  0.4100
 4219TIP3    H136852   6.555   7.348   8.935 -0.7486 -0.0299  0.9441
 4219TIP3    H236853   6.559   7.496   8.964 -2.4400 -0.1002  1.6416
 4220TIP3   OH236854   7.091   0.030   9.392  0.3571 -0.1306 -0.4812
 4220TIP3    H136855   7.126  -0.058   9.407 -1.2345 -0.4230  2.1653
 4220TIP3    H236856   6.998   0.017   9.375 -0.4696  1.0399  2.4200
 4221TIP3   OH236857   0.997   7.222   8.346 -0.2271 -0.3024 -0.5104
 4221TIP3    H136858   1.030   7.145   8.300 -2.8345 -2.3911  0.8511
 4221TIP3    H236859   0.917   7.245   8.300  0.3244  1.4419 -0.6741
 4222TIP3   OH236860   5.353   6.310   8.515 -0.0387 -0.2929  0.6061
 4222TIP3    H136861   5.421   6.340   8.456 -1.0333 -0.4427 -0.6545
 4222TIP3    H236862   5.315   6.391   8.551  1.7199 -0.2123  2.4868
 4223TIP3   OH236863   0.015   1.676   9.617  0.2425  0.3936 -0.2824
 4223TIP3    H136864  -0.021   1.733   9.549 -0.4357 -1.3828 -1.5083
 4223TIP3    H236865  -0.039   1.691   9.694 -0.6730  0.5364 -0.9435
 4224TIP3   OH236866   2.753   7.501   8.140 -0.4056 -0.3678  0.8281
 4224TIP3    H136867   2.838   7.540   8.161 -0.6968  0.2911  0.7917
 4224TIP3    H236868   2.698   7.575   8.113 -0.2545 -1.0717 -1.6344
 4225TIP3   OH236869   4.483   7.534   7.880  0.1087 -0.5362 -0.0674
 4225TIP3    H136870   4.390   7.557   7.880  0.6151  2.1727  2.5139
 4225TIP3    H236871   4.484   7.440   7.898 -2.0999 -0.9073 -1.4519
 4226TIP3   OH236872   7.175   0.068   7.616  0.4441  0.1001 -0.2822
 4226TIP3    H136873   7.157   0.001   7.682 -1.6495  0.5869 -0.2782
 4226TIP3    H236874   7.270   0.067   7.605  0.8204 -0.3317  2.3938
 4227TIP3   OH236875   4.009   1.537   9.016 -0.0263  0.2678  0.8642
 4227TIP3    H136876   3.926   1.557   9.060 -0.8916  1.1472 -1.0769
 4227TIP3    H236877   4.009   1.442   9.008 -2.0006  0.3468 -1.1073
 4228TIP3   OH236878   2.313   5.000   8.211 -0.6806 -0.8348 -0.3026
 4228TIP3    H136879   2.254   4.950   8.268 -1.2295 -1.9349 -1.7879
 4228TIP3    H236880   2.390   4.943   8.202  0.0845  0.0268  0.5785
 4229TIP3   OH236881   2.553   5.777   8.604 -0.1486 -0.3034 -0.2542
 4229TIP3    H136882   2.524   5.704   8.659 -1.5406  1.0646  0.9054
 4229TIP3    H236883   2.563   5.850   8.664 -0.5680  0.9377 -1.6347
 4230TIP3   OH236884   1.141   6.274   9.261 -0.4940  0.3212  0.5464
 4230TIP3    H136885   1.074   6.268   9.330 -0.4905  0.5778  0.5740
 4230TIP3    H236886   1.157   6.184   9.235 -0.6335  0.2365  0.7522
 4231TIP3   OH236887   5.153   1.222   9.062  0.5976  0.2238  0.4875
 4231TIP3    H136888   5.131   1.151   9.001 -1.1194  1.3092 -0.2070
 4231TIP3    H236889   5.242   1.200   9.092  1.2838 -0.6524 -1.9505
 4232TIP3   OH236890   5.057   1.209   8.071 -0.0625 -0.0123 -0.2218
 4232TIP3    H136891   5.138   1.211   8.123 -0.0955  0.3272 -0.1795
 4232TIP3    H236892   5.003   1.279   8.109 -0.0504  0.2989 -0.7754
 4233TIP3   OH236893   3.033   2.870   8.898 -0.0334  0.1532 -0.0787
 4233TIP3    H136894   2.965   2.896   8.835  1.0753  1.1368 -0.9071
 4233TIP3    H236895   3.105   2.930   8.881  0.5496 -0.0065  1.6946
 4234TIP3   OH236896   3.416   4.325   9.088 -0.1778 -0.4469  0.1649
 4234TIP3    H136897   3.355   4.251   9.084 -0.9797  0.2402 -1.4743
 4234TIP3    H236898   3.378   4.383   9.154 -1.9825  0.4870 -1.6028
 4235TIP3   OH236899   1.426   1.323   8.667  0.1778  0.8766 -1.0279
 4235TIP3    H136900   1.494   1.356   8.608 -0.0575  2.8416 -0.2820
 4235TIP3    H236901   1.359   1.391   8.666 -0.8933 -0.1272 -0.2452
 4236TIP3   OH236902   4.015   5.411   6.879  0.0006 -0.0290 -0.1998
 4236TIP3    H136903   3.977   5.416   6.791  1.5209 -1.7747 -1.0310
 4236TIP3    H236904   4.110   5.408   6.864  0.2793 -0.8373  1.4702
 4237TIP3   OH236905   0.898   0.191   9.066 -0.0295  0.4369 -0.0984
 4237TIP3    H136906   0.834   0.179   8.996 -1.5190 -1.7349  1.4958
 4237TIP3    H236907   0.936   0.277   9.049 -2.2034  1.1156 -2.0560
 4238TIP3   OH236908   5.360   2.654   8.376  0.1924 -0.4485 -0.4742
 4238TIP3    H136909   5.415   2.666   8.299  2.3887  0.1643  1.1044
 4238TIP3    H236910   5.406   2.700   8.446 -2.2992 -0.0061  0.9885
 4239TIP3   OH236911   0.704   2.635   7.002  0.0571  0.1552 -0.1431
 4239TIP3    H136912   0.694   2.582   6.923 -0.0845  1.6626 -1.1766
 4239TIP3    H236913   0.615   2.666   7.021  0.2232  0.4768  0.1182
 4240TIP3   OH236914   7.293   1.410   9.767  0.1969 -0.0518  0.5850
 4240TIP3    H136915   7.338   1.398   9.683  0.1271  0.4294  0.4747
 4240TIP3    H236916   7.249   1.326   9.783  1.5501 -0.7236  0.9563
 4241TIP3   OH236917   3.507   3.227   8.464 -0.0105 -0.6998  0.2715
 4241TIP3    H136918   3.551   3.297   8.415  1.1184 -1.0315  0.7707
 4241TIP3    H236919   3.418   3.224   8.428  0.0541  0.6976 -0.0502
 4242TIP3   OH236920   7.548   3.412   7.166  0.3961 -0.2665  0.1796
 4242TIP3    H136921   7.609   3.379   7.232  0.6475 -2.8523 -1.2227
 4242TIP3    H236922   7.603   3.429   7.090 -0.0710  1.5167  0.2080
 4243TIP3   OH236923   2.905   4.359   8.883  0.4052  0.0103  0.2591
 4243TIP3    H136924   2.838   4.327   8.943  1.4417 -2.1810  0.3278
 4243TIP3    H236925   2.985   4.362   8.936  0.5432  2.0584  0.0305
 4244TIP3   OH236926   3.805   4.503   6.747 -0.8879  0.2816 -0.0538
 4244TIP3    H136927   3.799   4.515   6.652 -4.1377  1.7379  0.2446
 4244TIP3    H236928   3.853   4.580   6.778  0.8698 -0.5693 -0.4886
 4245TIP3   OH236929   6.160   0.328   9.055  0.6428 -0.5926  0.1695
 4245TIP3    H136930   6.079   0.355   9.098  0.4901 -1.0808  0.1923
 4245TIP3    H236931   6.230   0.364   9.110  0.4465 -0.2951  0.2282
 4246TIP3   OH236932   7.569   4.505   8.861  0.2275  0.1098 -0.1636
 4246TIP3    H136933   7.583   4.596   8.835 -2.2227  0.4563 -0.4328
 4246TIP3    H236934   7.627   4.492   8.936  1.3023  1.5777 -0.7006
 4247TIP3   OH236935   4.161   1.138   9.423  0.6524  0.2592 -0.9705
 4247TIP3    H136936   4.206   1.145   9.507 -0.2403 -0.6790 -0.3864
 4247TIP3    H236937   4.229   1.154   9.358  1.4654  0.5091 -0.0888
 4248TIP3   OH236938   3.150   5.644   8.260  0.4498  0.0502  0.2173
 4248TIP3    H136939   3.129   5.554   8.238 -0.8340  0.7526 -1.7277
 4248TIP3    H236940   3.192   5.678   8.181  0.3304  1.3239  0.6795
 4249TIP3   OH236941   6.952   4.402   8.235 -0.1308  0.3396 -0.5503
 4249TIP3    H136942   6.889   4.408   8.164 -0.6089  3.2324 -0.0060
 4249TIP3    H236943   6.924   4.326   8.286 -2.1145  0.5165 -1.2974
 4250TIP3   OH236944   1.341   3.685   7.873 -0.1110  0.0517 -0.3604
 4250TIP3    H136945   1.420   3.712   7.827 -1.7410  2.2239 -2.0840
 4250TIP3    H236946   1.353   3.591   7.888  4.0457  0.7369  2.1585
 4251TIP3   OH236947   4.721   2.475   9.097 -0.2291 -0.1561 -0.5112
 4251TIP3    H136948   4.791   2.450   9.036 -0.5572  0.1748 -1.0307
 4251TIP3    H236949   4.646   2.493   9.041 -1.8462 -3.8516  0.1813
 4252TIP3   OH236950   2.254   2.630   7.709  0.2866 -1.1815 -0.8103
 4252TIP3    H136951   2.235   2.636   7.802  0.5999 -1.9448 -0.6964
 4252TIP3    H236952   2.222   2.713   7.673 -1.9831 -1.8280 -0.4090
 4253TIP3   OH236953   6.763   7.473   7.063 -0.2787 -0.4483  0.2794
 4253TIP3    H136954   6.693   7.453   7.125 -0.1246 -0.4611  0.4481
 4253TIP3    H236955   6.718   7.478   6.978 -0.7191  0.8757  0.5496
 4254TIP3   OH236956   0.113   2.130   8.761  0.4092  0.1824  0.2453
 4254TIP3    H136957   0.085   2.045   8.728  0.8370 -0.0176  0.3799
 4254TIP3    H236958   0.055   2.193   8.719 -2.9527 -0.4033  3.4327
 4255TIP3   OH236959   6.662   3.892   8.064  0.7616  0.1853 -0.5471
 4255TIP3    H136960   6.690   3.923   8.150  0.2442  0.7893 -0.5879
 4255TIP3    H236961   6.743   3.869   8.020  1.0557  0.1778 -0.0099
 4256TIP3   OH236962   3.618   2.903   8.971  0.4221 -0.0732  0.0090
 4256TIP3    H136963   3.531   2.872   8.948 -0.2397  2.2681 -0.9792
 4256TIP3    H236964   3.659   2.923   8.886  0.5229  2.2685  0.5614
 4257TIP3   OH236965   5.628   6.152   7.199 -0.0519 -0.0991 -0.3719
 4257TIP3    H136966   5.666   6.075   7.240  0.9965  0.3692 -0.4095
 4257TIP3    H236967   5.540   6.126   7.173 -0.0767 -0.9552  0.5331
 4258TIP3   OH236968   7.362   1.255   7.669 -0.3734  0.0740 -0.0832
 4258TIP3    H136969   7.445   1.208   7.668 -1.1264 -1.3248 -1.6719
 4258TIP3    H236970   7.362   1.302   7.753  0.3994 -2.7977  1.6594
 4259TIP3   OH236971   3.419   0.003   6.781 -0.0745  0.2631  0.4665
 4259TIP3    H136972   3.362  -0.033   6.848 -0.0061 -0.0835  0.3391
 4259TIP3    H236973   3.387   0.092   6.768  1.9028  1.5441  3.2928
 4260TIP3   OH236974   4.556   7.390   8.931  0.4217 -0.4237  0.3375
 4260TIP3    H136975   4.497   7.462   8.951 -0.9499 -1.4691  0.1645
 4260TIP3    H236976   4.562   7.390   8.835  1.4855  0.2575  0.3808
 4261TIP3   OH236977   5.661   2.662   7.926  0.9193 -0.0305 -0.1115
 4261TIP3    H136978   5.744   2.630   7.962  0.3196 -1.0462  0.3940
 4261TIP3    H236979   5.649   2.612   7.845  0.9975  0.4209 -0.4091
 4262TIP3   OH236980   6.172   0.936   9.237 -0.0047 -0.4866 -0.4043
 4262TIP3    H136981   6.094   0.990   9.230  0.2242 -0.2243 -1.0120
 4262TIP3    H236982   6.227   0.981   9.301 -1.1949 -1.7484  1.6150
 4263TIP3   OH236983   0.402   4.973   7.105  0.1829  0.0814 -0.0371
 4263TIP3    H136984   0.340   4.983   7.177  0.4511  1.5508  0.0207
 4263TIP3    H236985   0.446   5.058   7.099  1.9134 -0.8029 -0.3447
 4264TIP3   OH236986   5.525   4.449   8.422 -0.2671 -0.0401 -0.2039
 4264TIP3    H136987   5.594   4.436   8.358  0.9169  0.5808  0.8935
 4264TIP3    H236988   5.493   4.361   8.442  0.3846 -0.3569 -0.5409
 4265TIP3   OH236989   1.350   1.746   8.353 -0.1068 -0.3611 -0.2621
 4265TIP3    H136990   1.388   1.785   8.431 -0.1920  0.1200 -0.4588
 4265TIP3    H236991   1.318   1.820   8.301  0.0769 -0.6635 -0.8219
 4266TIP3   OH236992   6.731   4.206   8.432  0.2217 -0.0342  0.0924
 4266TIP3    H136993   6.768   4.230   8.517 -1.4750 -0.4216  0.9826
 4266TIP3    H236994   6.716   4.112   8.437  0.4645 -0.1311 -0.7982
 4267TIP3   OH236995   0.060   2.413   6.550  0.2212  0.1872  0.0120
 4267TIP3    H136996  -0.006   2.475   6.519  0.3043  0.5519  0.5401
 4267TIP3    H236997   0.025   2.379   6.632  0.1000 -0.6017 -0.3573
 4268TIP3   OH236998   2.591   6.171   7.257 -0.5799 -0.3040  0.2375
 4268TIP3    H136999   2.576   6.078   7.240 -2.1417  0.1433 -1.0739
 4268TIP3    H237000   2.507   6.204   7.288  0.1790  0.5391  1.5278
 4269TIP3   OH237001   3.081   1.788   8.759 -0.0067  0.3421 -0.7978
 4269TIP3    H137002   3.132   1.836   8.824  0.4001 -1.1962  0.0718
 4269TIP3    H237003   3.103   1.696   8.775 -2.7477 -0.3577 -0.6496
 4270TIP3   OH237004   7.655   0.329   7.692 -0.3277 -0.4092 -0.3861
 4270TIP3    H137005   7.653   0.424   7.681 -0.6142 -0.4421 -0.6227
 4270TIP3    H237006   7.742   0.311   7.728 -0.5230  0.0151  0.3283
 4271TIP3   OH237007   0.201   0.955   8.631  0.4219 -0.2203 -0.4077
 4271TIP3    H137008   0.247   1.010   8.567  1.0026  0.4489  0.5528
 4271TIP3    H237009   0.247   0.871   8.626 -0.9146 -0.9005 -2.3822
 4272TIP3   OH237010   3.018   6.816   9.266  0.3729 -0.5527 -0.1698
 4272TIP3    H137011   3.024   6.753   9.339  1.0857 -0.2996 -0.0031
 4272TIP3    H237012   3.044   6.900   9.305 -2.1595  0.2144  0.0297
 4273TIP3   OH237013   0.182   3.942   8.931 -0.0257  0.7137  0.2094
 4273TIP3    H137014   0.189   4.037   8.923 -1.8145  0.7922 -0.8584
 4273TIP3    H237015   0.227   3.907   8.854 -2.3443  0.8842 -1.3400
 4274TIP3   OH237016   6.905   0.264   8.458 -0.0715  0.5902  0.1156
 4274TIP3    H137017   6.883   0.193   8.397 -0.9787  0.8831  0.0895
 4274TIP3    H237018   6.897   0.224   8.545  2.7985 -0.2860  0.0716
 4275TIP3   OH237019   3.390   1.364   9.792 -0.1424 -0.5234 -0.2089
 4275TIP3    H137020   3.474   1.321   9.807  0.2674  0.2298 -0.2817
 4275TIP3    H237021   3.413   1.449   9.754 -0.9461 -0.3829 -0.4081
 4276TIP3   OH237022   4.538   0.463   8.149  0.1660 -0.4412  0.2718
 4276TIP3    H137023   4.462   0.406   8.154 -0.4881  0.4926  1.7775
 4276TIP3    H237024   4.612   0.407   8.173  0.1011 -1.5301 -1.8866
 4277TIP3   OH237025   2.436   2.856   8.047 -0.2040 -0.2497 -0.4217
 4277TIP3    H137026   2.423   2.950   8.060  1.0917 -0.1791  0.5027
 4277TIP3    H237027   2.350   2.824   8.020 -1.0682  0.9566  0.7539
 4278TIP3   OH237028   7.161   3.351   9.224  0.0394  1.0339 -0.5774
 4278TIP3    H137029   7.222   3.307   9.284 -0.8960  1.3375  0.6336
 4278TIP3    H237030   7.197   3.333   9.137  0.8736 -0.2985 -0.0008
 4279TIP3   OH237031   1.028   3.110   7.306  0.4948  0.4912 -0.3122
 4279TIP3    H137032   1.031   3.191   7.357 -0.9187  0.7882 -0.6637
 4279TIP3    H237033   1.030   3.139   7.215  1.0172  0.0664 -0.4401
 4280TIP3   OH237034   0.185   3.016   9.294 -0.0865 -0.4394  0.0433
 4280TIP3    H137035   0.094   3.031   9.270 -1.3142  0.8668  4.5656
 4280TIP3    H237036   0.182   2.951   9.364  2.2863  0.3969  1.0424
 4281TIP3   OH237037   0.252   5.256   9.395 -0.2011  0.5887  0.0639
 4281TIP3    H137038   0.167   5.285   9.360  0.8266  1.8822 -1.4711
 4281TIP3    H237039   0.303   5.336   9.404  1.4590 -0.3520 -0.6844
 4282TIP3   OH237040   2.597   3.240   9.367 -0.0698 -0.2419  0.0693
 4282TIP3    H137041   2.658   3.314   9.379  0.1700 -0.4733  0.3068
 4282TIP3    H237042   2.510   3.280   9.372  0.0130  0.4919 -2.7120
 4283TIP3   OH237043   2.856   5.805   8.071 -0.5627  0.1528 -0.8131
 4283TIP3    H137044   2.846   5.710   8.071 -1.4029  0.2286 -1.7795
 4283TIP3    H237045   2.800   5.835   8.000 -0.6904  1.4145 -0.2007
 4284TIP3   OH237046   7.000   0.483   9.385 -0.1355 -0.7080 -0.2361
 4284TIP3    H137047   7.075   0.533   9.416 -1.6060  0.5943  1.4076
 4284TIP3    H237048   6.995   0.408   9.444  0.1921 -1.1222 -0.7218
 4285TIP3   OH237049   7.179   3.689   9.412 -0.2418  0.6167  0.2563
 4285TIP3    H137050   7.172   3.785   9.409  0.5085  0.7143  1.2581
 4285TIP3    H237051   7.270   3.671   9.389 -0.7993  0.0213 -1.6455
 4286TIP3   OH237052   1.753   1.035   6.826 -0.2519  0.2433 -0.3380
 4286TIP3    H137053   1.681   0.973   6.836 -0.1788  0.2531  0.2848
 4286TIP3    H237054   1.728   1.089   6.751 -2.0196  1.7271  1.2237
 4287TIP3   OH237055   0.157   6.468   8.215 -0.7351 -0.2708 -0.2021
 4287TIP3    H137056   0.187   6.512   8.295 -0.5971 -0.2362 -0.2725
 4287TIP3    H237057   0.152   6.376   8.239 -0.4362 -0.2959 -0.2286
 4288TIP3   OH237058   1.825   4.019   8.104  0.2037  0.6561  0.0849
 4288TIP3    H137059   1.781   3.975   8.031 -1.2201 -0.1634  1.3665
 4288TIP3    H237060   1.875   4.090   8.063  1.3236 -1.1750 -1.8864
 4289TIP3   OH237061   6.738   1.767   7.864 -0.0156  0.0010  0.0817
 4289TIP3    H137062   6.715   1.860   7.868 -0.7761 -0.1871  0.2191
 4289TIP3    H237063   6.826   1.763   7.904 -0.6665  0.4422  1.6654
 4290TIP3   OH237064   7.552   0.893   7.799  0.0744  0.7881  0.0262
 4290TIP3    H137065   7.497   0.832   7.847  0.1285 -0.4266 -1.3552
 4290TIP3    H237066   7.641   0.859   7.811  0.1280  0.7004 -0.5938
 4291TIP3   OH237067   0.868   0.698   6.907  0.4246  0.5523 -0.2914
 4291TIP3    H137068   0.891   0.605   6.917  2.6703  0.8277 -1.9184
 4291TIP3    H237069   0.775   0.697   6.885  0.3440 -1.3115 -0.0745
 4292TIP3   OH237070   2.514   0.689   6.971  0.2200  0.4195 -0.5592
 4292TIP3    H137071   2.579   0.713   7.038 -1.9706  1.4431  1.3356
 4292TIP3    H237072   2.475   0.608   7.004  0.0309  0.1983 -1.3149
 4293TIP3   OH237073   6.378   3.150   7.636  0.1149  0.8280  0.0975
 4293TIP3    H137074   6.339   3.125   7.552 -0.6763 -0.5821  0.8406
 4293TIP3    H237075   6.305   3.147   7.698  0.8677  0.8778  1.0139
 4294TIP3   OH237076   6.426   0.922   8.063 -0.3848  0.3984 -0.0417
 4294TIP3    H137077   6.513   0.941   8.099 -0.8948 -0.1304  1.5803
 4294TIP3    H237078   6.399   1.003   8.022  0.5913  0.7921  0.0650
 4295TIP3   OH237079   4.237   4.870   9.030  0.4818  0.0639  0.0974
 4295TIP3    H137080   4.324   4.839   9.055 -0.0647 -1.7331 -0.0893
 4295TIP3    H237081   4.236   4.863   8.934 -0.5033 -1.8458  0.2061
 4296TIP3   OH237082   5.533   2.307   8.709  0.2175 -0.1435 -0.3100
 4296TIP3    H137083   5.459   2.342   8.760 -0.6352 -1.6007 -0.5133
 4296TIP3    H237084   5.512   2.329   8.618  0.2983 -0.1190 -0.3233
 4297TIP3   OH237085   1.873   2.795   9.530  0.3452 -0.0588  0.6037
 4297TIP3    H137086   1.840   2.883   9.550  1.0573  0.1024  1.1082
 4297TIP3    H237087   1.795   2.740   9.529 -0.0282  0.4459  1.0604
 4298TIP3   OH237088   0.797   2.800   7.532 -0.2275  0.1078 -0.8614
 4298TIP3    H137089   0.742   2.798   7.454  0.2000  1.4192 -1.2113
 4298TIP3    H237090   0.788   2.889   7.567  2.1077  0.5981 -1.2840
 4299TIP3   OH237091   3.341   1.794   9.613 -0.2942 -0.0453  0.3417
 4299TIP3    H137092   3.256   1.807   9.657  0.2745 -0.2729  1.5689
 4299TIP3    H237093   3.387   1.877   9.625  0.1444 -0.3485  0.8583
 4300TIP3   OH237094   5.141   7.079   8.054  0.3265  0.6590  0.1051
 4300TIP3    H137095   5.199   7.152   8.031  1.9332  0.2521  2.4537
 4300TIP3    H237096   5.131   7.086   8.149 -2.6588  0.0356 -0.0639
 4301TIP3   OH237097   4.557   1.583   7.457 -0.8890  0.4265 -0.3234
 4301TIP3    H137098   4.500   1.569   7.381 -0.8879 -0.1503 -0.2176
 4301TIP3    H237099   4.643   1.602   7.419 -0.6414 -0.9151 -0.4591
 4302TIP3   OH237100   1.782   1.448   8.606 -0.2930 -0.0292 -0.1043
 4302TIP3    H137101   1.706   1.499   8.577 -0.2640  0.2703  0.3363
 4302TIP3    H237102   1.783   1.459   8.702 -1.0954 -1.9645  0.1713
 4303TIP3   OH237103   3.882   4.533   8.685  0.2948  0.3118  0.5279
 4303TIP3    H137104   3.876   4.460   8.747  0.7496  0.3143  0.5747
 4303TIP3    H237105   3.940   4.596   8.727  1.4946 -0.1656 -0.3745
 4304TIP3   OH237106   5.368   0.252   7.894  0.3838  0.2589 -0.2645
 4304TIP3    H137107   5.437   0.251   7.828  1.0648  2.0572  0.3563
 4304TIP3    H237108   5.394   0.320   7.955 -1.4461  0.2877  0.5599
 4305TIP3   OH237109   1.239   6.136   7.667  0.2476  0.1186  0.1425
 4305TIP3    H137110   1.295   6.186   7.726 -0.4170  1.5995 -0.4498
 4305TIP3    H237111   1.298   6.070   7.629  1.5832  1.5520 -0.3873
 4306TIP3   OH237112   4.424   6.025   9.224  0.5622  0.3329 -0.1659
 4306TIP3    H137113   4.392   5.937   9.245 -0.8854  0.6082 -1.0493
 4306TIP3    H237114   4.497   6.039   9.284  0.7400 -1.4148  0.0780
 4307TIP3   OH237115   6.356   4.837   7.567  0.0815  0.5370 -0.0097
 4307TIP3    H137116   6.316   4.802   7.647 -0.8422  0.8247 -0.3304
 4307TIP3    H237117   6.432   4.781   7.551  0.3000  0.5024  1.0866
 4308TIP3   OH237118   2.155   6.727   8.540  0.1938 -0.5870  0.1750
 4308TIP3    H137119   2.128   6.635   8.540 -0.5058 -0.3934  1.5340
 4308TIP3    H237120   2.097   6.769   8.477  1.0791 -1.2142 -1.1002
 4309TIP3   OH237121   7.136   2.614   8.982  0.1705 -0.0894  0.0394
 4309TIP3    H137122   7.226   2.647   8.978  0.5503 -1.1662 -1.4681
 4309TIP3    H237123   7.145   2.520   9.000 -0.5368 -0.4583 -1.3136
 4310TIP3   OH237124   3.157   3.589   7.840  0.2474  0.2289  0.1625
 4310TIP3    H137125   3.194   3.504   7.814 -0.2749 -0.1580  0.6601
 4310TIP3    H237126   3.225   3.652   7.819  2.0305 -0.6450  2.7150
 4311TIP3   OH237127   6.666   2.035   7.847  0.8964 -0.2251  0.2859
 4311TIP3    H137128   6.586   2.087   7.839  0.6524 -0.7617 -1.1481
 4311TIP3    H237129   6.734   2.098   7.871  0.4880  0.6544 -0.7824
 4312TIP3   OH237130   7.024   6.450   8.722  0.1611  0.5162 -0.4012
 4312TIP3    H137131   6.983   6.534   8.744  2.5071  1.1132  2.3197
 4312TIP3    H237132   7.118   6.469   8.722  0.6825 -1.8268 -1.2311
 4313TIP3   OH237133   1.760   4.078   7.610 -0.0613 -0.0751  0.0338
 4313TIP3    H137134   1.847   4.091   7.647 -0.1501  0.2033  0.1454
 4313TIP3    H237135   1.737   4.163   7.572 -0.6579  0.1027  0.7894
 4314TIP3   OH237136   0.986   2.829   9.684  0.0880  0.3892  0.0630
 4314TIP3    H137137   1.026   2.757   9.732 -1.3731 -1.1342 -0.8902
 4314TIP3    H237138   0.894   2.803   9.672 -0.4529  2.3109 -0.5061
 4315TIP3   OH237139   4.935   4.636   8.388 -0.0998  0.3950  0.4185
 4315TIP3    H137140   4.893   4.593   8.314  1.7690 -1.4914  0.3379
 4315TIP3    H237141   4.922   4.576   8.462  0.7205  0.7063  0.8336
 4316TIP3   OH237142   7.473   3.408   8.830 -0.2746  0.0175  0.3150
 4316TIP3    H137143   7.521   3.482   8.865 -1.7828  1.1517  0.0638
 4316TIP3    H237144   7.526   3.378   8.756  1.5780 -0.7380  1.8481
 4317TIP3   OH237145   6.888   7.668   8.890 -0.9697 -0.8431 -0.2062
 4317TIP3    H137146   6.889   7.584   8.844 -2.5730 -1.5506  0.9762
 4317TIP3    H237147   6.862   7.732   8.824 -0.8370 -1.4491 -0.8512
 4318TIP3   OH237148   5.538   6.522   8.375  0.1029  1.3066 -0.0022
 4318TIP3    H137149   5.554   6.612   8.404  3.4364  0.7934  0.1063
 4318TIP3    H237150   5.623   6.490   8.348 -0.5065 -2.5181  1.8680
 4319TIP3   OH237151   5.414   2.609   9.306 -0.0088  0.2467 -0.1443
 4319TIP3    H137152   5.414   2.559   9.388  0.1949 -0.3037 -0.4711
 4319TIP3    H237153   5.478   2.564   9.251 -0.0690  0.6743 -0.5664
 4320TIP3   OH237154   5.851   2.122   8.708  0.0324  0.3224 -0.3879
 4320TIP3    H137155   5.884   2.056   8.648  0.3764  0.1207  0.0097
 4320TIP3    H237156   5.784   2.077   8.759  1.4517 -0.2826  1.0797
 4321TIP3   OH237157   0.463   1.032   8.032 -0.0272 -0.0156  0.0949
 4321TIP3    H137158   0.482   1.031   7.938  1.1819 -0.0296  0.3145
 4321TIP3    H237159   0.415   0.951   8.047  2.4831 -1.6753 -0.0508
 4322TIP3   OH237160   3.979   0.932   9.212 -0.2982 -0.4025 -1.1159
 4322TIP3    H137161   3.983   0.979   9.295 -1.1237 -2.3598  0.1057
 4322TIP3    H237162   4.052   0.870   9.216 -0.1176 -0.2625 -2.0252
 4323TIP3   OH237163   4.717   3.701   8.342  0.0174  0.2217  0.1379
 4323TIP3    H137164   4.690   3.792   8.351  0.3731  0.5174 -1.4738
 4323TIP3    H237165   4.785   3.702   8.275 -1.1931 -1.4096 -1.2493
 4324TIP3   OH237166   3.688   0.677   9.435  0.3949 -0.4319  0.1627
 4324TIP3    H137167   3.633   0.598   9.434 -0.8675  0.4285 -0.5900
 4324TIP3    H237168   3.719   0.685   9.345 -0.8758  0.8356 -0.2038
 4325TIP3   OH237169   2.467   5.812   9.266  1.2345  0.1983  0.3327
 4325TIP3    H137170   2.441   5.875   9.199  1.9993 -0.4671 -0.6307
 4325TIP3    H237171   2.550   5.845   9.300  2.5869 -1.1020 -1.4350
 4326TIP3   OH237172   6.511   3.593   8.095  0.2936 -0.0097  0.3481
 4326TIP3    H137173   6.507   3.593   8.190  0.5879 -0.0068  0.3635
 4326TIP3    H237174   6.592   3.641   8.074  0.6016 -0.6160  0.1195
 4327TIP3   OH237175   1.017   2.147   7.400 -0.4961 -0.3456 -0.8370
 4327TIP3    H137176   0.968   2.215   7.446  0.2286 -0.4402  0.0933
 4327TIP3    H237177   1.043   2.188   7.317  0.3088  0.6663 -0.1003
 4328TIP3   OH237178   2.427   6.051   7.981 -0.0805  0.0016  0.5882
 4328TIP3    H137179   2.371   6.072   7.906  0.4208  3.0279  0.9423
 4328TIP3    H237180   2.368   6.046   8.055 -0.3853 -1.4528  0.2754
 4329TIP3   OH237181   5.710   5.840   8.481  0.0548 -0.2382  0.1081
 4329TIP3    H137182   5.618   5.814   8.483 -0.0165  0.0234  2.6934
 4329TIP3    H237183   5.752   5.786   8.548  1.2577  1.4122  0.7495
 4330TIP3   OH237184   5.974   1.528   7.815  0.2921  0.3832  0.1817
 4330TIP3    H137185   5.885   1.506   7.788  0.1930  0.2367  0.6157
 4330TIP3    H237186   5.965   1.606   7.870  0.0586 -1.2352  2.6151
 4331TIP3   OH237187   0.779   6.171   8.475  0.1836 -0.2147 -0.1994
 4331TIP3    H137188   0.699   6.167   8.526 -0.0456  1.2029 -0.4015
 4331TIP3    H237189   0.770   6.250   8.422  0.2253 -1.8146 -2.7599
 4332TIP3   OH237190   6.380   6.721   8.630  0.3162  0.2758 -0.4124
 4332TIP3    H137191   6.355   6.635   8.666  0.0516  0.6695  0.3678
 4332TIP3    H237192   6.407   6.772   8.707  0.2992  0.9494 -0.8481
 4333TIP3   OH237193   1.493   2.945   9.032 -0.2441 -0.2098  0.4723
 4333TIP3    H137194   1.407   2.986   9.027 -0.4471 -0.7819 -2.4738
 4333TIP3    H237195   1.477   2.855   9.060 -0.5003 -0.0576  0.8084
 4334TIP3   OH237196   7.596   1.107   7.651 -0.3240 -0.3580  0.3679
 4334TIP3    H137197   7.646   1.077   7.575 -0.9623  0.2740 -0.3182
 4334TIP3    H237198   7.569   1.027   7.695 -2.7881 -0.9465 -1.9421
 4335TIP3   OH237199   3.213   5.522   7.151 -0.3574 -0.7653  0.2755
 4335TIP3    H137200   3.225   5.505   7.057  2.2112  0.2108  0.3454
 4335TIP3    H237201   3.148   5.592   7.154 -0.9295 -1.2264 -0.7254
 4336TIP3   OH237202   0.932   4.096   8.677 -0.1469 -1.1125 -1.0897
 4336TIP3    H137203   0.943   4.154   8.601 -0.8368  0.1740 -0.2358
 4336TIP3    H237204   0.991   4.132   8.743 -3.2532  1.0158  0.7698
 4337TIP3   OH237205   5.029   1.414   8.522  0.0333 -0.0754 -0.4190
 4337TIP3    H137206   5.004   1.332   8.480  1.1922 -1.6421  1.7201
 4337TIP3    H237207   5.124   1.407   8.533 -0.0015  0.9904  0.8742
 4338TIP3   OH237208   6.499   4.035   7.504  0.0398  0.1044 -0.1623
 4338TIP3    H137209   6.482   4.019   7.411 -0.4451 -1.4025  0.1732
 4338TIP3    H237210   6.431   4.097   7.531 -0.5844 -0.4149 -0.5197
 4339TIP3   OH237211   0.367   2.185   8.111  0.1602 -0.1101  0.0301
 4339TIP3    H137212   0.365   2.093   8.086  2.9171 -0.2573  0.0843
 4339TIP3    H237213   0.436   2.224   8.057  0.3114  1.4935  1.2687
 4340TIP3   OH237214   7.119   2.962   8.300 -0.1833  0.0626  0.0987
 4340TIP3    H137215   7.029   2.981   8.274 -0.7293 -1.7925  0.4758
 4340TIP3    H237216   7.169   2.961   8.219 -0.5655  0.7002 -0.1508
 4341TIP3   OH237217   1.656   3.721   7.915 -0.2176 -0.5296 -0.1477
 4341TIP3    H137218   1.748   3.744   7.907 -0.5305  0.5993 -0.6561
 4341TIP3    H237219   1.655   3.625   7.907  0.6652 -0.4123 -2.8027
 4342TIP3   OH237220   4.950   0.275   8.346  0.6140  0.0687 -0.6116
 4342TIP3    H137221   5.003   0.277   8.425 -0.4066 -0.0394  0.0934
 4342TIP3    H237222   4.882   0.341   8.360 -1.2387 -1.8110 -0.1640
 4343TIP3   OH237223   2.042   4.711   7.125 -0.1689 -0.3141  0.1742
 4343TIP3    H137224   2.088   4.730   7.206  1.7906 -0.0813 -0.9323
 4343TIP3    H237225   2.110   4.680   7.065 -1.4668 -0.0451 -1.5307
 4344TIP3   OH237226   1.165   4.704   8.938  0.0286 -0.2160  0.3534
 4344TIP3    H137227   1.137   4.698   9.029 -1.7571  4.6124  0.3987
 4344TIP3    H237228   1.246   4.756   8.941 -0.8450  1.2830 -0.8131
 4345TIP3   OH237229   4.761   6.688   9.388 -0.6746  0.2470 -0.1495
 4345TIP3    H137230   4.848   6.706   9.423 -1.0047 -1.5998  1.8162
 4345TIP3    H237231   4.705   6.757   9.425 -0.1486  1.2735 -1.2003
 4346TIP3   OH237232   5.587   3.003   9.212  0.1601 -0.3982 -0.4909
 4346TIP3    H137233   5.536   2.961   9.281 -0.1570 -0.8505 -0.9986
 4346TIP3    H237234   5.670   2.955   9.210  0.8653  0.6912  0.7196
 4347TIP3   OH237235   4.799   3.281   8.509  0.3273 -0.0754  0.5827
 4347TIP3    H137236   4.836   3.353   8.458 -2.6335  0.9840 -0.2185
 4347TIP3    H237237   4.800   3.206   8.448 -2.2802  0.9377 -0.8629
 4348TIP3   OH237238   7.588   5.497   9.089 -0.4422  0.0638  0.0591
 4348TIP3    H137239   7.519   5.442   9.053 -0.4213  0.6451 -0.8867
 4348TIP3    H237240   7.629   5.538   9.013 -0.6179  1.5775  0.7352
 4349TIP3   OH237241   6.843   2.821   7.534 -0.0504 -0.0275 -0.1003
 4349TIP3    H137242   6.795   2.839   7.454 -0.7668  0.2493  0.3742
 4349TIP3    H237243   6.847   2.906   7.579  1.5813  0.1189 -0.4946
 4350TIP3   OH237244   4.216   0.453   9.096 -0.1240  0.3135  0.2837
 4350TIP3    H137245   4.208   0.431   9.189 -0.0097 -1.6591 -0.1158
 4350TIP3    H237246   4.310   0.458   9.080 -0.1319  0.1176  0.1703
 4351TIP3   OH237247   5.835   5.349   7.231 -0.0129 -0.0802  0.2201
 4351TIP3    H137248   5.902   5.408   7.267  0.4818 -0.6892  0.3172
 4351TIP3    H237249   5.870   5.262   7.246 -0.5224 -0.3884 -0.3489
 4352TIP3   OH237250   5.352   4.749   9.323 -0.0836  0.4424 -0.3142
 4352TIP3    H137251   5.383   4.834   9.292  0.7610 -0.0903 -1.0117
 4352TIP3    H237252   5.373   4.749   9.417  0.8992  0.5986 -0.5213
 4353TIP3   OH237253   2.692   3.158   8.455  0.6670 -0.2551  0.2659
 4353TIP3    H137254   2.762   3.130   8.396  2.4894  0.5391  1.9501
 4353TIP3    H237255   2.678   3.082   8.513  0.0231 -0.4612 -0.1537
 4354TIP3   OH237256   3.078   3.599   7.190  0.2878  0.1210  0.0980
 4354TIP3    H137257   3.170   3.618   7.174  0.2665  0.7908  0.6924
 4354TIP3    H237258   3.055   3.533   7.125  0.9839  0.5111 -0.5623
 4355TIP3   OH237259   2.930   5.321   9.310 -0.1764  0.4191  0.3644
 4355TIP3    H137260   2.883   5.259   9.255  0.4630  0.9353 -0.8265
 4355TIP3    H237261   2.972   5.268   9.377 -0.9715 -0.2341  0.3519
 4356TIP3   OH237262   1.240   4.488   7.629  0.6065  0.4714  0.3954
 4356TIP3    H137263   1.198   4.572   7.610 -0.9728 -0.0012  1.5165
 4356TIP3    H237264   1.309   4.509   7.691  0.5099  0.9963  0.3324
 4357TIP3   OH237265   1.187   2.027   8.740  0.2725  0.6060 -0.7487
 4357TIP3    H137266   1.263   1.992   8.692  0.2339 -1.6573  0.7244
 4357TIP3    H237267   1.112   2.000   8.688  0.2383 -1.7326  0.4221
 4358TIP3   OH237268   0.721   2.281   9.533  0.0461  0.6904  0.1395
 4358TIP3    H137269   0.700   2.297   9.441  0.2806  0.7881  0.1033
 4358TIP3    H237270   0.651   2.325   9.581 -1.6840 -1.6418 -0.0268
 4359TIP3   OH237271   6.215   7.408   9.223 -0.1322  0.3568  0.0803
 4359TIP3    H137272   6.153   7.420   9.295 -1.6552  0.5652 -1.2053
 4359TIP3    H237273   6.211   7.490   9.174  0.8879  0.2225 -0.2381
 4360TIP3   OH237274   5.827   2.995   8.598  0.4669  0.1324  0.0872
 4360TIP3    H137275   5.876   2.922   8.635  1.8779  1.0906  0.2265
 4360TIP3    H237276   5.736   2.979   8.622  0.5432 -2.2044 -0.9700
 4361TIP3   OH237277   3.813   7.039   9.097  0.3925  0.6388  0.1291
 4361TIP3    H137278   3.858   7.122   9.115  0.8658  0.1835  1.1121
 4361TIP3    H237279   3.726   7.065   9.065  0.5550  1.5097  0.3711
 4362TIP3   OH237280   0.875   2.945   8.251 -0.0117 -0.3951  0.4339
 4362TIP3    H137281   0.912   2.896   8.324  0.9291 -0.5150 -0.1126
 4362TIP3    H237282   0.909   2.902   8.173 -1.4884 -0.6402 -0.1005
 4363TIP3   OH237283   6.925   3.505   9.284  0.0208  0.1872 -0.3992
 4363TIP3    H137284   6.920   3.563   9.361 -0.4324  0.3419 -0.5422
 4363TIP3    H237285   7.012   3.467   9.289  0.0855  0.3837  0.0619
 4364TIP3   OH237286   2.490   6.978   8.919 -0.3762  0.2697 -0.0800
 4364TIP3    H137287   2.399   7.002   8.901 -0.8347 -0.7114  0.8010
 4364TIP3    H237288   2.508   7.016   9.005 -0.0870  0.1320 -0.0794
 4365TIP3   OH237289   2.250   6.978   8.065  0.0659  0.3839 -0.1715
 4365TIP3    H137290   2.262   6.941   8.152 -0.0261  0.7738  0.0133
 4365TIP3    H237291   2.339   6.987   8.030  0.1202  0.4682 -0.0124
 4366TIP3   OH237292   2.706   3.367   7.630 -0.5626  0.0829  0.4554
 4366TIP3    H137293   2.739   3.428   7.564 -0.8770 -0.6398 -0.3883
 4366TIP3    H237294   2.678   3.423   7.703 -0.9324  0.9517 -0.3378
 4367TIP3   OH237295   7.323   3.840   8.327  0.4317  0.1318  0.7453
 4367TIP3    H137296   7.273   3.920   8.343 -0.2265 -0.5653  2.4516
 4367TIP3    H237297   7.393   3.843   8.393 -0.0454 -1.0296  1.3269
 4368TIP3   OH237298   5.205   6.098   8.242 -0.7331 -0.2335  0.0384
 4368TIP3    H137299   5.299   6.098   8.227 -1.1740  0.2720 -3.6832
 4368TIP3    H237300   5.189   6.176   8.296  0.9108 -0.0758  0.3458
 4369TIP3   OH237301   2.791   7.545   9.345  0.3945  0.0439 -0.1852
 4369TIP3    H137302   2.797   7.571   9.253 -0.3745  1.6582  0.1705
 4369TIP3    H237303   2.721   7.600   9.380  0.3239 -0.9189  1.2477
 4370TIP3   OH237304   7.427   6.765   7.368 -0.0470 -0.1467  0.1342
 4370TIP3    H137305   7.455   6.677   7.391  1.4751 -0.4857 -2.5636
 4370TIP3    H237306   7.332   6.760   7.365 -0.0958 -1.1357  1.8640
 4371TIP3   OH237307   6.933   1.630   8.266 -0.2812  0.1119  0.3422
 4371TIP3    H137308   6.848   1.642   8.308  0.6132  0.6039  2.1563
 4371TIP3    H237309   6.948   1.713   8.219 -0.8910 -0.0709 -0.1858
 4372TIP3   OH237310   3.541   1.481   8.807 -0.3953  0.0453 -0.0521
 4372TIP3    H137311   3.566   1.411   8.868  0.5842 -0.8136 -1.3650
 4372TIP3    H237312   3.460   1.516   8.842  0.0026 -0.5883  1.5876
 4373TIP3   OH237313   2.062   6.790   8.947 -0.5468  0.2720  0.3004
 4373TIP3    H137314   2.035   6.698   8.952  1.5956 -0.3513  2.2512
 4373TIP3    H237315   2.051   6.823   9.037  0.9337  1.1955  0.1716
 4374TIP3   OH237316   2.125   4.984   7.066  0.0990  0.3742 -0.0460
 4374TIP3    H137317   2.091   5.048   7.003  0.9758  0.5843 -0.3168
 4374TIP3    H237318   2.083   4.902   7.042 -0.1049  0.5961 -0.4636
 4375TIP3   OH237319   4.308   1.865   7.401  0.4198 -0.6032  0.1958
 4375TIP3    H137320   4.263   1.850   7.319 -0.1159 -1.4872  0.6457
 4375TIP3    H237321   4.275   1.798   7.461  0.7884  0.0234  1.1398
 4376TIP3   OH237322   6.349   4.817   8.596 -0.1695  0.3076  0.0328
 4376TIP3    H137323   6.274   4.853   8.644 -0.2936  1.0220 -0.6692
 4376TIP3    H237324   6.325   4.726   8.579 -1.2929  0.7495 -0.9383
 4377TIP3   OH237325   3.693   4.519   7.625  0.5300  0.5343 -0.1400
 4377TIP3    H137326   3.783   4.490   7.609  0.3020  1.2987 -3.6859
 4377TIP3    H237327   3.649   4.443   7.663  2.0324 -0.8217 -1.0202
 4378TIP3   OH237328   2.251   7.552   7.155  0.1650  0.0827  0.2170
 4378TIP3    H137329   2.159   7.538   7.179 -0.5037  1.9195 -1.0635
 4378TIP3    H237330   2.254   7.536   7.061  0.6660  2.1355 -0.1537
 4379TIP3   OH237331   2.494   4.308   8.116 -0.0385 -0.1066  0.0651
 4379TIP3    H137332   2.526   4.398   8.114 -2.0947  0.6550 -0.6330
 4379TIP3    H237333   2.484   4.284   8.024 -0.6441 -0.6223  0.2588
 4380TIP3   OH237334   2.617   5.328   6.394  0.0491 -0.2346  0.4711
 4380TIP3    H137335   2.597   5.235   6.401  0.3364 -0.3819 -0.5389
 4380TIP3    H237336   2.533   5.370   6.380 -0.0371 -0.3812  0.5493
 4381TIP3   OH237337   1.034   7.439   8.631  0.4426 -0.0463  0.1193
 4381TIP3    H137338   1.072   7.423   8.718  2.8601 -1.8445 -1.1659
 4381TIP3    H237339   0.949   7.395   8.634  1.7822 -2.8330  0.6964
 4382TIP3   OH237340   6.312   5.257   8.918 -0.5465 -0.4810 -0.0879
 4382TIP3    H137341   6.297   5.320   8.989  0.2907 -2.7282  2.2074
 4382TIP3    H237342   6.402   5.275   8.889 -1.4780  1.6732 -2.0395
 4383TIP3   OH237343   7.183   7.453   9.431 -0.7286  0.1632 -0.4304
 4383TIP3    H137344   7.257   7.403   9.466 -0.4600 -0.6591 -2.0186
 4383TIP3    H237345   7.115   7.387   9.418 -0.1992  0.0131 -3.0433
 4384TIP3   OH237346   0.274   6.112   9.511  0.8721  0.0469 -0.0873
 4384TIP3    H137347   0.233   6.071   9.435 -0.4622 -0.5281  0.9179
 4384TIP3    H237348   0.322   6.040   9.554  1.1922  0.2517 -0.1004
 4385TIP3   OH237349   1.360   0.081   9.571 -0.1115 -0.3746 -0.5474
 4385TIP3    H137350   1.391   0.110   9.657 -2.0096 -0.6330  0.2581
 4385TIP3    H237351   1.423   0.120   9.509  1.4179 -0.3690  0.9410
 4386TIP3   OH237352   4.259   4.571   9.054 -0.0818 -0.1313 -0.0401
 4386TIP3    H137353   4.349   4.601   9.070  0.3190 -1.1415 -0.2832
 4386TIP3    H237354   4.270   4.493   8.999 -1.1409  0.0392 -0.5015
 4387TIP3   OH237355   2.866   5.379   8.846  0.0492 -0.9072  0.9191
 4387TIP3    H137356   2.945   5.384   8.791  1.5864 -0.2301  3.0730
 4387TIP3    H237357   2.794   5.396   8.785  1.5506 -1.2578 -1.0792
 4388TIP3   OH237358   4.107   7.588   8.319 -0.2507  0.0358  0.3251
 4388TIP3    H137359   4.119   7.666   8.265  0.1628  0.2273  0.6893
 4388TIP3    H237360   4.074   7.522   8.259 -1.1992  0.6650  0.1327
 4389TIP3   OH237361   0.994   5.571   7.181  0.2833 -0.7325  0.6685
 4389TIP3    H137362   0.899   5.579   7.181  0.3749  0.9218 -0.6190
 4389TIP3    H237363   1.017   5.559   7.273 -1.1870 -1.9388  0.9195
 4390TIP3   OH237364   3.139   2.156   7.664 -0.0329 -0.0821  0.4494
 4390TIP3    H137365   3.066   2.217   7.675 -0.4087  0.0833 -2.2384
 4390TIP3    H237366   3.135   2.099   7.740 -1.9057  0.9947  1.2104
 4391TIP3   OH237367   0.406   4.114   7.576 -0.2720 -0.6575 -0.0421
 4391TIP3    H137368   0.372   4.067   7.652  1.9261 -0.6537  1.0294
 4391TIP3    H237369   0.484   4.158   7.609  0.5783 -0.4036 -2.2523
 4392TIP3   OH237370   6.922   6.636   9.031 -0.1309  0.5763 -0.2671
 4392TIP3    H137371   6.881   6.553   9.003 -1.5920  1.1980 -0.0856
 4392TIP3    H237372   6.967   6.614   9.112  0.0337 -0.1803 -0.5510
 4393TIP3   OH237373   4.729   0.836   7.560 -0.2067 -0.6717 -0.2838
 4393TIP3    H137374   4.642   0.857   7.596 -1.9929 -3.9284 -2.2126
 4393TIP3    H237375   4.728   0.874   7.472 -0.2050 -1.7994 -0.7768
 4394TIP3   OH237376   7.238   0.806   9.065 -0.2948  0.4588 -0.0314
 4394TIP3    H137377   7.250   0.875   9.130 -1.2577  0.6065 -0.0056
 4394TIP3    H237378   7.225   0.727   9.117 -0.8332  0.5370 -0.0498
 4395TIP3   OH237379   1.159   0.966   8.671  0.8592 -0.4679  0.3102
 4395TIP3    H137380   1.239   0.993   8.715  0.2277  1.3961  0.4277
 4395TIP3    H237381   1.151   1.025   8.596 -1.1906  0.5244  1.2134
 4396TIP3   OH237382   6.357   3.700   7.533 -0.3738  0.1063 -0.4727
 4396TIP3    H137383   6.393   3.693   7.444  0.7516 -0.9616  0.0351
 4396TIP3    H237384   6.281   3.641   7.532  0.9480 -1.6795 -0.1353
 4397TIP3   OH237385   1.911   3.976   8.973 -0.7843  0.4377 -0.2418
 4397TIP3    H137386   1.991   3.924   8.978  0.1148  1.5671 -1.9784
 4397TIP3    H237387   1.843   3.917   9.006  0.4329 -1.2507 -0.5752
 4398TIP3   OH237388   5.636   1.617   9.351  0.1698  0.0687  0.4620
 4398TIP3    H137389   5.601   1.693   9.397 -1.4254 -1.2256  1.5374
 4398TIP3    H237390   5.568   1.595   9.287  1.6399  0.8607 -1.4865
 4399TIP3   OH237391   7.135   1.072   7.949  0.2469  0.7376 -0.0814
 4399TIP3    H137392   7.090   0.990   7.927  0.2616  0.9660 -0.9843
 4399TIP3    H237393   7.065   1.138   7.947  0.5134  1.0126 -1.0073
 4400TIP3   OH237394   7.239   7.527   9.159  0.7831 -0.2065 -0.2943
 4400TIP3    H137395   7.272   7.477   9.234 -0.7223 -0.3306  0.3220
 4400TIP3    H237396   7.260   7.618   9.180 -0.2937 -0.1596  0.6626
 4401TIP3   OH237397   3.584   2.406   7.704 -0.4914  0.1635 -0.3130
 4401TIP3    H137398   3.528   2.347   7.654  0.3847  0.1004 -1.2567
 4401TIP3    H237399   3.669   2.403   7.659  0.1558  0.5662  0.8360
 4402TIP3   OH237400   4.552   5.443   7.775  0.4943  0.0122  0.3500
 4402TIP3    H137401   4.626   5.387   7.753  1.1353  1.4005 -1.2292
 4402TIP3    H237402   4.515   5.469   7.691 -1.9796 -0.8080  1.0893
 4403TIP3   OH237403   6.654   7.282   8.476 -0.0012 -0.6022  0.3549
 4403TIP3    H137404   6.649   7.190   8.503 -0.6320 -0.7037 -0.0872
 4403TIP3    H237405   6.568   7.317   8.498 -0.8516 -0.8895 -2.2292
 4404TIP3   OH237406   7.252   1.336   7.423  0.3448 -0.3114 -0.1986
 4404TIP3    H137407   7.299   1.307   7.502  0.4075 -1.0244 -0.4958
 4404TIP3    H237408   7.186   1.268   7.408  0.0359  0.0558 -0.5044
 4405TIP3   OH237409   5.021   1.032   7.856  0.1327 -0.2996 -0.7086
 4405TIP3    H137410   4.985   0.962   7.910 -0.1917 -0.0955 -0.6576
 4405TIP3    H237411   5.044   1.101   7.918 -1.4330  0.4633 -0.9227
 4406TIP3   OH237412   2.542   4.563   8.051  0.1335 -0.4010  0.2459
 4406TIP3    H137413   2.610   4.519   8.000  0.4453 -0.0905  0.3944
 4406TIP3    H237414   2.470   4.575   7.989  0.8918  0.9008 -0.4198
 4407TIP3   OH237415   3.634   2.263   8.574  0.2290 -0.0513  0.1255
 4407TIP3    H137416   3.702   2.242   8.510  2.4947  2.2481  1.6149
 4407TIP3    H237417   3.648   2.201   8.646  0.9138  0.5574  0.5238
 4408TIP3   OH237418   4.500   4.623   6.997 -0.0614 -0.0049  0.8106
 4408TIP3    H137419   4.428   4.615   6.935  0.3830  0.9250  0.1719
 4408TIP3    H237420   4.486   4.551   7.059  0.5701 -2.2229 -1.4409
 4409TIP3   OH237421   3.617   6.294   9.163 -0.1520  0.0665 -0.2823
 4409TIP3    H137422   3.592   6.382   9.191  2.0385  0.7690 -0.3437
 4409TIP3    H237423   3.644   6.250   9.243 -0.5763 -0.3248 -0.3513
 4410TIP3   OH237424   0.755   4.115   7.938  0.3067  0.1029 -0.0876
 4410TIP3    H137425   0.776   4.193   7.887  0.2197 -0.0577 -0.3709
 4410TIP3    H237426   0.784   4.042   7.883 -0.5506 -0.1046 -0.2770
 4411TIP3   OH237427   2.070   2.453   8.325 -0.0634 -0.0301  0.2180
 4411TIP3    H137428   2.099   2.368   8.358 -1.3486 -1.2618 -1.6429
 4411TIP3    H237429   1.983   2.465   8.363 -0.2884 -0.0065 -0.3024
 4412TIP3   OH237430   0.256   0.306   7.830 -0.4725 -0.3568 -0.1246
 4412TIP3    H137431   0.273   0.324   7.923 -1.6539 -0.8865  0.2267
 4412TIP3    H237432   0.239   0.212   7.827  1.1170 -0.6393 -1.1592
 4413TIP3   OH237433   6.210   5.624   7.419 -0.2970  0.2606  0.0049
 4413TIP3    H137434   6.293   5.628   7.372 -0.0342  1.3029  0.5327
 4413TIP3    H237435   6.195   5.531   7.435  0.0818 -0.0406 -1.2871
 4414TIP3   OH237436   1.028   1.185   8.530  0.6040  0.0122 -0.2475
 4414TIP3    H137437   0.943   1.211   8.493  0.5019 -0.5714 -0.4305
 4414TIP3    H237438   1.071   1.268   8.551  0.7875  0.3826 -1.9316
 4415TIP3   OH237439   7.059   1.181   8.719 -0.0014  0.4298  0.3084
 4415TIP3    H137440   7.027   1.091   8.716  0.1666  0.3417 -3.3077
 4415TIP3    H237441   6.980   1.235   8.711  0.1331  0.3797 -2.1553
 4416TIP3   OH237442   5.821   7.496   7.233 -0.6392  0.5253 -0.4232
 4416TIP3    H137443   5.791   7.420   7.184 -2.0297  0.4558  0.4967
 4416TIP3    H237444   5.741   7.536   7.268  0.2541  0.8451  1.3745
 4417TIP3   OH237445   5.793   4.953   7.774  0.0026 -0.2032 -0.4246
 4417TIP3    H137446   5.781   5.007   7.852 -0.0679 -0.5603 -0.1803
 4417TIP3    H237447   5.726   4.885   7.782  0.0515 -0.2903 -0.7525
 4418TIP3   OH237448   4.028   1.996   9.504 -0.8146 -0.2528 -0.2219
 4418TIP3    H137449   4.072   1.918   9.538  0.5107  0.7463  0.4431
 4418TIP3    H237450   4.095   2.065   9.505 -0.4295 -0.1301 -5.2452
 4419TIP3   OH237451   5.425   7.476   7.547 -0.9874  0.5296 -0.3404
 4419TIP3    H137452   5.493   7.410   7.531 -1.5488  0.0141 -0.6910
 4419TIP3    H237453   5.349   7.424   7.575 -1.0146  1.1576  0.7741
 4420TIP3   OH237454   7.038   0.502   7.513  0.0203  0.1142 -0.6254
 4420TIP3    H137455   6.948   0.495   7.482 -0.0431 -1.0754 -0.2263
 4420TIP3    H237456   7.070   0.585   7.478 -0.1723 -0.9408 -3.5205
 4421TIP3   OH237457   0.990   2.498   8.082 -0.1191 -0.0617  0.3394
 4421TIP3    H137458   0.947   2.491   8.168  0.1245 -0.2940  0.4449
 4421TIP3    H237459   1.079   2.465   8.097  0.5093  1.5808  0.4200
 4422TIP3   OH237460   0.554   5.981   8.661 -0.3257 -0.2281 -0.3415
 4422TIP3    H137461   0.501   5.904   8.641 -0.4773 -0.2104 -0.0145
 4422TIP3    H237462   0.602   5.958   8.741 -1.1747  0.3946  0.3707
 4423TIP3   OH237463   3.922   6.694   7.061 -0.2233 -0.4270  0.0293
 4423TIP3    H137464   3.860   6.766   7.070  1.1901  0.6678  1.6778
 4423TIP3    H237465   3.906   6.637   7.136  0.1344 -0.6420 -0.0519
 4424TIP3   OH237466   3.836   2.857   7.748  0.6011 -0.5211 -0.1019
 4424TIP3    H137467   3.780   2.781   7.767 -0.6013  0.0393 -1.1852
 4424TIP3    H237468   3.776   2.932   7.751  1.3854  0.1565 -0.8549
 4425TIP3   OH237469   2.738   2.862   8.506  0.5679 -0.5455 -0.6073
 4425TIP3    H137470   2.678   2.828   8.439 -1.3403  0.4237  0.5358
 4425TIP3    H237471   2.710   2.821   8.587 -0.1768  1.7503  0.3682
 4426TIP3   OH237472   6.702   6.010   9.091  0.1707 -0.1028 -0.0943
 4426TIP3    H137473   6.749   6.076   9.142 -1.1013  0.5141  0.3153
 4426TIP3    H237474   6.756   5.996   9.014  0.8883  0.7825  0.2372
 4427TIP3   OH237475   0.108   1.462   7.631 -0.4257  0.2915 -0.3764
 4427TIP3    H137476   0.204   1.462   7.631 -0.4052 -1.0351  0.2516
 4427TIP3    H237477   0.084   1.390   7.572 -1.0659  1.1587 -1.2093
 4428TIP3   OH237478   4.730   7.245   8.603  0.4117 -0.1735  0.5438
 4428TIP3    H137479   4.710   7.232   8.510  0.4304  0.3959  0.4554
 4428TIP3    H237480   4.750   7.338   8.610  0.5174 -0.2354  1.1030
 4429TIP3   OH237481   7.292   3.498   8.340  0.0437 -0.1149 -0.3152
 4429TIP3    H137482   7.276   3.591   8.356 -1.5709 -0.2348 -1.0857
 4429TIP3    H237483   7.335   3.495   8.255 -0.4601 -0.0974 -0.5747
 4430TIP3   OH237484   2.741   1.167   7.867 -0.2519 -0.5330  0.4424
 4430TIP3    H137485   2.817   1.148   7.813  0.5702 -1.4611  1.8698
 4430TIP3    H237486   2.761   1.251   7.909 -0.4655 -0.2975  0.0879
 4431TIP3   OH237487   0.495   1.217   6.966  0.2859 -0.0931  0.1957
 4431TIP3    H137488   0.503   1.312   6.958 -1.0244  0.0957  0.9006
 4431TIP3    H237489   0.519   1.198   7.056 -0.2050 -0.3413  0.2766
 4432TIP3   OH237490   3.302   3.389   9.375  0.3233  0.0692  0.4655
 4432TIP3    H137491   3.282   3.312   9.429  0.5277  0.3715  0.9797
 4432TIP3    H237492   3.370   3.359   9.315  0.2215 -0.2231  0.4921
 4433TIP3   OH237493   4.527   3.379   9.427 -0.3072 -0.4195  0.5349
 4433TIP3    H137494   4.551   3.388   9.519 -1.4563  0.2359  0.7898
 4433TIP3    H237495   4.597   3.421   9.379  0.8694 -1.7262  1.0249
 4434TIP3   OH237496   3.374   1.243   8.885  0.2579  0.5239  0.0882
 4434TIP3    H137497   3.319   1.243   8.806  0.0456 -1.3186  0.1846
 4434TIP3    H237498   3.317   1.276   8.954 -0.4645 -0.5212  0.0063
 4435TIP3   OH237499   5.416   6.025   8.483 -0.1732 -0.3114 -0.5262
 4435TIP3    H137500   5.328   6.062   8.496 -0.2823 -0.6795 -0.1950
 4435TIP3    H237501   5.462   6.091   8.431 -0.5579  0.0120 -0.4633
 4436TIP3   OH237502   6.040   5.057   6.960  0.0330  0.5302  0.0599
 4436TIP3    H137503   6.100   5.043   6.887 -1.1274  0.1833 -0.8606
 4436TIP3    H237504   5.984   5.130   6.932 -0.9615 -0.1409  0.2467
 4437TIP3   OH237505   0.659   2.476   7.824  0.0686  0.1318  0.4723
 4437TIP3    H137506   0.571   2.482   7.786 -0.2207  1.0794  1.2392
 4437TIP3    H237507   0.714   2.528   7.765  0.0366 -0.0987  0.2346
 4438TIP3   OH237508   5.320   3.193   8.284  0.0658  0.1990 -0.2337
 4438TIP3    H137509   5.277   3.186   8.199 -1.8214  1.0341  0.5935
 4438TIP3    H237510   5.383   3.121   8.286 -0.2574 -0.1753 -2.0820
 4439TIP3   OH237511   0.899   4.932   9.261 -0.0339  0.1072  0.4056
 4439TIP3    H137512   0.975   4.963   9.212  0.3792 -0.7629  0.4893
 4439TIP3    H237513   0.898   4.986   9.339  0.0366  0.6550  0.0352
 4440TIP3   OH237514   2.187   0.958   7.071  0.5400 -0.1841 -0.0992
 4440TIP3    H137515   2.220   1.048   7.069 -0.3557  0.1989  1.1089
 4440TIP3    H237516   2.196   0.931   7.163 -0.7602 -0.7135 -0.1083
 4441TIP3   OH237517   3.120   5.156   8.424  0.0178 -0.1790 -0.3970
 4441TIP3    H137518   3.166   5.211   8.487 -0.0619  0.2923 -0.7368
 4441TIP3    H237519   3.151   5.068   8.441 -1.4601 -0.3807  1.6359
 4442TIP3   OH237520   2.691   1.065   8.379 -0.1170  0.4465 -0.1972
 4442TIP3    H137521   2.720   0.974   8.375  0.8252  0.7171  0.2032
 4442TIP3    H237522   2.698   1.088   8.472 -3.1813  0.0573  0.2239
 4443TIP3   OH237523   4.970   0.871   7.074 -0.0081 -0.3850 -0.0356
 4443TIP3    H137524   5.032   0.798   7.070  0.4688 -0.0217  0.5426
 4443TIP3    H237525   4.990   0.914   7.157 -0.8291 -0.0758  0.0033
 4444TIP3   OH237526   4.989   4.778   8.602 -0.0143 -0.1090  0.1025
 4444TIP3    H137527   4.929   4.739   8.539 -0.2664  0.1514  0.1773
 4444TIP3    H237528   4.965   4.871   8.603  0.2666 -0.0371  0.2701
 4445TIP3   OH237529   1.948   3.340   7.691 -0.0809 -0.1386  0.2669
 4445TIP3    H137530   1.984   3.383   7.613 -0.4147  0.2217  0.3092
 4445TIP3    H237531   2.023   3.330   7.750  0.4100 -1.3704 -0.5090
 4446TIP3   OH237532   5.537   0.118   9.076 -0.3961 -0.2532 -0.2529
 4446TIP3    H137533   5.468   0.151   9.134 -0.2426  1.2537 -0.9041
 4446TIP3    H237534   5.497   0.043   9.032 -2.3991  1.7778 -2.1412
 4447TIP3   OH237535   5.390   7.076   7.533 -0.0424  0.3544 -0.4941
 4447TIP3    H137536   5.372   7.073   7.439 -1.5302 -2.5917 -0.2184
 4447TIP3    H237537   5.438   6.996   7.551 -0.1353  0.6773  1.3467
 4448TIP3   OH237538   4.081   6.412   7.051  0.0447 -0.0781  0.3232
 4448TIP3    H137539   4.148   6.378   7.111 -1.1347 -0.5549  1.4106
 4448TIP3    H237540   4.024   6.466   7.107 -0.2837  0.6014 -0.6510
 4449TIP3   OH237541   2.458   0.445   8.636 -0.2014  0.8091 -0.0047
 4449TIP3    H137542   2.447   0.518   8.575 -2.1256 -0.0325 -0.7331
 4449TIP3    H237543   2.444   0.367   8.583 -0.9858  0.0142  1.3310
 4450TIP3   OH237544   5.955   6.512   8.910 -0.2769 -0.0952  0.1628
 4450TIP3    H137545   6.025   6.473   8.963 -0.7281 -0.8121  0.2371
 4450TIP3    H237546   5.954   6.460   8.830 -0.5464  0.0874  0.0472
 4451TIP3   OH237547   2.106   2.655   9.577  0.2078  0.5204 -0.1760
 4451TIP3    H137548   2.179   2.707   9.542 -0.7119  0.6347 -2.0424
 4451TIP3    H237549   2.028   2.707   9.555 -0.6499 -1.1008 -1.1273
 4452TIP3   OH237550   6.922   1.327   7.282 -0.0458  0.5581 -0.5024
 4452TIP3    H137551   6.974   1.250   7.258 -1.1985 -0.6951  0.8282
 4452TIP3    H237552   6.833   1.304   7.254 -0.3171  1.6406 -0.5421
 4453TIP3   OH237553   0.079   3.889   7.977 -0.2011  0.4413 -0.3774
 4453TIP3    H137554   0.169   3.908   8.001  0.2266 -0.6358 -1.0575
 4453TIP3    H237555   0.050   3.822   8.038  0.4169 -1.2579 -1.8678
 4454TIP3   OH237556   4.354   4.637   9.402  0.0173 -0.1160  0.1279
 4454TIP3    H137557   4.258   4.633   9.399  0.0385 -0.5022 -0.1601
 4454TIP3    H237558   4.382   4.547   9.386  0.4221 -0.0636  0.5456
 4455TIP3   OH237559   2.699   4.986   9.212  0.1717  0.2372  0.4500
 4455TIP3    H137560   2.777   4.992   9.267  0.3962  2.4220  0.0057
 4455TIP3    H237561   2.731   4.994   9.123 -0.3613 -1.4652  0.0725
 4456TIP3   OH237562   7.646   5.368   9.320 -0.1270  0.7617 -0.0751
 4456TIP3    H137563   7.626   5.417   9.399 -0.4182 -0.6774  0.7914
 4456TIP3    H237564   7.630   5.429   9.248 -0.7708  1.8049  0.9232
 4457TIP3   OH237565   5.173   1.160   9.533  0.0952 -0.4379 -0.6461
 4457TIP3    H137566   5.201   1.075   9.568  1.9041  0.9789  1.6443
 4457TIP3    H237567   5.254   1.207   9.517 -0.8732  1.3572 -0.5396
 4458TIP3   OH237568   2.626   2.555   7.387  0.1720 -0.0193  0.3555
 4458TIP3    H137569   2.595   2.468   7.363 -1.8718  0.7734 -0.1620
 4458TIP3    H237570   2.549   2.611   7.376  1.7235  2.0694 -0.5173
 4459TIP3   OH237571   2.850   2.477   7.993  0.2394 -0.0001 -0.6196
 4459TIP3    H137572   2.938   2.470   8.029  0.6629 -3.5403 -1.9165
 4459TIP3    H237573   2.793   2.441   8.060  0.1990 -0.6178 -0.9815
 4460TIP3   OH237574   1.140   3.773   9.680 -0.0056  0.2298 -0.3024
 4460TIP3    H137575   1.097   3.701   9.725  0.6868  1.4504  2.5586
 4460TIP3    H237576   1.069   3.827   9.647 -0.5296 -1.4753 -2.1781
 4461TIP3   OH237577   3.619   3.779   9.279  0.6772 -0.3466 -0.3697
 4461TIP3    H137578   3.553   3.736   9.335  0.7989 -2.5365 -1.7892
 4461TIP3    H237579   3.659   3.707   9.231  2.3082  1.2334 -1.4592
 4462TIP3   OH237580   5.347   4.398   6.797  0.4075  0.0718  0.2276
 4462TIP3    H137581   5.410   4.438   6.858  0.7900 -0.0071 -0.1105
 4462TIP3    H237582   5.278   4.464   6.788  0.4934  0.2045  0.5189
 4463TIP3   OH237583   5.119   5.299   7.948  0.5468 -0.0946 -0.4435
 4463TIP3    H137584   5.160   5.234   7.891 -0.1564  0.8033 -2.0211
 4463TIP3    H237585   5.192   5.340   7.994  1.2381  0.0275 -1.6265
 4464TIP3   OH237586   6.960   1.452   8.470 -0.0072  0.5714 -0.0574
 4464TIP3    H137587   7.049   1.419   8.455  0.0893  0.7010  0.2313
 4464TIP3    H237588   6.958   1.536   8.424 -0.2767  0.1371 -0.8547
 4465TIP3   OH237589   1.875   1.237   7.831 -0.8600  0.4436  0.0273
 4465TIP3    H137590   1.904   1.218   7.742 -3.2796 -2.8370 -0.2539
 4465TIP3    H237591   1.938   1.192   7.887 -0.1686  1.2733 -0.0696
 4466TIP3   OH237592   6.509   7.023   7.407  0.1505 -0.0863  0.0030
 4466TIP3    H137593   6.496   7.009   7.313 -0.2607  0.1690  0.0203
 4466TIP3    H237594   6.603   7.010   7.420  0.4682  1.2751 -0.7033
 4467TIP3   OH237595   1.373   6.930   7.728  0.4238 -0.2844  0.8982
 4467TIP3    H137596   1.367   7.019   7.694  1.4341 -0.4381  0.2781
 4467TIP3    H237597   1.295   6.920   7.784 -1.2349  0.0331 -1.2105
 4468TIP3   OH237598   4.785   3.167   9.106 -0.3626 -0.0438 -0.5489
 4468TIP3    H137599   4.787   3.229   9.033 -0.4770 -0.5034 -0.9525
 4468TIP3    H237600   4.854   3.197   9.165 -1.7118  1.6530  0.2690
 4469TIP3   OH237601   6.586   7.576   8.630  0.5074 -0.3167 -0.2937
 4469TIP3    H137602   6.527   7.502   8.618 -1.2159  0.9404  0.1262
 4469TIP3    H237603   6.574   7.603   8.721  2.3625 -0.5134  0.0513
 4470TIP3   OH237604   1.504   0.587   9.191 -0.0015  0.0433  0.4465
 4470TIP3    H137605   1.445   0.662   9.188  0.4223  0.3474 -0.7310
 4470TIP3    H237606   1.508   0.555   9.101 -0.3714 -1.5620  0.9672
 4471TIP3   OH237607   7.434   0.446   8.387  0.1757 -0.1431  0.1138
 4471TIP3    H137608   7.371   0.376   8.370 -0.0708  0.2666 -0.7347
 4471TIP3    H237609   7.510   0.402   8.424  0.9244 -1.2244 -2.4493
 4472TIP3   OH237610   4.647   1.822   9.174 -0.2028 -0.4334  0.7146
 4472TIP3    H137611   4.626   1.893   9.236  0.6646 -0.2778  0.8545
 4472TIP3    H237612   4.563   1.796   9.137 -0.4351  1.5098 -0.2615
 4473TIP3   OH237613   4.616   0.526   6.937 -0.4991  0.0992  0.0389
 4473TIP3    H137614   4.695   0.551   6.889  0.2470  1.4473  1.8366
 4473TIP3    H237615   4.643   0.451   6.990 -1.2472 -1.2223 -1.3793
 4474TIP3   OH237616   5.233   4.360   8.814 -0.5186 -0.3041 -0.1064
 4474TIP3    H137617   5.207   4.452   8.803  0.1326 -0.1939 -0.8243
 4474TIP3    H237618   5.159   4.311   8.778  0.7809  0.0319 -3.5854
 4475TIP3   OH237619   5.391   6.989   9.427  0.0654 -0.2011 -0.1731
 4475TIP3    H137620   5.455   6.919   9.411  0.7429  0.4624 -0.4054
 4475TIP3    H237621   5.326   6.977   9.358  0.2264 -0.5523 -0.2681
 4476TIP3   OH237622   1.561   5.453   6.858  0.4099 -0.4936  0.2050
 4476TIP3    H137623   1.505   5.390   6.812 -0.0380  0.7201 -0.9802
 4476TIP3    H237624   1.643   5.453   6.808 -0.0520  0.7773 -0.6125
 4477TIP3   OH237625   1.349   2.180   7.644 -0.1338 -0.3898  0.1702
 4477TIP3    H137626   1.396   2.262   7.629 -1.2288  0.8033  2.5775
 4477TIP3    H237627   1.269   2.207   7.691 -0.3840 -2.8446  1.3161
 4478TIP3   OH237628   6.934   4.871   7.057  0.1556 -0.1214  0.4108
 4478TIP3    H137629   6.863   4.896   6.998  1.1404  0.0207 -0.7531
 4478TIP3    H237630   6.902   4.791   7.099  0.4307 -1.7783 -2.2784
 4479TIP3   OH237631   2.867   6.873   6.547  0.7473  0.2514  0.2648
 4479TIP3    H137632   2.937   6.835   6.599 -0.5590  0.0363  1.9366
 4479TIP3    H237633   2.839   6.950   6.597 -1.7354 -0.9519  0.8914
 4480TIP3   OH237634   4.958   7.227   7.026  0.7053 -0.8434  0.2474
 4480TIP3    H137635   4.950   7.133   7.012  0.8024 -0.8026 -0.0942
 4480TIP3    H237636   4.891   7.247   7.092  1.1913 -1.2713  0.8800
 4481TIP3   OH237637   3.002   6.828   9.529  0.3643  0.3321  0.3026
 4481TIP3    H137638   2.945   6.855   9.601 -1.6623  1.1066 -1.4649
 4481TIP3    H237639   3.043   6.747   9.559  0.0666  0.9341  2.5187
 4482TIP3   OH237640   1.557   6.444   8.240 -0.2310  0.3897  0.3613
 4482TIP3    H137641   1.473   6.415   8.275  0.8935  0.1909  3.1775
 4482TIP3    H237642   1.547   6.539   8.230 -0.6676  0.4301  1.1086
 4483TIP3   OH237643   7.308   3.194   7.159  0.1594  0.0810 -0.4007
 4483TIP3    H137644   7.283   3.286   7.160 -1.2833 -0.2737 -0.6594
 4483TIP3    H237645   7.396   3.193   7.120  1.4195  1.5620  2.1962
 4484TIP3   OH237646   1.935   6.237   8.785 -0.3106  0.3923  0.6808
 4484TIP3    H137647   1.875   6.254   8.858 -2.1153  1.8601 -1.0369
 4484TIP3    H237648   2.020   6.265   8.817 -0.7912 -0.2260  2.6569
 4485TIP3   OH237649   6.487   5.654   9.141  0.0424 -0.4170 -0.1673
 4485TIP3    H137650   6.509   5.737   9.182  1.0476  1.0072 -3.2355
 4485TIP3    H237651   6.415   5.619   9.193  0.1597  1.9389  1.7301
 4486TIP3   OH237652   6.099   0.913   7.981 -0.7977 -0.0264  0.4422
 4486TIP3    H137653   6.191   0.928   8.004 -0.7759 -0.3638  0.5742
 4486TIP3    H237654   6.085   0.820   7.998 -0.9370 -0.1646 -0.3850
 4487TIP3   OH237655   1.364   4.291   7.027  0.3202 -0.5449  0.9279
 4487TIP3    H137656   1.382   4.382   7.051 -2.5773  0.8595 -1.5514
 4487TIP3    H237657   1.395   4.283   6.937 -0.2490 -1.7216  0.8124
 4488TIP3   OH237658   2.848   6.288   9.308 -0.4976 -0.1076  0.5560
 4488TIP3    H137659   2.841   6.253   9.219  0.2316 -0.3311  0.5765
 4488TIP3    H237660   2.895   6.220   9.357 -0.1606  0.3635  0.9010
 4489TIP3   OH237661   6.719   3.371   8.199 -0.5276  0.3781 -0.2787
 4489TIP3    H137662   6.679   3.411   8.277 -0.9884 -1.3453  0.4293
 4489TIP3    H237663   6.644   3.347   8.144 -0.3100 -0.1659 -0.3381
 4490TIP3   OH237664   3.481   1.470   8.539 -0.2454  0.3219 -0.2092
 4490TIP3    H137665   3.479   1.473   8.635 -1.1584 -0.1412 -0.2062
 4490TIP3    H237666   3.432   1.548   8.512  0.5152  0.7750 -0.3134
 4491TIP3   OH237667   2.330   0.008   7.868  0.4615  0.5088 -0.5604
 4491TIP3    H137668   2.356  -0.043   7.790  1.0450  0.7389 -0.5208
 4491TIP3    H237669   2.335  -0.055   7.940  2.3412  0.8736 -0.3158
 4492TIP3   OH237670   7.271   4.496   8.867  0.4248 -0.0878  0.3317
 4492TIP3    H137671   7.360   4.471   8.892  0.8553 -0.2229 -1.2223
 4492TIP3    H237672   7.265   4.589   8.888  0.4312 -0.3872  1.7509
 4493TIP3   OH237673   3.454   4.549   7.953  0.3893 -0.6081 -0.1996
 4493TIP3    H137674   3.456   4.615   7.884 -1.2266  0.6578  0.8783
 4493TIP3    H237675   3.542   4.552   7.991  1.0537 -0.7692 -1.6646
 4494TIP3   OH237676   3.916   5.252   8.367  0.2887 -0.1794 -0.2261
 4494TIP3    H137677   3.854   5.323   8.384  1.3895  0.5058  1.1850
 4494TIP3    H237678   3.878   5.176   8.410  0.0464  0.0469 -0.0384
 4495TIP3   OH237679   7.395   3.947   8.585 -0.7307  0.1282 -0.0177
 4495TIP3    H137680   7.393   4.016   8.519 -0.7407  0.9718  0.8455
 4495TIP3    H237681   7.315   3.960   8.637  0.4514  1.0369  1.6872
 4496TIP3   OH237682   2.942   0.844   8.900  0.0771 -0.3713 -0.2603
 4496TIP3    H137683   2.965   0.865   8.809 -0.7352 -1.0155 -0.6231
 4496TIP3    H237684   2.950   0.928   8.946  1.6147 -0.2550 -0.6660
 4497TIP3   OH237685   1.937   6.933   8.758  0.1127  0.3581 -0.4018
 4497TIP3    H137686   1.992   6.899   8.828 -1.5166  0.6549  1.1041
 4497TIP3    H237687   1.909   6.855   8.709 -2.1475 -0.4138  1.9302
 4498TIP3   OH237688   1.015   3.383   7.398 -0.3808  0.1020  0.6772
 4498TIP3    H137689   0.953   3.444   7.440  1.0114  1.3451  1.0206
 4498TIP3    H237690   1.058   3.436   7.331  0.4549 -0.6843  0.5856
 4499TIP3   OH237691   6.012   3.779   8.186 -0.1235  0.0557  0.6392
 4499TIP3    H137692   6.090   3.755   8.137 -0.2198  0.7607  0.1231
 4499TIP3    H237693   5.990   3.701   8.237 -0.1510 -0.7675 -0.5970
 4500TIP3   OH237694   4.933   2.420   8.648 -0.1983  0.5097 -0.9802
 4500TIP3    H137695   4.956   2.375   8.730 -1.6991 -0.3633 -1.0054
 4500TIP3    H237696   4.959   2.358   8.579  1.4192  1.4016 -1.2207
 4501TIP3   OH237697   6.871   4.171   7.971 -0.6312 -0.4690  0.0007
 4501TIP3    H137698   6.922   4.145   8.048  0.1034  0.9754  0.0399
 4501TIP3    H237699   6.896   4.109   7.903 -2.5723 -2.8762  1.3128
 4502TIP3   OH237700   5.822   4.646   9.556 -0.3315  0.3417  0.0584
 4502TIP3    H137701   5.917   4.651   9.571 -0.1489  0.1450 -0.9196
 4502TIP3    H237702   5.804   4.552   9.549 -0.3316  0.4149 -1.2071
 4503TIP3   OH237703   5.129   6.695   7.526 -0.4232  0.0335 -0.4505
 4503TIP3    H137704   5.192   6.678   7.456  2.3531 -0.2077  1.9047
 4503TIP3    H237705   5.107   6.787   7.516  0.1541  0.0821 -1.4668
 4504TIP3   OH237706   3.578   4.974   8.258  0.5605 -0.0224  0.6039
 4504TIP3    H137707   3.510   4.942   8.199  1.0726 -0.2988  0.1568
 4504TIP3    H237708   3.545   4.954   8.346 -0.5444  1.0583  0.4650
 4505TIP3   OH237709   4.744   3.518   9.321 -0.2356  0.4262 -0.2027
 4505TIP3    H137710   4.773   3.608   9.334  2.2834 -0.3814  0.4064
 4505TIP3    H237711   4.711   3.516   9.231 -2.8296  2.4726  0.5913
 4506TIP3   OH237712   2.499   2.325   7.319 -0.2888 -0.2038 -0.0566
 4506TIP3    H137713   2.419   2.281   7.292 -0.2882 -0.0893 -0.2460
 4506TIP3    H237714   2.537   2.359   7.238  0.6518 -1.4128 -0.1510
 4507TIP3   OH237715   3.340   6.484   7.572 -0.0045  0.2399  0.1757
 4507TIP3    H137716   3.400   6.410   7.587 -1.4413 -0.8354  0.8110
 4507TIP3    H237717   3.327   6.486   7.478  0.1051 -0.2761  0.1477
 4508TIP3   OH237718   1.038   5.041   7.778 -0.2924  0.0359  0.3360
 4508TIP3    H137719   0.988   4.959   7.784  0.2516 -0.3072  0.2340
 4508TIP3    H237720   0.997   5.099   7.842 -2.2777  0.5298 -1.2757
 4509TIP3   OH237721   0.573   3.117   7.343 -0.2544 -0.4924 -0.3109
 4509TIP3    H137722   0.660   3.133   7.307 -0.0050  3.0678  1.4210
 4509TIP3    H237723   0.587   3.062   7.419  0.4115 -0.4338 -0.3886
 4510TIP3   OH237724   5.367   6.318   9.362  0.5507 -0.4259 -0.0107
 4510TIP3    H137725   5.397   6.403   9.329  1.2115 -0.3938  0.6372
 4510TIP3    H237726   5.426   6.255   9.322 -0.2666 -0.6423 -0.9025
 4511TIP3   OH237727   2.637   6.660   6.648  0.2127 -0.0202  0.7615
 4511TIP3    H137728   2.557   6.687   6.604  0.9235 -1.1905 -1.3928
 4511TIP3    H237729   2.707   6.707   6.602  1.0144 -1.5503  0.3443
 4512TIP3   OH237730   3.318   3.940   8.036  0.2975 -0.8937 -0.5464
 4512TIP3    H137731   3.312   4.026   8.078  0.1688 -0.7079 -0.9357
 4512TIP3    H237732   3.244   3.891   8.072 -0.2541 -0.4895 -1.1028
 4513TIP3   OH237733   5.182   0.033   9.039 -0.1058 -0.0246  0.1664
 4513TIP3    H137734   5.136   0.061   9.119 -1.7802 -1.7607 -0.1158
 4513TIP3    H237735   5.202  -0.059   9.054 -0.3411 -0.3516 -1.3764
 4514TIP3   OH237736   3.028   1.293   6.891 -0.1263  0.1642 -0.1491
 4514TIP3    H137737   3.116   1.289   6.930 -0.7237  0.5288  1.3107
 4514TIP3    H237738   2.992   1.375   6.922 -1.4917 -0.6112  0.4131
 4515TIP3   OH237739   0.571   4.073   9.113  0.5643  0.1666 -0.3628
 4515TIP3    H137740   0.663   4.055   9.096  0.3821 -0.4903 -0.6898
 4515TIP3    H237741   0.566   4.167   9.125  0.8119  0.6520 -3.3474
 4516TIP3   OH237742   7.185   4.937   8.656  0.2862  0.2351 -1.0286
 4516TIP3    H137743   7.127   4.924   8.581  0.0761  1.5376 -1.1094
 4516TIP3    H237744   7.246   5.005   8.628  1.9369 -1.1617 -0.9768
 4517TIP3   OH237745   2.800   7.677   9.103  0.6833  0.1387  0.0020
 4517TIP3    H137746   2.730   7.742   9.095  1.1586  0.5216 -1.2778
 4517TIP3    H237747   2.826   7.658   9.013  0.1245 -2.3290  0.2863
 4518TIP3   OH237748   4.016   1.865   7.552 -0.3202 -0.4251  0.7669
 4518TIP3    H137749   4.018   1.912   7.469  0.5338  0.0836  1.0673
 4518TIP3    H237750   4.093   1.896   7.599 -0.0492 -1.7071  1.2049
 4519TIP3   OH237751   3.568   2.308   7.992 -0.5366 -0.4668 -0.5190
 4519TIP3    H137752   3.550   2.214   7.996  1.8207 -0.9636 -0.4267
 4519TIP3    H237753   3.556   2.331   7.900 -1.8807 -0.6613 -0.4089
 4520TIP3   OH237754   1.220   1.625   9.676 -0.2989  0.3623  0.3431
 4520TIP3    H137755   1.137   1.672   9.678 -0.2080  0.5316  0.1316
 4520TIP3    H237756   1.287   1.693   9.666 -0.3242  0.0577 -2.7229
 4521TIP3   OH237757   6.030   5.900   7.803  0.2191  0.1770 -0.1963
 4521TIP3    H137758   5.939   5.929   7.798  0.7724  1.8088 -2.3050
 4521TIP3    H237759   6.037   5.829   7.740  0.1581 -0.8166  0.8834
 4522TIP3   OH237760   2.103   3.130   7.993 -0.1543  0.5325 -0.0819
 4522TIP3    H137761   2.099   3.035   7.977 -2.2626  0.3284  1.2541
 4522TIP3    H237762   2.195   3.146   8.015  0.0158 -1.4449  0.8888
 4523TIP3   OH237763   1.738   5.233   7.402 -0.3523  0.1765 -0.1136
 4523TIP3    H137764   1.704   5.243   7.313  0.4230  1.7160 -0.2661
 4523TIP3    H237765   1.833   5.239   7.393 -0.2883  0.9587  0.8701
 4524TIP3   OH237766   4.745   5.235   7.278  0.4217 -0.3034 -0.0350
 4524TIP3    H137767   4.736   5.286   7.197  2.0384  0.5410  0.2744
 4524TIP3    H237768   4.807   5.165   7.256  0.5424 -0.3204  0.3525
 4525TIP3   OH237769   2.057   7.643   7.477 -0.4340  0.3396 -0.5246
 4525TIP3    H137770   2.020   7.555   7.469 -0.0113  0.1162 -0.0859
 4525TIP3    H237771   2.113   7.638   7.554 -0.6616  1.0879 -0.3079
 4526TIP3   OH237772   6.260   3.516   7.794  0.1851  0.6355 -0.7445
 4526TIP3    H137773   6.176   3.489   7.757 -0.4550  0.7215  0.5463
 4526TIP3    H237774   6.256   3.612   7.794  0.0979  0.6340 -0.2990
 4527TIP3   OH237775   6.124   3.269   6.963  0.5076  0.1112  0.6557
 4527TIP3    H137776   6.067   3.260   7.039  1.2573 -0.4660  1.1567
 4527TIP3    H237777   6.161   3.182   6.949 -0.6898 -0.1661 -1.2393
 4528TIP3   OH237778   0.590   0.813   7.694 -0.3003 -0.1136 -0.4664
 4528TIP3    H137779   0.599   0.792   7.787 -0.0393 -1.3017 -0.7508
 4528TIP3    H237780   0.670   0.861   7.672 -0.0010 -0.5188 -0.2622
 4529TIP3   OH237781   4.990   0.512   7.316 -0.2957 -0.0255 -0.4879
 4529TIP3    H137782   5.009   0.598   7.353  0.8048 -0.2397 -0.5223
 4529TIP3    H237783   5.052   0.502   7.244  0.8426 -1.5758  0.6410
 4530TIP3   OH237784   3.600   2.288   9.742  0.1213  0.3113 -0.3378
 4530TIP3    H137785   3.549   2.368   9.760 -0.6773 -0.2805  0.1011
 4530TIP3    H237786   3.687   2.320   9.719 -0.2830  1.3288 -0.5256
 4531TIP3   OH237787   4.241   5.723   7.112  0.4054 -0.0358  0.1075
 4531TIP3    H137788   4.192   5.694   7.189  0.6136 -0.1888  0.1808
 4531TIP3    H237789   4.210   5.666   7.041  0.2360  0.0857  0.0823
 4532TIP3   OH237790   1.841   0.946   8.283  0.1290  0.4689  0.3254
 4532TIP3    H137791   1.753   0.950   8.246  0.6580  0.3672 -0.9691
 4532TIP3    H237792   1.884   1.025   8.253  0.5871  0.3759  0.7135
 4533TIP3   OH237793   2.965   5.458   7.375  0.5842 -0.6125  0.0368
 4533TIP3    H137794   3.004   5.516   7.309 -0.5535 -0.1751 -0.2842
 4533TIP3    H237795   2.908   5.515   7.426  0.6633 -1.1570  0.7437
 4534TIP3   OH237796   2.661   4.639   7.682 -0.2234 -0.0957  0.4391
 4534TIP3    H137797   2.639   4.547   7.670  0.8044 -0.2140 -0.7171
 4534TIP3    H237798   2.753   4.645   7.658 -0.2143  1.2022  0.7179
 4535TIP3   OH237799   4.969   0.762   7.424  0.0426 -0.4794  0.1345
 4535TIP3    H137800   4.948   0.845   7.382  3.4698  0.7355  0.4900
 4535TIP3    H237801   4.935   0.770   7.513 -1.6086 -0.4458 -0.4645
 4536TIP3   OH237802   6.673   6.996   8.515  0.4144  0.2303  0.6390
 4536TIP3    H137803   6.746   6.982   8.454 -0.2526  0.9082 -0.3346
 4536TIP3    H237804   6.715   7.028   8.595  1.2027  0.4849  0.1366
 4537TIP3   OH237805   3.211   7.467   8.100  0.1133 -0.4010 -0.5692
 4537TIP3    H137806   3.231   7.465   8.007  0.0285  0.0596 -0.6019
 4537TIP3    H237807   3.126   7.512   8.106  0.3160 -0.0513 -0.2426
 4538TIP3   OH237808   4.544   1.143   7.264  0.0515  0.1232  0.3160
 4538TIP3    H137809   4.542   1.224   7.213 -0.4485  0.5965  1.0688
 4538TIP3    H237810   4.495   1.080   7.210  0.2614  0.3711 -0.1747
 4539TIP3   OH237811   1.601   2.301   8.804  0.1979 -0.1319 -0.0927
 4539TIP3    H137812   1.602   2.397   8.800 -1.6386 -0.1196 -1.5877
 4539TIP3    H237813   1.645   2.274   8.723 -0.9511 -0.5001 -0.6103
 4540TIP3   OH237814   7.283   5.214   9.464  0.4302 -0.8375 -0.5661
 4540TIP3    H137815   7.236   5.223   9.547  0.6295 -1.2811 -0.4037
 4540TIP3    H237816   7.303   5.305   9.439  1.9743 -0.7459  0.8117
 4541TIP3   OH237817   7.073   4.976   7.890  0.2223 -0.2849 -0.2414
 4541TIP3    H137818   7.072   4.880   7.884  3.8877 -0.4841  0.4732
 4541TIP3    H237819   7.112   4.995   7.975 -0.1178  1.8865 -0.5038
 4542TIP3   OH237820   2.534   7.544   9.091 -0.2212  1.3669  0.2889
 4542TIP3    H137821   2.532   7.551   8.996  2.7285 -1.5772 -0.1704
 4542TIP3    H237822   2.623   7.571   9.115 -0.0513 -0.3723  1.8424
 4543TIP3   OH237823   4.538   1.415   8.944 -0.2760 -0.0976 -0.0837
 4543TIP3    H137824   4.518   1.343   8.884 -2.1029  0.4735 -0.2310
 4543TIP3    H237825   4.458   1.428   8.994  0.6787  0.5408  1.3467
 4544TIP3   OH237826   4.540   2.202   7.725  0.1846 -0.6456 -0.7141
 4544TIP3    H137827   4.459   2.253   7.718  0.1829 -0.6143 -0.4761
 4544TIP3    H237828   4.512   2.111   7.721 -0.0758 -0.6875  1.3652
 4545TIP3   OH237829   1.605   6.733   9.114 -0.8090 -0.1486 -0.6451
 4545TIP3    H137830   1.677   6.789   9.086  0.0447 -0.1083  1.4727
 4545TIP3    H237831   1.575   6.770   9.197 -3.1926 -0.2805 -1.3580
 4546TIP3   OH237832   1.593   3.127   6.703 -0.2790 -0.5230 -0.3679
 4546TIP3    H137833   1.679   3.098   6.671  0.3921  0.1837  0.7046
 4546TIP3    H237834   1.612   3.166   6.789 -1.6912 -0.4188 -0.0809
 4547TIP3   OH237835   0.578   0.550   7.125  0.2389  0.6478 -0.0945
 4547TIP3    H137836   0.637   0.485   7.163 -1.5646 -0.4995  0.9012
 4547TIP3    H237837   0.526   0.581   7.199 -0.4296  1.5868 -0.9346
 4548TIP3   OH237838   1.568   6.976   8.566 -0.4317 -0.4451 -0.3436
 4548TIP3    H137839   1.474   6.987   8.557 -0.2600  0.0013 -1.7554
 4548TIP3    H237840   1.580   6.946   8.656 -1.8332  0.3836  0.1468
 4549TIP3   OH237841   5.880   6.639   7.376  0.5372  0.1761  0.0121
 4549TIP3    H137842   5.786   6.649   7.363  0.5799 -0.2151 -0.6562
 4549TIP3    H237843   5.912   6.728   7.390  0.2538  0.4739 -1.1021
 4550TIP3   OH237844   3.020   3.204   8.502  0.4155 -0.0490 -0.1289
 4550TIP3    H137845   2.979   3.161   8.427  1.5984  0.9373 -1.3879
 4550TIP3    H237846   3.010   3.297   8.485  0.3163  0.1987  1.1821
 4551TIP3   OH237847   1.140   7.584   7.360 -0.3067  0.0361 -0.2759
 4551TIP3    H137848   1.176   7.630   7.284 -0.2522 -1.1064 -0.9567
 4551TIP3    H237849   1.048   7.570   7.338 -0.1823 -0.7053 -0.3260
 4552TIP3   OH237850   0.654   0.765   9.230  0.1755 -0.0515  0.1481
 4552TIP3    H137851   0.633   0.698   9.295 -1.3365  0.6802  0.4605
 4552TIP3    H237852   0.749   0.760   9.220  0.3863 -0.4966  2.0556
 4553TIP3   OH237853   1.225   1.043   8.101 -0.5761 -0.2503 -0.0277
 4553TIP3    H137854   1.269   1.089   8.030 -1.9057 -0.2802 -0.9051
 4553TIP3    H237855   1.268   1.075   8.181 -0.4919  1.4242 -0.7042
 4554TIP3   OH237856   4.187   6.244   7.683  0.4372  0.2224  0.2808
 4554TIP3    H137857   4.209   6.252   7.776  1.2067 -0.1844  0.1420
 4554TIP3    H237858   4.257   6.191   7.646  0.3875  0.7577 -0.6261
 4555TIP3   OH237859   1.422   7.020   7.362 -0.5371  0.7857  0.1221
 4555TIP3    H137860   1.360   7.020   7.289 -1.8129  0.8032  1.1631
 4555TIP3    H237861   1.429   7.112   7.389 -0.7249  0.6847  0.5352
 4556TIP3   OH237862   3.203   4.874   8.701 -0.0348 -0.4207 -0.1439
 4556TIP3    H137863   3.200   4.904   8.610 -1.3584 -1.4839 -0.4707
 4556TIP3    H237864   3.149   4.795   8.703  1.3823 -1.4255  1.2083
 4557TIP3   OH237865   5.159   2.829   9.298  0.2874  0.1713  0.0632
 4557TIP3    H137866   5.088   2.765   9.300  1.2185 -0.9492 -1.1281
 4557TIP3    H237867   5.127   2.899   9.242 -0.0656 -0.1077 -0.0868
 4558TIP3   OH237868   7.332   4.169   7.259 -0.4220  0.3385 -0.3436
 4558TIP3    H137869   7.388   4.145   7.186  0.0605  1.0027 -0.1992
 4558TIP3    H237870   7.308   4.086   7.299 -0.3432 -0.0049 -0.9938
 4559TIP3   OH237871   3.249   1.095   8.090 -0.7546 -0.0569 -0.1480
 4559TIP3    H137872   3.184   1.113   8.157 -1.2930 -0.4974 -0.5421
 4559TIP3    H237873   3.328   1.073   8.139 -0.2839  2.4481  0.3570
 4560TIP3   OH237874   4.751   2.520   8.489 -0.1747  0.3952 -0.5844
 4560TIP3    H137875   4.804   2.492   8.563  1.2114  0.2627 -1.5808
 4560TIP3    H237876   4.791   2.477   8.413 -0.2007  2.1867 -1.6817
 4561TIP3   OH237877   0.769   6.070   7.250 -0.2386 -0.4339 -0.2495
 4561TIP3    H137878   0.768   6.086   7.155 -0.0753 -1.5301 -0.4450
 4561TIP3    H237879   0.827   5.995   7.261  2.8502  1.9384  1.1098
 4562TIP3   OH237880   0.909   2.569   9.424 -0.8407 -0.3951  0.1712
 4562TIP3    H137881   0.925   2.527   9.508 -1.9749 -2.3870 -0.5590
 4562TIP3    H237882   0.819   2.599   9.428 -0.2056  1.6308  0.4855
 4563TIP3   OH237883   2.279   0.311   7.826 -0.8630  0.0726 -0.3419
 4563TIP3    H137884   2.374   0.313   7.816 -0.8077  1.1226  0.3100
 4563TIP3    H237885   2.262   0.227   7.869 -0.0306  0.6604  1.2415
 4564TIP3   OH237886   4.407   2.227   9.153  0.1431  0.0615 -0.6638
 4564TIP3    H137887   4.359   2.144   9.156 -0.7644  0.6010  0.1862
 4564TIP3    H237888   4.456   2.222   9.071 -0.2639 -1.1130 -0.8660
 4565TIP3   OH237889   0.909   4.786   7.812 -0.0804  0.8019  0.1005
 4565TIP3    H137890   0.966   4.744   7.877 -2.1675  0.7792  2.0573
 4565TIP3    H237891   0.864   4.714   7.769 -0.3103  0.8771  0.2119
 4566TIP3   OH237892   4.773   2.441   7.660  0.0862 -0.2682 -0.3464
 4566TIP3    H137893   4.699   2.391   7.625 -0.8299 -0.0734  1.2362
 4566TIP3    H237894   4.733   2.507   7.716  1.4841 -0.2550  0.6747
 4567TIP3   OH237895   5.285   0.369   6.881  0.0371 -0.4883  0.3667
 4567TIP3    H137896   5.309   0.288   6.837  1.6143 -0.1137  0.4718
 4567TIP3    H237897   5.337   0.368   6.962 -2.0254 -0.6805  1.7752
 4568TIP3   OH237898   1.998   1.110   7.307 -0.4884  0.0888 -0.6880
 4568TIP3    H137899   1.925   1.144   7.255 -1.0665 -0.7865 -0.4969
 4568TIP3    H237900   2.068   1.173   7.296 -1.3214  1.0194 -0.7899
 4569TIP3   OH237901   0.504   0.647   7.922 -0.3057  0.8438 -0.0802
 4569TIP3    H137902   0.411   0.628   7.917 -0.0598 -1.8010  2.8152
 4569TIP3    H237903   0.522   0.663   8.014  2.1923  0.7833 -0.4628
 4570TIP3   OH237904   1.414   6.650   9.374 -0.4308  0.4397 -0.0679
 4570TIP3    H137905   1.324   6.680   9.387 -1.3058 -2.6051  2.1677
 4570TIP3    H237906   1.404   6.562   9.337  1.7210  0.4536 -0.8384
 4571TIP3   OH237907   4.209   0.817   7.508  0.1183 -0.1789  0.3696
 4571TIP3    H137908   4.115   0.801   7.522  0.0031  0.2074  0.0525
 4571TIP3    H237909   4.252   0.741   7.547 -0.2635  0.1538  1.4754
 4572TIP3   OH237910   3.494   6.526   8.939 -0.0984  0.3822 -0.3009
 4572TIP3    H137911   3.413   6.573   8.962 -0.3080 -0.3610  0.5658
 4572TIP3    H237912   3.551   6.541   9.014 -0.5284 -1.5265  0.4695
 4573TIP3   OH237913   1.057   5.282   9.314  0.0457 -0.3317 -0.0878
 4573TIP3    H137914   1.015   5.297   9.229 -1.8032 -1.8717  0.4868
 4573TIP3    H237915   0.985   5.278   9.377  1.3437  0.3858  1.5329
 4574TIP3   OH237916   0.673   1.212   8.956 -0.3429  0.2439  0.2226
 4574TIP3    H137917   0.691   1.265   8.878  1.8232  2.3010  1.9461
 4574TIP3    H237918   0.676   1.275   9.028  0.5455 -1.9752  2.2538
 4575TIP3   OH237919   2.625   7.495   8.406 -0.1833 -0.1012 -0.0079
 4575TIP3    H137920   2.645   7.580   8.445 -1.5531  1.2223 -1.9882
 4575TIP3    H237921   2.658   7.501   8.316  0.6896 -2.1141  0.1280
 4576TIP3   OH237922   1.815   6.390   7.959  0.7014  0.5328  0.0328
 4576TIP3    H137923   1.840   6.453   8.025 -0.2194  0.6782  0.2614
 4576TIP3    H237924   1.737   6.427   7.918 -1.1279 -1.3379  1.5633
 4577TIP3   OH237925   2.265   0.757   8.031 -0.2302 -0.2390 -0.0968
 4577TIP3    H137926   2.230   0.759   8.120  0.8163  0.7618  0.3247
 4577TIP3    H237927   2.254   0.667   8.003  3.6348 -1.9268  2.8470
 4578TIP3   OH237928   4.243   2.648   8.829 -0.2357  0.4203 -0.0578
 4578TIP3    H137929   4.330   2.673   8.799 -0.6889  0.3232 -1.5563
 4578TIP3    H237930   4.247   2.656   8.924  2.4356 -2.7849  0.2712
 4579TIP3   OH237931   3.180   1.956   7.865  0.2207  0.3743 -0.2950
 4579TIP3    H137932   3.180   1.969   7.960 -0.8829 -0.6248 -0.1320
 4579TIP3    H237933   3.273   1.946   7.842  0.4281 -0.7741  0.8989
 4580TIP3   OH237934   5.859   4.359   9.512  0.4245 -0.1556  0.5441
 4580TIP3    H137935   5.850   4.331   9.421  0.2424  0.1441  0.4645
 4580TIP3    H237936   5.773   4.342   9.551  0.3074  0.2886  0.4912
 4581TIP3   OH237937   2.335   3.456   8.888 -0.0755  0.3592 -0.6635
 4581TIP3    H137938   2.386   3.492   8.815 -0.4514 -1.8458 -2.1094
 4581TIP3    H237939   2.251   3.500   8.883  0.4907  1.5056 -0.4218
 4582TIP3   OH237940   7.644   5.356   8.273 -0.3458 -0.1893 -0.8582
 4582TIP3    H137941   7.566   5.354   8.217  0.0774 -0.6439 -1.4502
 4582TIP3    H237942   7.643   5.271   8.317  0.0482 -0.3807 -1.2099
 4583TIP3   OH237943   0.177   0.130   7.498 -0.2130  0.2593 -0.5437
 4583TIP3    H137944   0.133   0.211   7.475  0.4502  1.1767  1.2008
 4583TIP3    H237945   0.106   0.065   7.505 -0.8751  0.9243 -0.9765
 4584TIP3   OH237946   2.570   6.294   7.944  0.2393  0.4010  0.4678
 4584TIP3    H137947   2.538   6.204   7.944  0.5650  0.2842 -0.1327
 4584TIP3    H237948   2.511   6.340   8.004  1.7491 -0.7872  3.0323
 4585TIP3   OH237949   1.866   4.443   8.596 -0.0721 -0.6072  0.0659
 4585TIP3    H137950   1.819   4.520   8.566  1.4244  0.5687  0.6246
 4585TIP3    H237951   1.928   4.423   8.526  0.9590 -0.0200  0.7799
 4586TIP3   OH237952   6.083   1.773   8.348  0.3197  0.0758  0.2821
 4586TIP3    H137953   6.178   1.768   8.362  0.7057  0.6762 -1.6936
 4586TIP3    H237954   6.055   1.682   8.343  0.7358 -0.1099  1.2120
 4587TIP3   OH237955   7.144   7.047   7.110  0.3372 -0.5623 -0.0447
 4587TIP3    H137956   7.184   7.134   7.098  0.9529 -1.1325 -3.0612
 4587TIP3    H237957   7.056   7.056   7.071  0.4274 -1.2792 -0.4301
 4588TIP3   OH237958   0.063   0.826   9.637  0.3441 -0.1793 -0.2436
 4588TIP3    H137959   0.005   0.902   9.638  0.4469 -0.0038 -2.3210
 4588TIP3    H237960   0.144   0.857   9.678  0.2691  0.7509 -0.7575
 4589TIP3   OH237961   2.516   3.819   8.521 -0.5554 -0.0370 -0.2863
 4589TIP3    H137962   2.523   3.840   8.614 -3.1847  1.3207 -0.3202
 4589TIP3    H237963   2.575   3.881   8.478  0.6301 -0.6332  0.4213
 4590TIP3   OH237964   6.661   1.607   8.385 -0.2246  0.2176 -0.4696
 4590TIP3    H137965   6.646   1.543   8.315 -1.7215 -0.2896  0.2784
 4590TIP3    H237966   6.575   1.646   8.401  0.1008  0.3858  1.0275
 4591TIP3   OH237967   1.636   6.344   9.305 -0.0826 -0.0375  0.1217
 4591TIP3    H137968   1.677   6.429   9.289  0.0471 -0.1455 -0.1328
 4591TIP3    H237969   1.699   6.297   9.360  1.5386 -1.2675 -2.5358
 4592TIP3   OH237970   2.088   4.089   9.637 -0.1954  0.2521 -0.6241
 4592TIP3    H137971   2.115   4.025   9.571 -0.2785  0.2166 -0.6247
 4592TIP3    H237972   1.994   4.075   9.646  0.0760 -0.8812  0.7070
 4593TIP3   OH237973   4.093   0.124   6.694 -0.4855  0.6059 -0.6879
 4593TIP3    H137974   4.096   0.160   6.783 -2.2587  1.3327 -0.8771
 4593TIP3    H237975   4.009   0.154   6.659 -0.4631 -0.8532 -2.1152
 4594TIP3   OH237976   2.505   1.687   9.199 -0.0195  0.0802 -0.0165
 4594TIP3    H137977   2.507   1.778   9.228  1.0338  1.0043 -2.6051
 4594TIP3    H237978   2.578   1.646   9.245  0.9140  1.1778 -0.4570
 4595TIP3   OH237979   5.736   7.025   8.815 -0.0966 -0.6278  0.4401
 4595TIP3    H137980   5.740   7.074   8.897  0.0497  0.8317 -0.4129
 4595TIP3    H237981   5.827   7.016   8.788 -0.1572 -0.9461  0.3389
 4596TIP3   OH237982   7.305   5.463   8.893 -0.0581  0.4343 -0.1139
 4596TIP3    H137983   7.326   5.373   8.870  1.5419  1.0001 -1.0951
 4596TIP3    H237984   7.325   5.513   8.813 -1.8192  1.5516  0.0929
 4597TIP3   OH237985   3.427   5.985   7.710 -0.1206  0.2910  0.4756
 4597TIP3    H137986   3.392   6.040   7.779 -0.1314  0.0450  0.6676
 4597TIP3    H237987   3.381   5.901   7.720  1.2014 -0.3710  1.3578
 4598TIP3   OH237988   3.427   0.893   7.753  0.2721  0.2582  0.3716
 4598TIP3    H137989   3.509   0.846   7.769  0.3186 -0.0231 -0.6483
 4598TIP3    H237990   3.452   0.985   7.756  0.2681  0.2472  1.8941
 4599TIP3   OH237991   2.078   3.357   8.306  0.4722  0.1581 -0.0133
 4599TIP3    H137992   2.145   3.291   8.323  1.8774  1.1361 -1.5017
 4599TIP3    H237993   1.999   3.306   8.287  0.6206 -1.0055  2.1086
 4600TIP3   OH237994   7.088   2.797   9.318 -0.5089 -0.5662 -0.2983
 4600TIP3    H137995   7.076   2.704   9.335  0.5874 -0.5347  0.7968
 4600TIP3    H237996   7.053   2.810   9.230 -0.2713 -2.0868 -0.6482
 4601TIP3   OH237997   7.358   7.403   8.839  0.3968 -0.3876 -0.0705
 4601TIP3    H137998   7.438   7.360   8.870  0.6688  0.6447  0.7425
 4601TIP3    H237999   7.305   7.414   8.918 -0.1619 -0.2736 -0.4573
 4602TIP3   OH238000   1.730   4.070   9.325 -0.1139  0.3563  0.0900
 4602TIP3    H138001   1.749   4.161   9.349  2.8665  0.5515 -2.4754
 4602TIP3    H238002   1.756   4.063   9.234 -0.2282 -3.1228  0.1961
 4603TIP3   OH238003   4.928   1.741   8.059  0.0535  0.2927 -0.5741
 4603TIP3    H138004   4.870   1.669   8.035 -0.0930  0.0435  0.4546
 4603TIP3    H238005   4.961   1.717   8.146 -0.3596  1.6830 -0.0104
 4604TIP3   OH238006   7.628   7.129   8.561 -0.0678  0.3415 -0.0297
 4604TIP3    H138007   7.611   7.223   8.560 -0.2314  0.3093 -0.2048
 4604TIP3    H238008   7.559   7.091   8.506 -0.5658  0.0307  0.7893
 4605TIP3   OH238009   6.921   7.629   6.856 -0.3393 -0.0174 -0.5198
 4605TIP3    H138010   6.839   7.591   6.824 -1.0861 -0.7777  2.0536
 4605TIP3    H238011   6.983   7.556   6.855 -0.5086 -0.1745  0.2111
 4606TIP3   OH238012   2.576   2.047   7.760 -0.1599 -0.1613 -0.2843
 4606TIP3    H138013   2.495   1.995   7.760 -0.9105  0.9782  0.1596
 4606TIP3    H238014   2.583   2.080   7.670  1.3631 -2.5332 -1.1378
 4607TIP3   OH238015   7.450   7.393   8.140  0.0120  0.4240 -0.1319
 4607TIP3    H138016   7.510   7.460   8.175 -1.9521  1.5143  1.3223
 4607TIP3    H238017   7.383   7.384   8.207 -0.9383 -1.5064 -1.2667
 4608TIP3   OH238018   1.283   0.736   9.114  0.1498  0.1328 -0.6216
 4608TIP3    H138019   1.257   0.802   9.050  0.3489  0.4028 -0.4250
 4608TIP3    H238020   1.267   0.777   9.199 -1.1047 -0.6089 -0.4825
 4609TIP3   OH238021   0.268   5.617   8.183  0.1186 -0.4014  0.4412
 4609TIP3    H138022   0.246   5.677   8.111 -0.5949 -0.1222  0.8849
 4609TIP3    H238023   0.361   5.634   8.200 -0.2783  1.3058  1.2025
 4610TIP3   OH238024   3.370   4.711   8.282 -0.0162  0.0036  0.7249
 4610TIP3    H138025   3.436   4.643   8.295 -2.4485 -2.9645 -1.0933
 4610TIP3    H238026   3.365   4.722   8.187 -0.9206  1.4830  0.9120
 4611TIP3   OH238027   2.756   6.352   8.192 -0.0090  0.4658  0.2564
 4611TIP3    H138028   2.677   6.379   8.147  0.0303 -1.7656 -1.3567
 4611TIP3    H238029   2.828   6.388   8.139  0.0243  0.1518  0.0792
 4612TIP3   OH238030   3.566   1.938   7.030 -0.1682  0.3895  0.3401
 4612TIP3    H138031   3.570   2.030   7.057 -1.2302  0.8811 -1.0627
 4612TIP3    H238032   3.483   1.906   7.065  1.0457 -0.6614  2.4940
 4613TIP3   OH238033   1.511   2.014   8.242 -0.1722 -0.3211  0.2238
 4613TIP3    H138034   1.580   2.068   8.280 -0.2590 -0.1752  0.1739
 4613TIP3    H238035   1.434   2.032   8.295  0.0244 -1.1065  0.8007
 4614TIP3   OH238036   1.060   6.418   8.951 -0.3865  0.6262 -0.0409
 4614TIP3    H138037   1.039   6.329   8.924 -1.5320  1.2528 -1.3609
 4614TIP3    H238038   0.994   6.472   8.908  0.8717  2.2137 -0.0849
 4615TIP3   OH238039   6.174   2.072   8.557  0.0541 -0.0095  0.1372
 4615TIP3    H138040   6.185   2.033   8.644  1.1267  0.3645  0.1888
 4615TIP3    H238041   6.111   2.016   8.513 -1.2236  0.3103  1.4624
 4616TIP3   OH238042   1.600   6.563   7.859  0.1758 -0.2241 -0.0443
 4616TIP3    H138043   1.563   6.588   7.775  0.0617  1.9374  0.5976
 4616TIP3    H238044   1.673   6.623   7.872 -0.1923 -0.0913  1.6622
 4617TIP3   OH238045   1.988   6.572   8.050 -0.4267 -0.2017  0.5642
 4617TIP3    H138046   2.023   6.540   8.133 -2.0210  1.7257  2.0910
 4617TIP3    H238047   2.055   6.631   8.016 -0.1538 -0.2853  0.9573
 4618TIP3   OH238048   6.220   5.471   9.067 -0.2592 -0.0017  0.2769
 4618TIP3    H138049   6.151   5.471   9.133 -0.7842 -0.3386 -0.2697
 4618TIP3    H238050   6.300   5.456   9.117 -0.7684 -1.3661  0.7179
 4619TIP3   OH238051   2.207   5.461   7.176  0.2825  0.3681 -0.4008
 4619TIP3    H138052   2.160   5.521   7.233  0.2206  0.4099 -0.4944
 4619TIP3    H238053   2.300   5.479   7.193  0.2974  1.6942 -1.6395
 4620TIP3   OH238054   3.005   5.691   7.225  0.3158  0.4965  0.8580
 4620TIP3    H138055   2.920   5.720   7.192 -0.2305 -1.8589 -0.0392
 4620TIP3    H238056   3.020   5.744   7.303 -2.6827  0.0190  1.8960
 4621TIP3   OH238057   1.016   3.909   7.059  0.2589 -0.2977  0.6051
 4621TIP3    H138058   1.063   3.943   7.135  0.5330  1.4733 -0.2808
 4621TIP3    H238059   0.923   3.923   7.080  0.3284  0.0804  0.6659
 4622TIP3   OH238060   4.044   0.905   7.771  0.2923  0.4869 -0.1977
 4622TIP3    H138061   3.980   0.903   7.842 -0.6657  0.9748 -1.0148
 4622TIP3    H238062   4.001   0.860   7.698  2.8831 -4.1494  0.7104
 4623TIP3   OH238063   4.308   1.781   9.336 -0.6463 -0.1601  0.1229
 4623TIP3    H138064   4.297   1.846   9.267  0.9868  0.2410  0.2101
 4623TIP3    H238065   4.232   1.724   9.327 -0.1006 -0.5968 -2.5069
 4624TIP3   OH238066   0.222   3.632   7.520  0.0438 -0.2930  0.2060
 4624TIP3    H138067   0.182   3.560   7.568 -0.3645 -0.3618 -0.2306
 4624TIP3    H238068   0.153   3.664   7.462  1.0544 -1.5108 -1.7954
 4625TIP3   OH238069   3.739   5.504   9.555  0.1958 -0.0394 -0.4826
 4625TIP3    H138070   3.757   5.529   9.465 -0.6196  0.5591 -0.4927
 4625TIP3    H238071   3.799   5.556   9.608 -0.4043  0.7766 -0.5953
 4626TIP3   OH238072   7.477   1.915   9.108 -0.4876  0.1476 -0.1490
 4626TIP3    H138073   7.469   1.834   9.058 -1.2310 -0.3285  0.7155
 4626TIP3    H238074   7.527   1.890   9.186 -1.9836  0.1622  0.8473
 4627TIP3   OH238075   3.775   3.378   8.051  0.0295  0.2687  0.0123
 4627TIP3    H138076   3.749   3.286   8.062  1.1641  0.1745  2.7896
 4627TIP3    H238077   3.858   3.385   8.099 -0.9780  3.1280  1.5671
 4628TIP3   OH238078   4.376   5.455   7.969  0.3816 -0.3795  0.5692
 4628TIP3    H138079   4.413   5.527   8.020  1.3889 -0.4671 -0.0277
 4628TIP3    H238080   4.428   5.452   7.889 -0.5758 -0.8565 -0.0551
 4629TIP3   OH238081   5.142   4.435   7.102 -0.5881  0.3671 -0.5160
 4629TIP3    H138082   5.144   4.509   7.040  1.5082 -0.0219 -0.9707
 4629TIP3    H238083   5.175   4.361   7.052 -0.6838 -0.4084  0.5476
 4630TIP3   OH238084   3.290   0.319   8.401  0.3383 -0.3397 -0.1289
 4630TIP3    H138085   3.350   0.378   8.356  0.1964 -0.9172 -1.0928
 4630TIP3    H238086   3.203   0.344   8.369  0.3192 -1.4016 -0.9557
 4631TIP3   OH238087   1.661   6.168   8.697  0.8723 -0.0301 -0.0403
 4631TIP3    H138088   1.603   6.222   8.751  1.4358 -0.4653  1.0296
 4631TIP3    H238089   1.746   6.213   8.701  0.6901  0.4636 -1.3816
 4632TIP3   OH238090   4.811   1.623   8.429  0.0920 -0.3263 -0.1064
 4632TIP3    H138091   4.831   1.620   8.522 -0.3072 -0.8572 -0.0336
 4632TIP3    H238092   4.733   1.569   8.419  0.8297 -1.2852 -0.9263
 4633TIP3   OH238093   3.873   7.449   8.462 -0.1041  0.4738 -0.3247
 4633TIP3    H138094   3.781   7.441   8.436 -0.1869  1.0660 -0.2229
 4633TIP3    H238095   3.871   7.450   8.558 -0.0413  1.0086 -0.3262
 4634TIP3   OH238096   5.253   3.489   7.769  0.0804  0.2635 -0.7672
 4634TIP3    H138097   5.216   3.552   7.831 -1.6451  0.1460 -1.6376
 4634TIP3    H238098   5.348   3.499   7.779 -0.1543  2.0483  0.0747
 4635TIP3   OH238099   2.589   7.302   7.315 -0.3451 -0.1597  0.0499
 4635TIP3    H138100   2.684   7.304   7.307 -0.4090 -0.4012 -0.9378
 4635TIP3    H238101   2.573   7.266   7.402  0.4671 -0.2739  0.1618
 4636TIP3   OH238102   3.800   6.415   6.624  0.0841 -0.4407 -0.1005
 4636TIP3    H138103   3.854   6.447   6.696  0.4792 -2.0767  0.3770
 4636TIP3    H238104   3.710   6.432   6.651  0.2774  0.9276 -0.2280
 4637TIP3   OH238105   0.949   4.489   9.079  0.0503 -0.1337 -0.1775
 4637TIP3    H138106   0.965   4.424   9.010  1.7521  1.9214 -1.8752
 4637TIP3    H238107   1.036   4.518   9.105 -0.6371  0.9336  1.0654
 4638TIP3   OH238108   3.197   4.025   9.329  0.1473  0.2713 -0.1552
 4638TIP3    H138109   3.166   3.954   9.385  0.0270 -0.1605 -0.7654
 4638TIP3    H238110   3.285   3.999   9.303 -0.3219 -0.2214 -1.3134
 4639TIP3   OH238111   1.366   1.397   9.715 -0.0150  0.1972 -0.3372
 4639TIP3    H138112   1.319   1.480   9.703  0.7668  0.4495 -1.7997
 4639TIP3    H238113   1.311   1.333   9.671  0.8882  0.4698 -1.9263
 4640TIP3   OH238114   3.992   1.962   7.298 -0.3216 -0.1636  0.7977
 4640TIP3    H138115   4.038   2.036   7.258 -0.6839 -0.5949 -0.4702
 4640TIP3    H238116   3.951   1.917   7.224 -2.9343  0.2701  1.8763
 4641TIP3   OH238117   6.760   4.434   8.013 -0.4112  0.1199  0.3509
 4641TIP3    H138118   6.680   4.444   7.962  0.1465  0.0726 -0.5758
 4641TIP3    H238119   6.807   4.363   7.968  1.1238  1.5713 -0.4455
 4642TIP3   OH238120   5.237   5.284   8.724  0.3700 -0.4234 -0.0946
 4642TIP3    H138121   5.239   5.214   8.790 -0.2005 -0.2384  0.1259
 4642TIP3    H238122   5.201   5.242   8.646  1.1600 -0.6737 -0.3328
 4643TIP3   OH238123   2.619   2.059   8.856 -0.5172  0.5930  0.1811
 4643TIP3    H138124   2.664   2.071   8.940 -0.7045 -1.4993  0.6461
 4643TIP3    H238125   2.681   2.091   8.791  1.5092 -1.6558  0.8474
 4644TIP3   OH238126   3.136   3.780   9.500 -0.4365 -0.7382 -0.0718
 4644TIP3    H138127   3.082   3.751   9.573  0.8258 -2.9840  0.0803
 4644TIP3    H238128   3.076   3.784   9.425 -1.1504 -1.3997  0.4566
 4645TIP3   OH238129   4.813   4.572   7.506 -0.0865 -0.6209  0.3479
 4645TIP3    H138130   4.763   4.550   7.428 -1.0562 -1.1498  1.0916
 4645TIP3    H238131   4.754   4.626   7.558  1.2745  1.5011 -0.1806
 4646TIP3   OH238132   5.294   0.805   8.663  0.1315  0.2828  1.0915
 4646TIP3    H138133   5.363   0.752   8.703  0.4190  0.6835  1.1268
 4646TIP3    H238134   5.214   0.754   8.677  0.7240 -1.3629 -1.0676
 4647TIP3   OH238135   0.292   4.308   8.467  0.6227 -0.0417  0.8031
 4647TIP3    H138136   0.337   4.389   8.491  0.4180  0.3897 -0.2044
 4647TIP3    H238137   0.300   4.304   8.372 -1.4518  0.0581  0.5673
 4648TIP3   OH238138   1.058   6.979   9.308  0.6418 -0.3198 -0.6132
 4648TIP3    H138139   0.965   6.965   9.323  0.8544  0.2196  1.4860
 4648TIP3    H238140   1.100   6.898   9.338  1.0293  0.5378  1.3396
 4649TIP3   OH238141   1.423   3.204   8.393  0.1029 -0.3729  0.5062
 4649TIP3    H138142   1.478   3.278   8.369  0.3576  0.1355  2.4360
 4649TIP3    H238143   1.447   3.186   8.484 -1.6294 -1.3066  0.8152
 4650TIP3   OH238144   1.069   4.225   8.452  0.1606  0.3126 -0.0434
 4650TIP3    H138145   1.006   4.295   8.433  0.7000  0.8576  0.1184
 4650TIP3    H238146   1.141   4.242   8.391  0.9297  0.7620  0.9617
 4651TIP3   OH238147   4.087   7.562   8.734 -0.5562 -0.6183  0.4208
 4651TIP3    H138148   4.157   7.542   8.672  0.6533  0.4552  1.3951
 4651TIP3    H238149   4.117   7.523   8.817 -0.8943  0.2388  0.9549
 4652TIP3   OH238150   7.623   6.084   9.501 -0.9769 -0.2460 -0.6859
 4652TIP3    H138151   7.628   5.988   9.499  0.1438 -0.2077 -0.7219
 4652TIP3    H238152   7.703   6.111   9.547 -1.5070  0.6591 -0.2802
 4653TIP3   OH238153   7.672   3.078   8.142  0.0698 -0.3290 -0.2852
 4653TIP3    H138154   7.739   3.047   8.202  0.6290 -1.3881 -1.4236
 4653TIP3    H238155   7.652   3.002   8.086  0.8735  1.0640 -2.6113
 4654TIP3   OH238156   7.196   1.637   9.896 -0.2046 -0.5041  0.8143
 4654TIP3    H138157   7.147   1.615   9.975 -1.5422 -0.8533 -0.0818
 4654TIP3    H238158   7.217   1.552   9.857 -0.0582 -0.3158  0.4792
 4655TIP3   OH238159   4.277   6.668   8.933  0.1518  0.2144  0.4322
 4655TIP3    H138160   4.368   6.646   8.950 -0.3335 -0.8624  1.8852
 4655TIP3    H238161   4.245   6.706   9.016 -0.6971  0.6083 -0.0596
 4656TIP3   OH238162   1.195   2.774   8.502 -0.2144  0.3575 -0.1092
 4656TIP3    H138163   1.255   2.815   8.566  0.8286 -1.6089  0.2524
 4656TIP3    H238164   1.108   2.799   8.532  0.1717 -1.1986  2.7004
 4657TIP3   OH238165   5.802   5.784   6.648  0.0765  0.5935 -0.0531
 4657TIP3    H138166   5.815   5.693   6.673 -1.0583 -0.1092 -1.8671
 4657TIP3    H238167   5.707   5.795   6.644  0.2039  1.5177 -1.0095
 4658TIP3   OH238168   6.647   0.923   8.802  0.1025 -0.2368 -0.2426
 4658TIP3    H138169   6.674   1.002   8.755 -1.1144 -0.1348 -0.8161
 4658TIP3    H238170   6.698   0.853   8.762 -0.0475  0.0240 -0.9122
 4659TIP3   OH238171   3.944   1.780   6.811  0.4977 -0.6124 -0.0561
 4659TIP3    H138172   3.848   1.785   6.810  0.5287  0.0532 -0.5675
 4659TIP3    H238173   3.963   1.687   6.814 -0.1683 -0.7920 -0.9834
 4660TIP3   OH238174   0.759   1.707   9.136  0.5583  0.1242  0.2771
 4660TIP3    H138175   0.855   1.705   9.136  0.6233  1.1382 -1.4803
 4660TIP3    H238176   0.735   1.707   9.044 -1.1410  0.2015  0.6860
 4661TIP3   OH238177   4.475   6.206   6.437  0.2302  0.4117 -0.1617
 4661TIP3    H138178   4.416   6.169   6.503 -0.6053 -0.8800 -1.5463
 4661TIP3    H238179   4.477   6.140   6.367  0.2574  2.1352 -1.8854
 4662TIP3   OH238180   5.020   3.031   9.214 -0.5509 -0.0161  0.0307
 4662TIP3    H138181   4.991   3.073   9.295 -0.4761 -1.4983  0.8464
 4662TIP3    H238182   4.940   2.994   9.176 -0.3103 -0.8996  0.3732
 4663TIP3   OH238183   5.530   7.417   7.237 -0.0293 -0.1024 -0.1760
 4663TIP3    H138184   5.468   7.484   7.208  0.1990  0.1002 -0.1933
 4663TIP3    H238185   5.531   7.353   7.165  1.3891  0.9623 -1.1606
 4664TIP3   OH238186   7.322   2.948   9.273 -0.0472  0.3608  0.0062
 4664TIP3    H138187   7.251   2.900   9.316 -0.0498 -0.0398 -0.4353
 4664TIP3    H238188   7.402   2.904   9.304 -0.1045 -0.8731 -1.4993
 4665TIP3   OH238189   0.590   2.173   8.673 -0.9567 -0.1531  0.3320
 4665TIP3    H138190   0.564   2.095   8.721  0.4356 -1.6172 -1.1596
 4665TIP3    H238191   0.550   2.163   8.587 -2.1337  1.6443  0.6244
 4666TIP3   OH238192   3.061   2.677   8.141  0.2650  0.1646 -0.5390
 4666TIP3    H138193   3.078   2.680   8.235 -1.0368  0.2903 -0.2797
 4666TIP3    H238194   2.988   2.738   8.128  1.0253  0.8647 -1.7802
 4667TIP3   OH238195   5.430   6.993   9.080 -0.1012  0.5148 -0.2792
 4667TIP3    H138196   5.442   7.046   9.158  0.9966 -0.3734  0.1730
 4667TIP3    H238197   5.514   6.949   9.066 -0.5242  0.0178 -1.4819
 4668TIP3   OH238198   1.825   6.722   7.873 -0.3189  0.2307  0.0516
 4668TIP3    H138199   1.881   6.664   7.923 -0.6452 -0.8641 -0.8010
 4668TIP3    H238200   1.883   6.765   7.811 -0.2430 -0.0618 -0.0820
 4669TIP3   OH238201   2.749   5.909   7.474  0.0741  0.3216  0.0192
 4669TIP3    H138202   2.736   5.918   7.379  0.7425  0.8289 -0.0320
 4669TIP3    H238203   2.671   5.950   7.512  0.1561  0.8066 -0.3106
 4670TIP3   OH238204   4.157   7.672   6.990 -0.0952 -0.4616  0.0170
 4670TIP3    H138205   4.201   7.752   6.961  0.8130 -0.6999  0.7090
 4670TIP3    H238206   4.064   7.693   6.986  0.1136  0.4240 -0.3846
 4671TIP3   OH238207   1.760   0.259   9.618  0.1087  0.2058 -0.1939
 4671TIP3    H138208   1.819   0.185   9.609 -0.4570 -0.1668 -0.9627
 4671TIP3    H238209   1.683   0.224   9.662 -0.5045  0.1163 -1.2880
 4672TIP3   OH238210   7.271   4.183   9.285 -0.5004 -0.2018 -0.6802
 4672TIP3    H138211   7.333   4.244   9.245 -1.1766  0.0572 -1.3543
 4672TIP3    H238212   7.230   4.233   9.355  1.0857 -0.8272  0.7537
 4673TIP3   OH238213   2.552   6.711   7.376 -0.0399  0.2142  0.2150
 4673TIP3    H138214   2.633   6.711   7.426  0.0434  1.3377  0.1217
 4673TIP3    H238215   2.577   6.682   7.288 -0.1412 -1.5120  0.7238
 4674TIP3   OH238216   4.596   6.962   8.575  0.0954  0.0858  0.1491
 4674TIP3    H138217   4.612   6.985   8.667 -0.5743  0.0046  0.2878
 4674TIP3    H238218   4.681   6.933   8.543  0.2143 -0.4293  0.8995
 4675TIP3   OH238219   1.343   2.437   7.846 -0.0831  0.3595  0.1402
 4675TIP3    H138220   1.400   2.512   7.828  0.3465  0.3560  1.3579
 4675TIP3    H238221   1.262   2.457   7.799  1.1445 -0.0041 -2.2540
 4676TIP3   OH238222   2.331   7.664   8.404 -0.3376 -0.2040  0.2180
 4676TIP3    H138223   2.326   7.585   8.459 -0.2864  0.3150  0.9815
 4676TIP3    H238224   2.239   7.686   8.387 -0.3732 -1.4990 -1.6073
 4677TIP3   OH238225   6.919   5.827   8.410 -0.2658  0.1430 -0.4907
 4677TIP3    H138226   6.949   5.765   8.477 -1.2006 -0.2298 -0.4027
 4677TIP3    H238227   6.908   5.910   8.458  0.5610  0.2756 -0.5163
 4678TIP3   OH238228   0.976   6.188   8.776  0.0607 -0.3048  0.0928
 4678TIP3    H138229   0.884   6.208   8.794  0.3952  0.3916  1.1028
 4678TIP3    H238230   0.992   6.229   8.691 -0.3487  0.2890  0.2920
 4679TIP3   OH238231   1.374   5.948   9.119 -0.5937 -0.4778 -0.3800
 4679TIP3    H138232   1.457   5.917   9.154 -0.2094 -1.3457 -1.9714
 4679TIP3    H238233   1.399   6.009   9.049 -1.2215 -2.1114 -2.0935
 4680TIP3   OH238234   2.067   4.024   6.790 -0.7966  0.2581 -0.0917
 4680TIP3    H138235   2.121   3.945   6.783 -0.3943  0.5394 -0.1761
 4680TIP3    H238236   2.127   4.092   6.823 -1.2369  0.4297  0.3811
 4681TIP3   OH238237   2.257   2.899   8.696  0.2544 -0.2558  0.1421
 4681TIP3    H138238   2.249   2.913   8.790  0.7030 -0.3693  0.2007
 4681TIP3    H238239   2.329   2.956   8.670  0.2716 -0.3846 -0.0973
 4682TIP3   OH238240   7.607   2.158   9.047  0.6185 -0.4579  0.5662
 4682TIP3    H138241   7.549   2.227   9.013  0.7863 -0.6849 -0.1824
 4682TIP3    H238242   7.549   2.084   9.064  0.4666 -0.2060  1.2018
 4683TIP3   OH238243   4.021   5.225   9.326  0.1848  0.9966 -0.4328
 4683TIP3    H138244   4.052   5.300   9.376 -0.5805  1.3318 -0.4408
 4683TIP3    H238245   3.990   5.163   9.392  1.1644  0.5173 -0.4094
 4684TIP3   OH238246   6.626   6.478   9.312  0.3457  0.5953  0.2157
 4684TIP3    H138247   6.703   6.534   9.300 -1.4841  3.1498 -0.5190
 4684TIP3    H238248   6.614   6.472   9.406  1.5631 -0.0143  0.3377
 4685TIP3   OH238249   6.757   2.036   8.656 -0.1944  0.1527  0.2074
 4685TIP3    H138250   6.684   2.042   8.594  0.1472  0.8939 -0.1238
 4685TIP3    H238251   6.726   2.082   8.734 -0.3461 -0.1526  0.3315
 4686TIP3   OH238252   0.045   1.594   9.114  0.4283  0.1662  0.5400
 4686TIP3    H138253   0.125   1.578   9.062 -0.6042  0.9400 -1.4176
 4686TIP3    H238254  -0.023   1.607   9.048 -1.1832  0.2330  2.1614
 4687TIP3   OH238255   4.431   0.023   8.153  0.4682 -0.3720  0.0411
 4687TIP3    H138256   4.498  -0.034   8.191  1.1608 -0.0854 -0.7202
 4687TIP3    H238257   4.352  -0.031   8.152  0.5394 -0.5436  1.4178
 4688TIP3   OH238258   4.670   2.614   7.849 -0.0025  0.0783 -0.3597
 4688TIP3    H138259   4.592   2.559   7.857  0.5251 -0.5726  0.4818
 4688TIP3    H238260   4.682   2.651   7.937  0.8514 -0.1378 -0.3812
 4689TIP3   OH238261   6.796   6.890   8.943 -0.1529  0.3144  0.5695
 4689TIP3    H138262   6.852   6.818   8.971  1.0671  1.1422  0.3832
 4689TIP3    H238263   6.758   6.924   9.024  0.3471  0.3064  0.8144
 4690TIP3   OH238264   4.938   7.454   6.611  0.0183 -0.1999  0.2031
 4690TIP3    H138265   4.967   7.460   6.702 -2.4862  0.7370  1.0189
 4690TIP3    H238266   5.019   7.445   6.560  1.5491  0.3653  2.4160
 4691TIP3   OH238267   5.181   6.405   7.524 -0.5238  0.4954  0.0635
 4691TIP3    H138268   5.135   6.477   7.480 -0.2414  1.0230  0.6129
 4691TIP3    H238269   5.271   6.411   7.492 -0.8842 -0.7622 -1.2904
 4692TIP3   OH238270   0.210   6.584   7.985 -0.2616  0.4811  0.0419
 4692TIP3    H138271   0.176   6.528   8.055  0.4939  0.0465  0.0785
 4692TIP3    H238272   0.296   6.612   8.017 -0.6180  1.6451  0.0036
 4693TIP3   OH238273   6.828   0.828   7.974 -0.0397  0.1162  0.1939
 4693TIP3    H138274   6.847   0.735   7.989  2.5146  0.7861  1.7897
 4693TIP3    H238275   6.890   0.853   7.905  1.8909  1.3671  2.2700
 4694TIP3   OH238276   0.534   3.517   8.073 -0.0302  0.2554 -0.4777
 4694TIP3    H138277   0.548   3.567   7.992 -1.2932  1.5373  0.0561
 4694TIP3    H238278   0.592   3.559   8.137 -1.5963  1.5495  0.1487
 4695TIP3   OH238279   6.186   1.876   8.751  0.0309  0.0554 -0.3618
 4695TIP3    H138280   6.254   1.809   8.749  0.7476  0.7663 -0.5506
 4695TIP3    H238281   6.134   1.856   8.829 -0.1762 -1.1038 -0.7895
 4696TIP3   OH238282   7.671   3.400   9.273 -0.0796 -0.0923 -0.3362
 4696TIP3    H138283   7.620   3.322   9.254 -1.8178  0.7478  0.6264
 4696TIP3    H238284   7.612   3.456   9.323  1.9473  0.7371  1.3074
 4697TIP3   OH238285   2.165   1.790   8.291  0.5276 -0.5631 -0.0314
 4697TIP3    H138286   2.224   1.838   8.349  1.3692 -1.8172  0.1909
 4697TIP3    H238287   2.077   1.819   8.317  0.9809  0.3532  0.5329
 4698TIP3   OH238288   2.705   7.325   8.713 -0.3171  0.2851  0.2513
 4698TIP3    H138289   2.611   7.311   8.709  0.0065 -1.8699 -0.7077
 4698TIP3    H238290   2.740   7.244   8.750  1.4293 -0.3238 -2.4867
 4699TIP3   OH238291   6.554   6.590   7.880  0.3286  0.4764 -0.4439
 4699TIP3    H138292   6.583   6.505   7.913 -1.4922 -0.4200 -1.0002
 4699TIP3    H238293   6.489   6.619   7.944  1.3631  1.7735  0.0644
 4700TIP3   OH238294   1.324   7.198   7.617  0.1008 -0.7092 -0.0075
 4700TIP3    H138295   1.313   7.285   7.577  1.6640 -0.5209 -0.0668
 4700TIP3    H238296   1.276   7.204   7.700 -1.2648 -0.3718 -0.7927
 4701TIP3   OH238297   7.604   6.274   8.786  0.1832 -0.1838  0.3650
 4701TIP3    H138298   7.668   6.309   8.724 -0.9021  0.6220 -0.3318
 4701TIP3    H238299   7.647   6.283   8.871  0.7810  0.9138 -0.0272
 4702TIP3   OH238300   0.847   4.698   8.417  0.5564 -0.8445 -0.3192
 4702TIP3    H138301   0.779   4.746   8.370  0.2368 -0.7365  0.2511
 4702TIP3    H238302   0.929   4.741   8.391  0.2695  0.0611  0.2324
 4703TIP3   OH238303   0.979   2.701   8.857  0.0582  0.2717 -0.0392
 4703TIP3    H138304   1.057   2.667   8.901  0.8045  0.5589 -1.0951
 4703TIP3    H238305   0.910   2.696   8.923  1.0214  0.2239  0.9971
 4704TIP3   OH238306   5.483   2.953   7.960 -0.2044  0.1970 -0.0277
 4704TIP3    H138307   5.444   2.866   7.954 -0.5181  0.3080  0.3407
 4704TIP3    H238308   5.491   2.969   8.054  0.0445  0.4798 -0.0954
 4705TIP3   OH238309   0.122   2.435   9.366  0.7480  0.2361  0.1316
 4705TIP3    H138310   0.094   2.391   9.446 -1.4070 -0.0548 -0.7277
 4705TIP3    H238311   0.160   2.365   9.313  1.1073  0.2155  0.4071
 4706TIP3   OH238312   2.559   4.637   9.030  0.0870  0.2700  0.0342
 4706TIP3    H138313   2.480   4.641   8.976  0.5377  0.3058 -0.6249
 4706TIP3    H238314   2.627   4.607   8.971  0.5735  0.2445  0.6031
 4707TIP3   OH238315   2.846   6.399   9.032  0.0905 -0.3534  0.2994
 4707TIP3    H138316   2.913   6.331   9.028 -0.0572 -0.4639 -0.6278
 4707TIP3    H238317   2.895   6.480   9.047  0.1917 -0.7430  2.4496
 4708TIP3   OH238318   5.701   1.527   9.079  0.5025 -0.3058  0.3096
 4708TIP3    H138319   5.783   1.552   9.037  0.5216 -1.0077 -0.0818
 4708TIP3    H238320   5.634   1.577   9.033  0.7729  0.8630  1.1401
 4709TIP3   OH238321   4.718   4.754   9.264 -0.0159  0.0583  0.4941
 4709TIP3    H138322   4.772   4.819   9.218  0.9247  0.4401  2.0598
 4709TIP3    H238323   4.652   4.805   9.310 -1.5006 -0.3793 -1.0235
 4710TIP3   OH238324   3.033   4.670   8.721 -0.4807 -0.2480 -0.0550
 4710TIP3    H138325   3.066   4.593   8.674  1.8465  1.1683 -0.9458
 4710TIP3    H238326   3.031   4.644   8.812  1.3965 -1.0730 -0.1989
 4711TIP3   OH238327   1.558   0.043   8.387 -0.0605  0.5308  0.4882
 4711TIP3    H138328   1.580   0.089   8.306 -0.0091  1.2228  0.8917
 4711TIP3    H238329   1.468   0.069   8.406  0.2433  1.1183  1.1541
 4712TIP3   OH238330   5.329   2.195   7.776  0.2245 -0.5799  0.4112
 4712TIP3    H138331   5.248   2.245   7.774 -0.2105 -1.2339  1.2892
 4712TIP3    H238332   5.302   2.104   7.763  0.7869 -0.8346  0.9679
 4713TIP3   OH238333   6.592   4.201   7.957  0.3174 -0.3443 -0.0766
 4713TIP3    H138334   6.578   4.258   8.033  0.1064  0.5698 -0.7855
 4713TIP3    H238335   6.683   4.170   7.967  1.1261  1.6741 -0.6755
 4714TIP3   OH238336   5.937   1.152   9.228 -0.2720 -0.2184  0.1902
 4714TIP3    H138337   5.910   1.244   9.223  0.2146  0.1986  3.1825
 4714TIP3    H238338   5.859   1.106   9.261  0.3969 -0.3037  1.7013
 4715TIP3   OH238339   0.629   7.328   6.678  0.4806 -0.4259  0.3395
 4715TIP3    H138340   0.578   7.287   6.748 -1.4294  0.7975 -0.2246
 4715TIP3    H238341   0.711   7.355   6.720 -0.4596 -0.0382  2.0349
 4716TIP3   OH238342   2.943   1.919   7.474 -0.5753 -0.3211  0.3622
 4716TIP3    H138343   2.881   1.889   7.541  0.4470  0.3367  1.6380
 4716TIP3    H238344   3.028   1.888   7.505 -0.2192 -1.0303 -1.2578
 4717TIP3   OH238345   3.443   4.910   8.823  0.0126  0.7319  0.6010
 4717TIP3    H138346   3.433   4.827   8.868  1.7503  0.5808  0.7888
 4717TIP3    H238347   3.370   4.914   8.761 -0.1436 -0.8869  0.6535
 4718TIP3   OH238348   1.635   5.984   7.453  0.5603 -0.4436  0.0787
 4718TIP3    H138349   1.665   6.075   7.464 -0.5323 -0.1044  0.3499
 4718TIP3    H238350   1.626   5.974   7.358  2.4842 -0.8876 -0.0982
 4719TIP3   OH238351   2.282   4.074   8.127 -0.5803  0.7341  0.7940
 4719TIP3    H138352   2.223   4.092   8.053  1.2295  0.1250 -0.9046
 4719TIP3    H238353   2.333   4.155   8.137 -0.3185  0.5580  0.8828
 4720TIP3   OH238354   6.964   6.719   8.628  0.0998  0.3791  0.1306
 4720TIP3    H138355   6.869   6.705   8.620 -0.0921  0.8815  1.2999
 4720TIP3    H238356   6.986   6.775   8.554 -0.2633 -0.8063 -0.9171
 4721TIP3   OH238357   1.206   7.180   9.200 -0.2702 -0.1176  0.0491
 4721TIP3    H138358   1.163   7.103   9.237 -0.3997  0.4017  1.0036
 4721TIP3    H238359   1.150   7.205   9.126  0.0238 -1.1959 -0.5688
 4722TIP3   OH238360   3.305   2.517   6.694  0.0694  0.0022 -0.4406
 4722TIP3    H138361   3.384   2.464   6.696 -1.7933 -3.1713 -2.2862
 4722TIP3    H238362   3.248   2.479   6.761 -0.7340  0.7659 -0.6608
 4723TIP3   OH238363   5.213   6.897   9.201 -0.3070  0.2617 -0.5197
 4723TIP3    H138364   5.138   6.910   9.143  0.3166  1.2454 -1.1367
 4723TIP3    H238365   5.287   6.933   9.152  0.6100 -0.8519 -0.0011
 4724TIP3   OH238366   1.196   2.528   8.391 -0.3525  0.1146 -0.3782
 4724TIP3    H138367   1.283   2.545   8.355 -0.4857 -0.0991 -0.8084
 4724TIP3    H238368   1.170   2.611   8.431 -0.5010  0.5873 -1.4105
 4725TIP3   OH238369   3.363   3.662   9.377  0.3839 -0.8399  0.1611
 4725TIP3    H138370   3.347   3.569   9.389  1.4442 -1.0702 -0.0760
 4725TIP3    H238371   3.281   3.705   9.403 -0.7155 -1.9327 -1.3432
 4726TIP3   OH238372   0.356   3.325   7.045 -0.1418 -0.2220 -0.1409
 4726TIP3    H138373   0.343   3.291   7.134  0.8284 -0.4773 -0.0907
 4726TIP3    H238374   0.308   3.264   6.989 -1.5021  0.4313  0.2674
 4727TIP3   OH238375   0.967   3.513   8.170  0.2793 -0.3344  0.1556
 4727TIP3    H138376   0.977   3.607   8.155 -0.7648 -0.5716 -2.4919
 4727TIP3    H238377   1.056   3.480   8.177  0.6603  0.8218  1.3340
 4728TIP3   OH238378   2.997   5.696   7.750 -0.3355  0.4653  0.2807
 4728TIP3    H138379   3.036   5.611   7.727 -1.1007  0.0389  0.5210
 4728TIP3    H238380   2.942   5.677   7.826 -1.0387  1.0477 -0.0714
 4729TIP3   OH238381   7.332   0.611   7.592  0.7136 -0.0761  0.0051
 4729TIP3    H138382   7.288   0.678   7.538  0.2792 -0.0903  0.3338
 4729TIP3    H238383   7.292   0.621   7.678  0.5470 -0.8508  0.0257
 4730TIP3   OH238384   4.165   5.837   9.067  0.3746  0.2964  0.2654
 4730TIP3    H138385   4.072   5.819   9.056  0.3059  0.2485  0.8851
 4730TIP3    H238386   4.176   5.852   9.161  0.9184  0.7123  0.1445
 4731TIP3   OH238387   2.035   1.722   9.132 -0.1169 -0.5146 -0.2524
 4731TIP3    H138388   2.035   1.696   9.040  2.7091 -0.8794 -0.2221
 4731TIP3    H238389   2.127   1.734   9.154 -0.7583  0.2350  2.3688
 4732TIP3   OH238390   6.155   4.243   8.929  0.0701  0.2725 -0.0705
 4732TIP3    H138391   6.250   4.234   8.925  0.0560  0.0513  0.0685
 4732TIP3    H238392   6.122   4.153   8.938 -0.1394  0.3616  0.0709
 4733TIP3   OH238393   1.074   2.490   7.819 -0.3839  0.2080  0.0541
 4733TIP3    H138394   1.062   2.529   7.906 -1.3669  0.4144 -0.1680
 4733TIP3    H238395   0.988   2.496   7.778 -0.2441 -1.0649 -0.4559
 4734TIP3   OH238396   7.586   1.758   9.876 -0.1952 -0.9014 -0.2564
 4734TIP3    H138397   7.511   1.779   9.821 -0.7716 -1.6033  0.2368
 4734TIP3    H238398   7.549   1.714   9.952  0.5467  0.4793  0.9508
 4735TIP3   OH238399   5.751   6.097   8.908  0.2081 -0.2180  0.2984
 4735TIP3    H138400   5.684   6.104   8.841  0.5473 -1.4700 -0.2006
 4735TIP3    H238401   5.807   6.025   8.879  1.4164  0.3976  1.0090
 4736TIP3   OH238402   5.390   4.566   8.231  0.6223 -0.4596  0.2066
 4736TIP3    H138403   5.419   4.525   8.312 -1.0229 -2.2452 -0.0092
 4736TIP3    H238404   5.329   4.634   8.258  0.5347 -0.6470  0.4817
 4737TIP3   OH238405   7.009   6.898   8.424  0.1182 -0.4557 -0.5044
 4737TIP3    H138406   6.945   6.966   8.402 -0.6524 -0.1598  2.3160
 4737TIP3    H238407   7.086   6.946   8.453 -0.0268 -0.7599  0.4211
 4738TIP3   OH238408   4.517   2.104   8.931  0.3391  0.4236 -0.3461
 4738TIP3    H138409   4.470   2.119   8.849  1.1941  0.6678 -0.8089
 4738TIP3    H238410   4.591   2.048   8.906  0.9069  0.9327  0.1486
 4739TIP3   OH238411   5.767   2.977   7.914 -0.5908  0.4116  0.7880
 4739TIP3    H138412   5.672   2.961   7.915 -0.5639  0.2559  1.3688
 4739TIP3    H238413   5.806   2.891   7.928 -0.3689  0.5095  0.7827
 4740TIP3   OH238414   7.481   0.166   9.343  0.3249  0.6511 -0.3109
 4740TIP3    H138415   7.508   0.249   9.383 -2.0414  1.2699  0.1694
 4740TIP3    H238416   7.551   0.105   9.366  0.4243  1.6500  2.4173
 4741TIP3   OH238417   5.552   3.715   8.294 -0.1938 -0.0549  0.3333
 4741TIP3    H138418   5.544   3.809   8.280  1.4329  0.4760  2.3846
 4741TIP3    H238419   5.581   3.680   8.210 -1.2675  1.1864 -0.5831
 4742TIP3   OH238420   4.198   3.746   8.307  0.6362  0.7344 -0.3169
 4742TIP3    H138421   4.265   3.800   8.349  0.6542  0.6765 -0.2710
 4742TIP3    H238422   4.207   3.765   8.214  0.2764  1.2334 -0.2568
 4743TIP3   OH238423   5.548   2.006   9.280  0.2970  0.9447  0.1699
 4743TIP3    H138424   5.475   2.067   9.290 -0.9236 -0.1460 -1.5190
 4743TIP3    H238425   5.553   1.991   9.186  2.6448  0.8664  0.2473
 4744TIP3   OH238426   7.421   0.561   9.546 -0.1186  0.7002  0.7446
 4744TIP3    H138427   7.500   0.542   9.595 -0.2659  2.2253  1.6204
 4744TIP3    H238428   7.349   0.535   9.604 -0.2886 -0.2569  0.1343
 4745TIP3   OH238429   7.358   1.753   9.714  0.4585 -0.3692 -0.2658
 4745TIP3    H138430   7.294   1.694   9.753  0.0881 -0.8369 -1.5450
 4745TIP3    H238431   7.311   1.836   9.704  0.8017  0.0019  0.9889
 4746TIP3   OH238432   2.838   1.409   9.156  0.1061 -0.4938  0.5667
 4746TIP3    H138433   2.865   1.500   9.144  2.3487 -0.9608  1.4899
 4746TIP3    H238434   2.777   1.412   9.230 -1.0584  0.4181 -0.4069
 4747TIP3   OH238435   2.929   1.848   6.758  0.0278 -0.3186  0.1599
 4747TIP3    H138436   2.855   1.906   6.774  0.3766  0.4529 -0.8851
 4747TIP3    H238437   2.931   1.837   6.663  0.8852 -0.8111  0.2238
 4748TIP3   OH238438   1.807   2.797   8.284  0.3282  0.1669  0.1771
 4748TIP3    H138439   1.764   2.882   8.287  2.0340  1.0870 -0.3046
 4748TIP3    H238440   1.869   2.799   8.357 -0.7813 -1.3480  1.2094
 4749TIP3   OH238441   7.071   2.464   8.417  0.7348 -0.4705 -0.0868
 4749TIP3    H138442   7.073   2.520   8.339  1.5095 -0.9579 -0.4322
 4749TIP3    H238443   7.084   2.524   8.490  0.2505 -0.0361 -0.3483
 4750TIP3   OH238444   6.160   6.046   6.804 -0.2373  0.1213  0.0132
 4750TIP3    H138445   6.133   5.962   6.843 -1.5567 -0.2248 -1.5452
 4750TIP3    H238446   6.238   6.070   6.853  0.9183 -2.6352 -0.2763
 4751TIP3   OH238447   2.848   3.031   9.341 -0.3809  0.1388 -0.1331
 4751TIP3    H138448   2.763   3.013   9.301  0.1356 -1.5088 -0.5637
 4751TIP3    H238449   2.892   3.090   9.280  0.0291 -1.5857 -1.5696
 4752TIP3   OH238450   2.579   3.143   7.542 -0.0033 -0.0499 -0.5425
 4752TIP3    H138451   2.520   3.128   7.616 -1.2525  1.4015 -1.1786
 4752TIP3    H238452   2.623   3.226   7.563  2.7206 -1.6305  0.4396
 4753TIP3   OH238453   0.441   3.256   8.049 -0.4478  0.4149  0.2264
 4753TIP3    H138454   0.466   3.348   8.041 -0.1009  0.2642 -0.5636
 4753TIP3    H238455   0.351   3.258   8.082 -0.5450  1.0460 -0.0590
 4754TIP3   OH238456   7.415   2.834   7.334 -0.1107 -0.2169  0.0529
 4754TIP3    H138457   7.336   2.887   7.322  0.2024  0.0667 -0.8267
 4754TIP3    H238458   7.386   2.744   7.314 -0.6998 -0.4492  1.7847
 4755TIP3   OH238459   1.218   4.904   9.472  0.2938  0.1244  0.6007
 4755TIP3    H138460   1.213   4.915   9.377  0.1208 -3.7841 -0.0255
 4755TIP3    H238461   1.300   4.946   9.496  1.5307 -0.7649 -1.7141
 4756TIP3   OH238462   2.179   5.983   8.821  0.6088 -0.3325  0.0987
 4756TIP3    H138463   2.090   5.985   8.786  0.5962  2.1486  0.1011
 4756TIP3    H238464   2.231   5.944   8.751 -0.2551 -0.4776 -0.4843
 4757TIP3   OH238465   1.152   3.490   7.682  0.0876 -0.1882  0.3767
 4757TIP3    H138466   1.065   3.528   7.685  0.5277  0.8194  1.3430
 4757TIP3    H238467   1.163   3.448   7.768  0.5578 -0.2969  0.2672
 4758TIP3   OH238468   1.817   5.740   7.418  0.3141 -0.7984  0.2820
 4758TIP3    H138469   1.759   5.816   7.410  1.2409 -0.1465 -0.3456
 4758TIP3    H238470   1.791   5.699   7.501  1.4924  1.6559  2.0137
 4759TIP3   OH238471   6.066   5.962   8.622  0.7759  0.3417  0.8342
 4759TIP3    H138472   6.028   5.894   8.678  0.6680  1.8551  2.6624
 4759TIP3    H238473   6.151   5.925   8.596 -0.6430 -1.8808 -1.0131
 4760TIP3   OH238474   2.848   1.352   8.065 -0.4215 -0.2776  0.1219
 4760TIP3    H138475   2.782   1.356   8.135  0.2161 -0.0593  0.7183
 4760TIP3    H238476   2.919   1.408   8.096  0.9184 -2.0488  0.4230
 4761TIP3   OH238477   1.964   2.565   8.052  0.2185  0.1528 -0.2833
 4761TIP3    H138478   1.985   2.494   7.991  0.5280  0.9013 -1.0765
 4761TIP3    H238479   2.028   2.556   8.122 -0.7192 -1.2828  0.4414
 4762TIP3   OH238480   0.041   1.478   7.880 -0.0978  0.5695 -0.0972
 4762TIP3    H138481   0.049   1.486   7.785  1.3919 -1.0708 -0.1540
 4762TIP3    H238482  -0.038   1.426   7.893  1.3973 -1.9999 -0.6559
 4763TIP3   OH238483   4.200   0.272   8.863  0.0560 -0.6785 -0.5989
 4763TIP3    H138484   4.108   0.279   8.836 -0.4393 -2.4277  0.4732
 4763TIP3    H238485   4.200   0.298   8.955  1.0494  1.4306 -1.1435
 4764TIP3   OH238486   5.655   3.219   9.028 -1.0425 -0.2860 -0.1490
 4764TIP3    H138487   5.747   3.208   9.004 -0.8881 -0.0619  0.3415
 4764TIP3    H238488   5.635   3.145   9.085 -0.5725  0.7813  1.4657
 4765TIP3   OH238489   2.309   2.290   8.278  0.1269  0.3522 -0.4336
 4765TIP3    H138490   2.382   2.239   8.244 -1.4464 -1.8973 -0.6411
 4765TIP3    H238491   2.311   2.274   8.373 -0.8940 -0.9394 -0.5942
 4766TIP3   OH238492   5.537   1.160   8.392  0.3766 -0.1143  0.1629
 4766TIP3    H138493   5.579   1.175   8.477  1.2507 -0.4199 -0.2122
 4766TIP3    H238494   5.538   1.065   8.382  1.6904 -0.0108 -0.8858
 4767TIP3   OH238495   2.830   7.650   7.291 -0.6605 -0.2720 -0.1310
 4767TIP3    H138496   2.906   7.626   7.238  0.6366  0.2824  1.4140
 4767TIP3    H238497   2.793   7.726   7.245  0.1354 -0.1037 -0.5194
 4768TIP3   OH238498   4.759   4.562   8.628 -0.2546 -0.4698  0.0687
 4768TIP3    H138499   4.823   4.491   8.621  0.7708  0.3601  0.7301
 4768TIP3    H238500   4.762   4.587   8.721 -2.8004 -1.5321  0.5073
 4769TIP3   OH238501   5.769   5.466   8.359 -0.2406 -0.1270  0.0154
 4769TIP3    H138502   5.792   5.466   8.266 -0.6993  1.8634 -0.1404
 4769TIP3    H238503   5.726   5.381   8.373 -0.1238 -0.4780 -1.5634
 4770TIP3   OH238504   0.514   5.588   8.373 -0.4056  0.2418 -0.2503
 4770TIP3    H138505   0.452   5.577   8.445 -0.0960 -1.3409 -0.1972
 4770TIP3    H238506   0.547   5.678   8.384 -1.5899  0.5989  0.5749
 4771TIP3   OH238507   5.443   5.922   7.074  0.6364 -0.3417  0.4217
 4771TIP3    H138508   5.465   5.867   6.998 -2.4726 -0.1600 -0.7450
 4771TIP3    H238509   5.422   6.008   7.036 -3.1562 -0.8222  1.0575
 4772TIP3   OH238510   0.257   3.977   9.475  0.2836  0.0774  0.0931
 4772TIP3    H138511   0.345   3.954   9.506  0.7474 -0.4169 -1.5072
 4772TIP3    H238512   0.265   3.977   9.379 -1.5734 -0.4254 -0.0852
 4773TIP3   OH238513   3.931   3.716   8.008  0.2392 -0.0209  0.2752
 4773TIP3    H138514   3.962   3.800   7.977  0.2873 -0.4051 -0.7558
 4773TIP3    H238515   4.007   3.659   8.005 -0.0408 -0.3797 -0.0768
 4774TIP3   OH238516   3.817   2.179   9.452 -0.5674 -0.3895 -0.1492
 4774TIP3    H138517   3.887   2.115   9.461 -0.9369 -0.7019  0.6525
 4774TIP3    H238518   3.769   2.152   9.374  0.5578  0.1926 -1.0557
 4775TIP3   OH238519   0.513   6.189   7.117 -0.0771 -0.4027 -0.9165
 4775TIP3    H138520   0.525   6.098   7.088 -1.5955 -0.8333 -0.3120
 4775TIP3    H238521   0.424   6.210   7.089 -0.8981 -0.1819  1.6679
 4776TIP3   OH238522   5.109   3.432   8.118 -0.3313  0.3973 -0.4154
 4776TIP3    H138523   5.192   3.440   8.164 -0.9089  0.7937  0.5992
 4776TIP3    H238524   5.106   3.342   8.086  0.0946  0.1239  0.3127
 4777TIP3   OH238525   1.416   5.332   7.160 -0.3404 -0.2959  0.4682
 4777TIP3    H138526   1.446   5.415   7.197  0.0279 -0.2371  0.0458
 4777TIP3    H238527   1.485   5.306   7.100 -0.3928 -0.9767  0.6897
 4778TIP3   OH238528   2.993   5.212   7.639  0.7314  0.0051  0.3227
 4778TIP3    H138529   3.035   5.290   7.675 -0.6093  0.9841 -0.1860
 4778TIP3    H238530   2.999   5.223   7.544 -1.3804  0.5940  0.2120
 4779TIP3   OH238531   5.530   4.534   6.985  0.0029 -1.1249 -0.0559
 4779TIP3    H138532   5.555   4.460   7.041  0.2961  0.5293  2.1631
 4779TIP3    H238533   5.604   4.546   6.925  1.1954 -0.9895  1.3857
 4780TIP3   OH238534   0.879   0.495   8.460 -0.0691  0.1600  0.0889
 4780TIP3    H138535   0.881   0.541   8.545 -3.9940  0.1365  0.3784
 4780TIP3    H238536   0.943   0.426   8.469  3.1473  2.9986  1.1530
 4781TIP3   OH238537   6.434   5.955   7.251  0.1024 -0.3081  0.0608
 4781TIP3    H138538   6.345   5.942   7.218  0.7093 -2.3989 -0.9169
 4781TIP3    H238539   6.424   6.018   7.322 -1.5361  2.9641 -2.7774
 4782TIP3   OH238540   1.984   0.928   9.034  0.0350  0.1186 -0.0968
 4782TIP3    H138541   1.996   0.995   9.102  1.2187  0.6709 -0.8062
 4782TIP3    H238542   1.902   0.884   9.057 -0.3296  1.2516  0.8653
 4783TIP3   OH238543   4.385   3.332   7.952  0.0452  0.0295  0.1118
 4783TIP3    H138544   4.447   3.374   7.893 -0.6289  1.4365  0.3574
 4783TIP3    H238545   4.427   3.334   8.038  1.1812 -2.3395 -0.2913
 4784TIP3   OH238546   5.996   2.447   7.972 -0.2269  0.1830  0.0412
 4784TIP3    H138547   5.964   2.373   8.023 -2.1465  1.2474  0.5020
 4784TIP3    H238548   6.091   2.437   7.971 -0.4210 -2.2524  0.0727
 4785TIP3   OH238549   0.419   4.265   7.136  0.4038 -0.1683 -0.3125
 4785TIP3    H138550   0.448   4.200   7.072 -0.4959 -0.8037 -0.0954
 4785TIP3    H238551   0.402   4.343   7.083  1.0915 -0.2335 -0.6353
 4786TIP3   OH238552   3.447   6.195   8.134 -0.0056  0.5568 -0.1220
 4786TIP3    H138553   3.485   6.139   8.203 -0.2352 -1.1730 -1.3353
 4786TIP3    H238554   3.501   6.274   8.135  0.0188  0.5821  2.0047
 4787TIP3   OH238555   6.000   5.097   7.248 -0.7141 -0.1621  0.0454
 4787TIP3    H138556   6.070   5.093   7.183 -0.0637  1.7854  0.5681
 4787TIP3    H238557   6.046   5.097   7.332 -1.5079 -1.8184  0.5258
 4788TIP3   OH238558   6.649   1.079   9.305 -0.7318 -0.7372 -0.1075
 4788TIP3    H138559   6.610   1.150   9.255  0.2602 -0.8875 -1.1436
 4788TIP3    H238560   6.743   1.086   9.287 -0.5166 -1.6876  0.5811
 4789TIP3   OH238561   6.619   0.275   8.066  0.1031  0.5995  0.3780
 4789TIP3    H138562   6.715   0.276   8.066  0.1613 -0.2737 -1.3411
 4789TIP3    H238563   6.594   0.343   8.003 -0.2931 -0.5480 -0.7673
 4790TIP3   OH238564   5.384   4.928   7.301 -0.3223 -0.1349 -0.0449
 4790TIP3    H138565   5.401   4.849   7.351 -0.4898 -0.4917 -0.5405
 4790TIP3    H238566   5.338   4.897   7.222 -0.1331  0.4196 -0.3785
 4791TIP3   OH238567   2.547   2.758   8.281 -0.2962  0.4605 -0.4924
 4791TIP3    H138568   2.496   2.778   8.203 -0.2663 -0.8088 -0.8561
 4791TIP3    H238569   2.508   2.678   8.316 -1.2826  1.8162  1.6833
 4792TIP3   OH238570   5.863   1.428   7.435 -0.0821  0.0045  0.1757
 4792TIP3    H138571   5.806   1.372   7.487  0.9054  0.2907  1.6382
 4792TIP3    H238572   5.827   1.516   7.446 -0.6061 -0.0924 -0.6808
 4793TIP3   OH238573   6.377   1.741   8.395  0.0293  0.9608  0.4176
 4793TIP3    H138574   6.397   1.772   8.483 -0.2825  0.3801  0.6935
 4793TIP3    H238575   6.372   1.821   8.342 -1.9636  1.5184  1.3558
 4794TIP3   OH238576   6.102   6.618   8.579  0.3612  0.0700 -0.3929
 4794TIP3    H138577   6.166   6.655   8.518 -0.3664  0.2390 -1.0713
 4794TIP3    H238578   6.153   6.559   8.634  0.8825 -0.8873 -1.8366
 4795TIP3   OH238579   7.517   2.545   8.324 -0.1321 -0.0183  0.0073
 4795TIP3    H138580   7.463   2.470   8.351  0.8699 -0.6533  0.3144
 4795TIP3    H238581   7.591   2.506   8.279 -1.1156  0.9565 -2.6601
 4796TIP3   OH238582   5.144   3.814   7.553  0.0752  0.6651 -0.2633
 4796TIP3    H138583   5.217   3.826   7.492  0.2750  1.7908  0.1811
 4796TIP3    H238584   5.112   3.725   7.534  1.1723  0.3769 -0.8744
 4797TIP3   OH238585   4.214   5.408   9.416 -0.7436 -0.3347 -0.2735
 4797TIP3    H138586   4.299   5.438   9.450 -0.6501 -1.4969  0.5762
 4797TIP3    H238587   4.185   5.479   9.360  0.9692 -0.0454 -0.8743
 4798TIP3   OH238588   2.248   4.713   6.911  0.1223  0.0938 -0.0988
 4798TIP3    H138589   2.255   4.623   6.943 -0.8169  0.2871  0.6840
 4798TIP3    H238590   2.338   4.736   6.886  1.0190 -0.0013  2.6357
 4799TIP3   OH238591   1.922   4.301   9.393 -0.4682 -0.3519 -0.0875
 4799TIP3    H138592   1.989   4.344   9.446 -0.5504  1.1352 -1.1148
 4799TIP3    H238593   1.964   4.222   9.360  0.8706  0.6240 -0.8221
 4800TIP3   OH238594   2.368   0.594   8.995 -0.1480  0.3909  0.1289
 4800TIP3    H138595   2.294   0.634   8.950 -0.3941  1.2395  1.2408
 4800TIP3    H238596   2.329   0.549   9.070  0.5540  2.3686  1.7806
 4801TIP3   OH238597   2.404   6.392   8.112 -0.3647  0.2638  0.0367
 4801TIP3    H138598   2.405   6.349   8.197 -0.8440  0.3292  0.0783
 4801TIP3    H238599   2.317   6.373   8.077  0.5921 -1.7586 -1.4706
 4802TIP3   OH238600   1.711   3.451   8.857 -0.0767 -0.0842  0.4886
 4802TIP3    H138601   1.656   3.394   8.912 -1.4768  2.1140  1.5045
 4802TIP3    H238602   1.655   3.472   8.782 -0.2749  1.3649  1.0206
 4803TIP3   OH238603   3.165   1.752   7.668 -0.2932 -0.1189 -0.6512
 4803TIP3    H138604   3.155   1.804   7.748  1.3831 -0.5877 -0.0900
 4803TIP3    H238605   3.174   1.817   7.598 -1.4902  0.2926 -0.4510
 4804TIP3   OH238606   2.462   3.834   8.098 -0.1270  0.1711  0.1448
 4804TIP3    H138607   2.403   3.821   8.172  0.3570  0.5002  0.5976
 4804TIP3    H238608   2.497   3.922   8.110  0.4849 -0.0316 -0.0869
 4805TIP3   OH238609   6.366   5.819   8.666 -0.0928  0.4914  0.2611
 4805TIP3    H138610   6.361   5.724   8.676  0.9718  0.4764  0.7719
 4805TIP3    H238611   6.414   5.849   8.743 -0.7942  1.5015  0.3311
 4806TIP3   OH238612   1.941   0.486   7.688  0.0147 -0.2924 -0.3957
 4806TIP3    H138613   1.919   0.499   7.596  1.3128 -1.1249 -0.8529
 4806TIP3    H238614   1.912   0.397   7.707  0.9477 -0.6018 -0.3866
 4807TIP3   OH238615   0.328   0.914   9.724 -0.1584 -0.2342  0.1287
 4807TIP3    H138616   0.399   0.876   9.775 -0.7922 -0.9801  0.4836
 4807TIP3    H238617   0.364   0.996   9.689  0.7813 -0.4755  0.5021
 4808TIP3   OH238618   0.453   7.567   6.650  0.4776 -0.4632 -0.5220
 4808TIP3    H138619   0.516   7.495   6.644  0.7430 -0.1607 -1.3475
 4808TIP3    H238620   0.439   7.578   6.745 -0.2630 -2.2056 -0.3860
 4809TIP3   OH238621   6.836   3.081   8.692 -0.2580  0.1207 -0.6610
 4809TIP3    H138622   6.795   2.994   8.692  1.4044 -0.8538  2.9152
 4809TIP3    H238623   6.929   3.063   8.697  0.1866  2.1596 -0.9050
 4810TIP3   OH238624   0.018   4.572   8.566  0.1010  0.2910  0.1298
 4810TIP3    H138625  -0.036   4.530   8.634  0.4331 -0.2256  0.0781
 4810TIP3    H238626  -0.013   4.534   8.484 -0.9753  1.6342 -0.1249
 4811TIP3   OH238627   4.886   5.672   7.581 -0.2984  0.3233  0.0422
 4811TIP3    H138628   4.886   5.704   7.490  2.4205 -0.0748 -0.2092
 4811TIP3    H238629   4.839   5.590   7.577  0.6765 -0.2234 -1.2956
 4812TIP3   OH238630   3.700   0.403   8.951 -0.1526  0.0205 -0.6144
 4812TIP3    H138631   3.647   0.375   9.026 -0.0156  1.6972  0.1634
 4812TIP3    H238632   3.643   0.463   8.903  1.2172  2.5706  0.7319
 4813TIP3   OH238633   5.548   1.836   9.497 -0.6697 -0.2625  0.0495
 4813TIP3    H138634   5.565   1.891   9.421 -0.2027 -0.8007 -0.2427
 4813TIP3    H238635   5.454   1.845   9.513 -0.2904  2.2640  1.3066
 4814TIP3   OH238636   0.177   5.132   8.949  0.3560 -0.8097 -0.1407
 4814TIP3    H138637   0.235   5.174   9.013  0.6014 -0.7966 -0.3687
 4814TIP3    H238638   0.096   5.116   8.997  0.3969 -0.4354  0.0601
 4815TIP3   OH238639   4.711   4.905   7.478  0.3324 -0.0712  0.1238
 4815TIP3    H138640   4.672   4.989   7.501 -1.7106 -0.5595 -1.2928
 4815TIP3    H238641   4.642   4.841   7.494  1.3310 -1.2956 -0.2902
 4816TIP3   OH238642   3.353   2.205   9.340  0.5267  0.2152 -0.0733
 4816TIP3    H138643   3.446   2.216   9.359  0.7489 -1.1812 -0.1870
 4816TIP3    H238644   3.347   2.208   9.244  0.8314 -1.8549 -0.2130
 4817TIP3   OH238645   2.234   7.278   9.265 -0.4570 -0.1617 -0.3884
 4817TIP3    H138646   2.167   7.211   9.256  0.4593 -1.1738  0.0310
 4817TIP3    H238647   2.192   7.348   9.314 -0.8561 -1.3479  1.0430
 4818TIP3   OH238648   1.129   1.443   7.007 -0.3973 -0.0224 -0.2773
 4818TIP3    H138649   1.207   1.454   7.060 -0.5685 -0.8652  0.1679
 4818TIP3    H238650   1.097   1.532   6.992 -1.4016  0.2231  2.6250
 4819TIP3   OH238651   2.211   6.758   7.421 -0.5383 -0.3364 -0.4324
 4819TIP3    H138652   2.239   6.667   7.432  0.0798 -0.0891  0.1411
 4819TIP3    H238653   2.167   6.779   7.504  2.3835  0.9288  0.9683
 4820TIP3   OH238654   2.857   6.631   8.676  0.2233 -0.5856  0.0662
 4820TIP3    H138655   2.912   6.565   8.718  1.7112  0.4910 -0.0939
 4820TIP3    H238656   2.805   6.582   8.613  0.2110 -1.7978  0.9761
 4821TIP3   OH238657   3.359   6.325   8.799  0.0434 -0.0659  0.2079
 4821TIP3    H138658   3.405   6.398   8.842 -0.1524  0.2341 -0.0891
 4821TIP3    H238659   3.322   6.363   8.720  1.4920 -0.8994 -0.9332
 4822TIP3   OH238660   3.662   4.704   9.295  0.4029  0.2444 -0.0449
 4822TIP3    H138661   3.582   4.756   9.291  1.0951  1.2948 -0.9138
 4822TIP3    H238662   3.720   4.753   9.353  1.1162  0.5494 -0.9858
 4823TIP3   OH238663   6.890   6.804   7.239  0.2859  0.3550 -0.4299
 4823TIP3    H138664   6.878   6.891   7.202 -0.9372  0.2214 -0.3870
 4823TIP3    H238665   6.810   6.757   7.217  1.6267 -1.3575 -2.0382
 4824TIP3   OH238666   0.121   1.737   7.892 -0.4901  0.6572  0.2709
 4824TIP3    H138667   0.080   1.660   7.931 -0.1526  0.4003  0.1245
 4824TIP3    H238668   0.212   1.711   7.878 -0.2888  1.1982  0.5311
 4825TIP3   OH238669   4.783   7.266   9.011 -0.3211  0.1609  0.4643
 4825TIP3    H138670   4.803   7.272   9.105  1.5513  0.9237  0.0773
 4825TIP3    H238671   4.713   7.330   8.997 -0.3822  0.2840  1.2813
 4826TIP3   OH238672   3.796   2.215   7.622 -0.3413  0.2958  0.3114
 4826TIP3    H138673   3.813   2.179   7.709  2.6055  1.3085  0.2695
 4826TIP3    H238674   3.814   2.142   7.562  0.7889  0.4487  0.4447
 4827TIP3   OH238675   0.091   6.182   8.532 -0.0061 -0.3705  0.1098
 4827TIP3    H138676   0.083   6.174   8.437  2.4507  0.3461 -0.2167
 4827TIP3    H238677   0.114   6.274   8.546 -1.1976 -0.2509  1.4992
 4828TIP3   OH238678   0.771   7.485   8.087 -0.1627  0.1973  0.1372
 4828TIP3    H138679   0.771   7.400   8.132  1.5990  0.1503  0.1093
 4828TIP3    H238680   0.774   7.463   7.994 -0.4116  0.3048  0.1012
 4829TIP3   OH238681   1.809   1.356   7.403  0.1016 -0.1859 -0.2086
 4829TIP3    H138682   1.763   1.425   7.450  1.9101  0.5242  0.6446
 4829TIP3    H238683   1.744   1.319   7.343 -0.4885  3.6428 -2.2596
 4830TIP3   OH238684   2.756   2.105   9.108  0.0075  0.3574 -0.2116
 4830TIP3    H138685   2.825   2.163   9.076  0.4728  0.0689  0.2610
 4830TIP3    H238686   2.801   2.043   9.165 -0.9718  1.7905  2.2760
 4831TIP3   OH238687   4.991   0.348   9.630 -0.4576  0.0849  0.2090
 4831TIP3    H138688   4.927   0.278   9.618  2.2730 -2.4047 -0.7186
 4831TIP3    H238689   5.031   0.360   9.545  1.4888  0.3452  1.1050
 4832TIP3   OH238690   2.336   4.652   8.879 -0.1791  0.0656  0.4546
 4832TIP3    H138691   2.272   4.720   8.861  1.1739  1.0517 -0.9769
 4832TIP3    H238692   2.374   4.632   8.793  0.4165 -1.5208  1.0525
 4833TIP3   OH238693   7.341   6.369   7.429  0.1812  0.0451  0.4820
 4833TIP3    H138694   7.330   6.328   7.343  0.0773  0.3366  0.3553
 4833TIP3    H238695   7.429   6.406   7.427 -0.6833  2.2580 -0.4596
 4834TIP3   OH238696   2.737   7.621   7.745  0.7807 -0.4858  0.3376
 4834TIP3    H138697   2.700   7.532   7.745  1.4983 -0.8331 -1.4300
 4834TIP3    H238698   2.822   7.611   7.702  0.9028  1.0427  0.1851
 4835TIP3   OH238699   7.366   6.105   9.010  0.5270  0.2445  0.1262
 4835TIP3    H138700   7.355   6.111   8.915  0.2779  1.1987  0.1953
 4835TIP3    H238701   7.430   6.173   9.031  0.6834 -0.0545  0.6204
 4836TIP3   OH238702   2.555   4.256   8.885  0.0410  0.6989  0.4545
 4836TIP3    H138703   2.482   4.314   8.906 -0.6655  0.1426 -0.4334
 4836TIP3    H238704   2.601   4.245   8.969 -0.4975  1.5798  0.8809
 4837TIP3   OH238705   5.403   4.011   7.868 -0.1210  0.1847 -0.4685
 4837TIP3    H138706   5.322   4.006   7.818 -1.4718 -0.2790  1.6257
 4837TIP3    H238707   5.386   3.959   7.947  1.9281  0.7607  0.4340
 4838TIP3   OH238708   3.157   5.460   6.876  0.3387 -0.2790  0.3676
 4838TIP3    H138709   3.174   5.495   6.789  1.5028  1.5121  1.2681
 4838TIP3    H238710   3.149   5.366   6.863  0.4162 -0.0396 -1.6649
 4839TIP3   OH238711   3.167   3.060   8.256 -0.0487 -0.1819 -0.3545
 4839TIP3    H138712   3.105   3.078   8.186 -0.9809 -0.8422  0.2718
 4839TIP3    H238713   3.133   2.981   8.298 -1.3192  1.8345  2.7995
 4840TIP3   OH238714   6.090   6.120   6.549  0.0784  0.3497  0.3187
 4840TIP3    H138715   6.153   6.189   6.528  0.7458 -0.2856  0.1718
 4840TIP3    H238716   6.121   6.085   6.633  0.2294 -0.3115 -0.0093
 4841TIP3   OH238717   4.834   5.474   8.878 -0.1243 -0.0079 -0.5454
 4841TIP3    H138718   4.848   5.386   8.844 -0.7451  0.0970 -1.0984
 4841TIP3    H238719   4.868   5.532   8.810  1.0467  0.1830  0.1802
 4842TIP3   OH238720   6.312   1.321   6.968 -0.6496 -0.2329  0.0403
 4842TIP3    H138721   6.220   1.300   6.984 -0.0718 -0.7192  3.2715
 4842TIP3    H238722   6.349   1.241   6.931 -1.2543 -0.4335 -0.1492
 4843TIP3   OH238723   5.012   2.141   8.721 -0.2186 -0.0654 -0.0182
 4843TIP3    H138724   5.024   2.046   8.715 -0.0194 -0.0363 -0.1063
 4843TIP3    H238725   5.002   2.158   8.814 -0.3201 -0.1812 -0.0083
 4844TIP3   OH238726   6.161   4.184   8.150 -0.3837 -0.1732 -0.1925
 4844TIP3    H138727   6.240   4.130   8.155 -0.2396  0.1047  0.6521
 4844TIP3    H238728   6.183   4.252   8.086  0.2673  0.2320  0.4539
 4845TIP3   OH238729   5.968   6.317   7.936 -0.0002 -0.3518 -0.2132
 4845TIP3    H138730   5.900   6.259   7.969  0.3394 -1.5087 -1.4722
 4845TIP3    H238731   5.924   6.371   7.870  0.0664 -0.3491 -0.2554
 4846TIP3   OH238732   3.004   2.794   7.441 -0.2861  0.2272  0.1199
 4846TIP3    H138733   2.937   2.857   7.465 -0.8433 -0.0975 -0.5330
 4846TIP3    H238734   2.956   2.722   7.399  0.1342 -1.4326  2.3235
 4847TIP3   OH238735   3.653   4.150   8.412 -0.3765  0.0251 -0.5271
 4847TIP3    H138736   3.600   4.216   8.367  0.0030  1.6067  1.1911
 4847TIP3    H238737   3.600   4.122   8.486  0.2121 -0.1654 -0.1659
 4848TIP3   OH238738   0.759   2.660   8.310  0.0798  0.0964 -0.4952
 4848TIP3    H138739   0.680   2.634   8.357 -0.9288 -0.7375 -2.5217
 4848TIP3    H238740   0.739   2.747   8.276 -0.5986 -0.6917 -2.2218
 4849TIP3   OH238741   3.172   2.687   9.886  0.4718 -0.4067 -0.6073
 4849TIP3    H138742   3.142   2.759   9.943  0.3412 -0.5580 -0.4846
 4849TIP3    H238743   3.151   2.716   9.798 -0.9569 -0.9466 -0.4633
 4850TIP3   OH238744   5.585   5.602   7.766 -0.4742 -0.1098  0.0071
 4850TIP3    H138745   5.507   5.602   7.822 -1.0828  1.0819 -0.8036
 4850TIP3    H238746   5.594   5.692   7.736  2.4022  0.2379  1.6130
 4851TIP3   OH238747   6.383   5.033   9.063  0.2487 -0.0903 -0.4347
 4851TIP3    H138748   6.362   5.117   9.022 -1.7014  0.0271  0.6863
 4851TIP3    H238749   6.329   4.970   9.015 -1.3197 -0.0849  1.1921
 4852TIP3   OH238750   6.685   1.894   8.981  0.0136 -0.2817 -0.5219
 4852TIP3    H138751   6.708   1.975   9.025  1.0105 -0.6926 -0.2541
 4852TIP3    H238752   6.761   1.874   8.926 -1.0571  0.0529 -2.2345
 4853TIP3   OH238753   2.979   1.122   8.918  0.0993 -0.3196  0.0039
 4853TIP3    H138754   2.908   1.184   8.903  0.3658  0.1299  0.5656
 4853TIP3    H238755   3.053   1.176   8.946  0.1022 -0.9509  1.2836
 4854TIP3   OH238756   5.441   1.215   9.489 -0.4414 -0.2875  0.6673
 4854TIP3    H138757   5.498   1.281   9.530 -2.1447  0.1901  2.4301
 4854TIP3    H238758   5.465   1.217   9.397  1.7920  0.4862  1.1974
 4855TIP3   OH238759   0.102   4.366   9.452 -0.9442  0.0225 -0.0661
 4855TIP3    H138760   0.147   4.450   9.461 -1.0762  0.0965 -0.0963
 4855TIP3    H238761   0.138   4.312   9.522  0.5807 -0.5424 -1.2331
 4856TIP3   OH238762   6.350   1.213   8.059  0.0200 -0.2415  0.1850
 4856TIP3    H138763   6.370   1.238   8.150 -1.1212 -2.1975  1.0184
 4856TIP3    H238764   6.258   1.190   8.060 -0.5771  1.7200 -2.0003
 4857TIP3   OH238765   3.334   4.495   9.279 -0.4357  0.6009 -0.4089
 4857TIP3    H138766   3.316   4.589   9.290 -0.4354  0.5766 -0.2001
 4857TIP3    H238767   3.324   4.458   9.367 -0.5734  0.3815 -0.5149
 4858TIP3   OH238768   0.418   2.845   8.452  0.0850 -0.1868  0.7082
 4858TIP3    H138769   0.367   2.892   8.386  1.0870  2.1314  1.5024
 4858TIP3    H238770   0.367   2.855   8.533  0.6989  0.1945  1.0459
 4859TIP3   OH238771   3.738   7.566   8.969 -0.0799 -0.1816 -0.1743
 4859TIP3    H138772   3.740   7.654   9.007  1.8316 -0.4237  0.4092
 4859TIP3    H238773   3.798   7.515   9.024 -1.4444 -1.9730 -0.2575
 4860TIP3   OH238774   6.518   1.139   7.203 -0.2994  0.6616  0.1384
 4860TIP3    H138775   6.572   1.132   7.282 -0.5191 -1.1166  0.1818
 4860TIP3    H238776   6.576   1.109   7.133 -0.9718 -0.5863  0.0845
 4861TIP3   OH238777   4.214   7.011   8.524  0.4785 -0.0022 -0.3938
 4861TIP3    H138778   4.156   7.074   8.568  1.7458  1.3336 -0.5432
 4861TIP3    H238779   4.189   6.926   8.559 -1.8093  0.4681 -0.7343
 4862TIP3   OH238780   3.849   0.596   7.774  0.3819 -0.4697  0.8305
 4862TIP3    H138781   3.829   0.535   7.845  1.3462  1.2116  2.6463
 4862TIP3    H238782   3.934   0.568   7.741  0.7855 -0.1853  1.6039
 4863TIP3   OH238783   5.411   0.869   7.896 -0.4651  0.5531 -0.2940
 4863TIP3    H138784   5.396   0.874   7.802 -2.7839  0.6355  0.0273
 4863TIP3    H238785   5.452   0.783   7.909 -2.3228 -0.5172 -1.1662
 4864TIP3   OH238786   6.225   4.420   8.018  0.1573 -0.3766 -0.4868
 4864TIP3    H138787   6.179   4.502   8.003 -0.7000 -0.2699  2.2500
 4864TIP3    H238788   6.302   4.445   8.070  0.2462 -1.2424 -0.1855
 4865TIP3   OH238789   6.303   7.365   8.885 -0.4471 -0.0807 -0.0453
 4865TIP3    H138790   6.215   7.353   8.848 -0.3389  2.1411 -1.1623
 4865TIP3    H238791   6.300   7.452   8.925  1.4204  0.2955 -0.6608
 4866TIP3   OH238792   5.908   2.810   8.127 -0.3745  0.0594  0.3176
 4866TIP3    H138793   5.867   2.868   8.192 -0.8148  0.3469 -0.2087
 4866TIP3    H238794   6.001   2.832   8.132 -0.7440  2.4223 -1.3718
 4867TIP3   OH238795   4.400   1.207   9.260  0.0410  0.2539  0.5013
 4867TIP3    H138796   4.457   1.152   9.207  1.5396  0.8669  1.4362
 4867TIP3    H238797   4.456   1.277   9.292 -1.4187  1.3288  0.8202
 4868TIP3   OH238798   0.038   0.843   7.262  0.1947 -0.0475  0.5854
 4868TIP3    H138799   0.037   0.883   7.176  0.5389 -0.7161  0.2645
 4868TIP3    H238800  -0.054   0.828   7.283  0.0988 -4.0692 -1.6713
 4869TIP3   OH238801   0.009   3.371   6.935  0.4562 -0.4659 -0.0299
 4869TIP3    H138802   0.077   3.304   6.933 -0.4858 -1.4772  0.6956
 4869TIP3    H238803  -0.065   3.331   6.891 -0.1494  0.0687  0.4839
 4870TIP3   OH238804   5.626   7.278   7.457 -0.2730 -0.3766  0.1287
 4870TIP3    H138805   5.604   7.322   7.375  3.5356 -0.2513 -1.0396
 4870TIP3    H238806   5.638   7.186   7.433  1.0992 -0.2971  0.3943
 4871TIP3   OH238807   6.088   2.427   8.272  0.2574 -0.1427  0.9682
 4871TIP3    H138808   6.041   2.352   8.236  0.6250  0.3744 -0.7066
 4871TIP3    H238809   6.028   2.464   8.337 -1.9221  0.6940 -1.3238
 4872TIP3   OH238810   2.430   4.138   6.915  0.2565 -0.2488  0.1912
 4872TIP3    H138811   2.422   4.058   6.862 -2.4849 -0.0141  0.0642
 4872TIP3    H238812   2.360   4.195   6.883  1.2972  1.6965  1.1732
 4873TIP3   OH238813   5.176   5.797   8.333 -0.4220 -0.6730  0.7128
 4873TIP3    H138814   5.175   5.852   8.255  1.3300 -1.2958  0.1937
 4873TIP3    H238815   5.138   5.851   8.402  1.8036  1.4638  0.3818
 4874TIP3   OH238816   7.196   5.450   7.472  0.1659  0.2541 -0.0137
 4874TIP3    H138817   7.163   5.534   7.505 -0.7436  0.5668 -1.5984
 4874TIP3    H238818   7.284   5.443   7.509  0.1873  1.8156  0.3188
 4875TIP3   OH238819   4.273   4.515   8.720  0.2103  0.1634  0.5853
 4875TIP3    H138820   4.306   4.430   8.749  1.1024  0.0488 -0.7004
 4875TIP3    H238821   4.254   4.503   8.627  1.0967  1.5663  0.1937
 4876TIP3   OH238822   4.708   3.107   8.697 -0.8387  0.2611  0.1665
 4876TIP3    H138823   4.768   3.033   8.692 -2.8382 -1.3908 -0.7897
 4876TIP3    H238824   4.740   3.169   8.631  2.5112  1.7308  2.8256
 4877TIP3   OH238825   2.726   6.494   9.443 -0.3940  0.0110  0.0432
 4877TIP3    H138826   2.762   6.424   9.387 -0.3165  0.4730 -0.4965
 4877TIP3    H238827   2.668   6.448   9.503 -1.2514 -0.4032 -1.0567
 4878TIP3   OH238828   7.667   1.839   9.298 -0.5368 -0.4325 -0.6034
 4878TIP3    H138829   7.618   1.759   9.317 -1.5156  0.5566  1.3323
 4878TIP3    H238830   7.756   1.820   9.328 -1.1289 -0.3154  1.4170
 4879TIP3   OH238831   2.418   1.591   8.395  0.2492 -0.2098  0.8761
 4879TIP3    H138832   2.338   1.578   8.344  0.3264 -0.3227  0.7811
 4879TIP3    H238833   2.467   1.509   8.383  0.7656  0.1827  0.2372
 4880TIP3   OH238834   3.510   1.270   9.441  0.3824  0.1385  0.1117
 4880TIP3    H138835   3.594   1.309   9.419  0.3012  0.4461  0.3401
 4880TIP3    H238836   3.466   1.336   9.494 -0.1438  0.1201 -0.2957
 4881TIP3   OH238837   0.861   0.251   7.415 -0.4072  0.0691 -0.1281
 4881TIP3    H138838   0.841   0.198   7.339  0.1715  0.4331 -0.5459
 4881TIP3    H238839   0.935   0.206   7.457  0.7126  1.0050 -1.0065
 4882TIP3   OH238840   1.590   7.518   8.901 -0.1518 -0.2770  0.5964
 4882TIP3    H138841   1.553   7.592   8.854  0.7271 -1.4549 -2.1188
 4882TIP3    H238842   1.603   7.451   8.835  4.9592 -0.6595  1.5854
 4883TIP3   OH238843   5.477   7.492   8.931 -0.3504 -0.2895  0.1609
 4883TIP3    H138844   5.465   7.498   8.836  0.9230  0.3626  0.0350
 4883TIP3    H238845   5.497   7.399   8.946 -0.5868 -0.4024 -0.1896
 4884TIP3   OH238846   6.855   2.356   9.122 -0.1268  0.0072 -0.4347
 4884TIP3    H138847   6.892   2.279   9.165 -0.1224  0.1923 -0.1079
 4884TIP3    H238848   6.767   2.364   9.159  0.9603  2.0607  2.0140
 4885TIP3   OH238849   3.435   5.557   7.656  0.2157  0.1752 -0.4902
 4885TIP3    H138850   3.492   5.596   7.590  3.4603 -1.2131  1.2629
 4885TIP3    H238851   3.469   5.590   7.740 -0.2074 -2.2733  0.7398
 4886TIP3   OH238852   0.906   6.866   8.337 -0.3757  0.1564  0.0771
 4886TIP3    H138853   0.823   6.818   8.333 -0.4631  0.3682 -1.0138
 4886TIP3    H238854   0.907   6.905   8.424 -0.7086 -1.0967  0.6697
 4887TIP3   OH238855   2.167   6.321   8.010 -0.1402 -0.1648  0.8206
 4887TIP3    H138856   2.118   6.382   7.955 -0.8663 -0.6530  0.9263
 4887TIP3    H238857   2.124   6.325   8.095 -2.1607 -3.0391  0.0796
 4888TIP3   OH238858   0.455   7.106   8.374 -0.4495  0.1617  0.0538
 4888TIP3    H138859   0.378   7.080   8.424  0.8003 -0.9611  1.4801
 4888TIP3    H238860   0.468   7.198   8.398 -0.3967 -0.1061  1.1018
 4889TIP3   OH238861   4.103   5.185   7.598  0.1456  0.3106 -0.3673
 4889TIP3    H138862   4.044   5.258   7.581  0.7277  0.1192 -4.1355
 4889TIP3    H238863   4.052   5.106   7.576  0.3962 -0.2121  0.8691
 4890TIP3   OH238864   4.111   6.838   7.409  0.1411  0.0024  0.8316
 4890TIP3    H138865   4.128   6.743   7.413 -0.7954 -0.2850 -1.0175
 4890TIP3    H238866   4.042   6.847   7.343  3.0098  2.2780 -2.1879
 4891TIP3   OH238867   1.596   2.108   7.703  0.2887  0.0895  0.7718
 4891TIP3    H138868   1.610   2.153   7.786 -0.5864  1.4477  0.2147
 4891TIP3    H238869   1.503   2.121   7.685  0.4482 -0.2822 -0.3832
 4892TIP3   OH238870   0.335   7.485   8.435  0.0686  0.6484  0.4837
 4892TIP3    H138871   0.327   7.474   8.340 -0.9391  1.4755  0.4612
 4892TIP3    H238872   0.246   7.484   8.468  0.4617 -0.9858  1.6192
 4893TIP3   OH238873   4.249   3.076   8.557 -0.1673  0.1491 -0.3020
 4893TIP3    H138874   4.218   3.060   8.468 -0.7370  2.9693 -0.7229
 4893TIP3    H238875   4.339   3.105   8.546  0.4442 -1.4361  0.2845
 4894TIP3   OH238876   4.522   7.456   8.638 -0.0130  0.2302  0.7836
 4894TIP3    H138877   4.582   7.525   8.611 -1.4824  0.7833 -1.3063
 4894TIP3    H238878   4.435   7.489   8.615 -1.0820 -0.9140  2.8837
 4895TIP3   OH238879   2.478   5.381   9.495 -0.2126  0.0317 -0.2312
 4895TIP3    H138880   2.537   5.309   9.516 -1.4661 -1.0801 -0.4005
 4895TIP3    H238881   2.537   5.453   9.470  1.1099 -0.4715  1.2552
 4896TIP3   OH238882   0.952   4.455   6.594 -0.3040 -0.1720  0.4226
 4896TIP3    H138883   1.038   4.436   6.631  0.9688 -1.2229 -2.7894
 4896TIP3    H238884   0.912   4.370   6.579 -0.7615  0.2036 -0.5890
 4897TIP3   OH238885   7.227   1.893   7.807  0.4182  0.0035 -0.0274
 4897TIP3    H138886   7.311   1.851   7.823  0.0325 -1.5221 -1.6411
 4897TIP3    H238887   7.245   1.987   7.813  2.1051 -0.3138  0.1801
 4898TIP3   OH238888   2.029   2.405   9.365 -0.2801 -0.1579 -0.2908
 4898TIP3    H138889   2.025   2.454   9.282 -0.6924  1.7670  0.8038
 4898TIP3    H238890   1.941   2.413   9.402  0.4996  1.1447  1.4399
 4899TIP3   OH238891   3.855   7.326   7.234 -0.4584 -0.1798 -0.7243
 4899TIP3    H138892   3.899   7.395   7.284  0.1276 -0.8260 -0.3297
 4899TIP3    H238893   3.874   7.346   7.143 -1.3312  0.8738 -0.6932
 4900TIP3   OH238894   1.137   4.772   6.854  0.4945 -0.2231  0.0983
 4900TIP3    H138895   1.115   4.784   6.762 -1.0028  1.4875  0.6341
 4900TIP3    H238896   1.159   4.679   6.861 -0.4993 -0.6442 -1.7505
 4901TIP3   OH238897   5.136   0.330   7.483  0.1103  0.0675  0.3761
 4901TIP3    H138898   5.074   0.355   7.415  0.4859 -0.1715 -0.0571
 4901TIP3    H238899   5.122   0.394   7.553  0.8095  1.2991 -0.5705
 4902TIP3   OH238900   0.230   4.947   8.528 -0.0525 -0.1898  0.1987
 4902TIP3    H138901   0.140   4.919   8.514  0.0236 -0.3938  0.1092
 4902TIP3    H238902   0.246   4.933   8.621  0.1161 -0.8410  0.0780
 4903TIP3   OH238903   7.629   2.505   7.072  0.4057 -0.1198 -0.0018
 4903TIP3    H138904   7.706   2.557   7.095  1.9965 -1.4642 -1.8551
 4903TIP3    H238905   7.557   2.568   7.066  1.6328  1.3893  0.5095
 4904TIP3   OH238906   5.600   4.475   7.712  0.5764 -0.1221 -0.6123
 4904TIP3    H138907   5.618   4.386   7.682 -1.5582 -1.0536  0.6273
 4904TIP3    H238908   5.547   4.513   7.642 -1.3511 -1.0486  0.2659
 4905TIP3   OH238909   1.144   0.625   8.114  0.7760 -0.1804 -0.0320
 4905TIP3    H138910   1.053   0.604   8.134  1.0853 -1.9700 -0.3583
 4905TIP3    H238911   1.193   0.602   8.194  0.7853  2.4051  0.7950
 4906TIP3   OH238912   6.845   5.756   9.558 -0.3512 -0.8709 -0.3667
 4906TIP3    H138913   6.850   5.835   9.505  0.5343 -0.2963  0.5396
 4906TIP3    H238914   6.786   5.778   9.629 -1.0847 -1.4480 -0.7870
 4907TIP3   OH238915   1.324   4.034   8.760 -0.5042  0.6321  0.1648
 4907TIP3    H138916   1.396   4.089   8.789  0.2941  0.6305 -1.6819
 4907TIP3    H238917   1.249   4.062   8.813  0.4842  1.7007  1.0314
 4908TIP3   OH238918   7.604   2.280   7.346  0.6846  0.9127  0.5469
 4908TIP3    H138919   7.515   2.275   7.310 -0.2678  1.9620  2.6407
 4908TIP3    H238920   7.635   2.189   7.343 -2.0209 -0.2817  3.4563
 4909TIP3   OH238921   0.643   2.723   9.485  0.0562 -0.2176 -0.5316
 4909TIP3    H138922   0.556   2.719   9.524 -1.4944  0.3608 -3.5749
 4909TIP3    H238923   0.657   2.816   9.467  2.4418  0.0183  2.0299
 4910TIP3   OH238924   6.312   0.859   6.773 -0.2762  0.0372  0.3053
 4910TIP3    H138925   6.289   0.815   6.856  0.2969  0.9429  0.9589
 4910TIP3    H238926   6.232   0.904   6.748 -0.0389  0.9784  1.1658
 4911TIP3   OH238927   6.479   4.406   7.380 -0.0026 -0.2760 -0.0812
 4911TIP3    H138928   6.519   4.351   7.312 -1.8049  0.0250 -1.4517
 4911TIP3    H238929   6.429   4.344   7.434 -0.6169 -0.1986 -0.5624
 4912TIP3   OH238930   3.738   6.853   6.745 -0.8174 -0.5889 -0.7096
 4912TIP3    H138931   3.659   6.883   6.790 -0.2986  0.2324 -0.3284
 4912TIP3    H238932   3.785   6.933   6.722  0.3143 -1.0723 -0.1790
 4913TIP3   OH238933   1.392   5.627   6.999 -0.0151 -0.3965  0.3590
 4913TIP3    H138934   1.325   5.565   7.028  0.6644 -1.2422  0.1372
 4913TIP3    H238935   1.443   5.579   6.934  0.3731  0.4767  0.0046
 4914TIP3   OH238936   2.836   1.927   7.734  0.0837 -0.3908 -0.2815
 4914TIP3    H138937   2.742   1.920   7.750  0.0884 -1.6567 -0.7091
 4914TIP3    H238938   2.875   1.930   7.821 -0.3426  0.0452 -0.1025
 4915TIP3   OH238939   2.248   5.024   9.087  0.1187 -0.7614  0.1521
 4915TIP3    H138940   2.245   5.119   9.096  0.0228 -0.8035  0.6047
 4915TIP3    H238941   2.162   4.995   9.118 -1.5300 -0.7137 -3.8478
 4916TIP3   OH238942   1.283   7.442   9.556 -0.0481 -0.0421 -0.2596
 4916TIP3    H138943   1.260   7.535   9.552 -0.8326 -0.2555 -1.4099
 4916TIP3    H238944   1.201   7.396   9.540  0.9659 -0.8481 -4.3403
 4917TIP3   OH238945   0.855   0.603   8.219  0.0627 -0.0774  0.3173
 4917TIP3    H138946   0.835   0.573   8.308 -1.0153  1.4186  0.6260
 4917TIP3    H238947   0.868   0.698   8.229  0.1445  0.0740 -1.0793
 4918TIP3   OH238948   3.837   2.176   7.887  0.0789  0.5113  0.3090
 4918TIP3    H138949   3.784   2.162   7.965  1.1099  1.5737  1.2501
 4918TIP3    H238950   3.871   2.090   7.865 -2.0300 -0.2029 -0.3592
 4919TIP3   OH238951   5.025   4.636   9.025 -0.0479 -0.5161  0.1941
 4919TIP3    H138952   5.042   4.727   9.048 -1.0462 -0.6290  1.4758
 4919TIP3    H238953   5.099   4.588   9.063 -0.7285 -0.4815  1.6485
 4920TIP3   OH238954   3.683   1.720   9.486 -0.2105  0.2893 -0.3647
 4920TIP3    H138955   3.662   1.789   9.422 -1.2435  0.0810 -0.2699
 4920TIP3    H238956   3.722   1.767   9.560 -0.8155  0.7720 -0.3420
 4921TIP3   OH238957   4.369   3.560   8.592  0.0905 -0.0426  0.6728
 4921TIP3    H138958   4.389   3.544   8.684  0.0054 -1.1849  0.5156
 4921TIP3    H238959   4.448   3.533   8.545 -0.5836 -1.4381  0.2847
 4922TIP3   OH238960   5.654   3.789   8.846  0.2674 -0.0232  0.1043
 4922TIP3    H138961   5.563   3.761   8.835  0.3119 -0.5139  0.9027
 4922TIP3    H238962   5.678   3.761   8.935  1.4135 -0.5221 -0.3362
 4923TIP3   OH238963   6.448   1.784   8.659  0.1528 -0.9776  0.0465
 4923TIP3    H138964   6.455   1.814   8.750 -1.7363  0.1397 -0.1254
 4923TIP3    H238965   6.478   1.693   8.662 -0.3285 -1.1276  1.9036
 4924TIP3   OH238966   3.063   2.101   9.616 -0.4635 -0.0307 -0.2971
 4924TIP3    H138967   3.136   2.159   9.639 -0.5778 -0.1996  0.5296
 4924TIP3    H238968   3.095   2.014   9.639 -0.2444 -0.3192 -1.6546
 4925TIP3   OH238969   4.820   7.495   8.517 -0.5157 -0.0521 -0.2489
 4925TIP3    H138970   4.875   7.482   8.440 -0.6615 -0.6803 -0.2580
 4925TIP3    H238971   4.840   7.583   8.547 -0.9885  0.4690 -1.4308
 4926TIP3   OH238972   3.342   2.469   9.867 -0.0471  0.1353  0.4760
 4926TIP3    H138973   3.279   2.537   9.888 -0.5163 -0.5119  1.2450
 4926TIP3    H238974   3.416   2.515   9.828  0.6833  1.4193  3.1001
 4927TIP3   OH238975   0.205   6.327   7.416  0.0192  0.3689  0.2487
 4927TIP3    H138976   0.198   6.320   7.511  0.5072  0.6967  0.3127
 4927TIP3    H238977   0.297   6.351   7.400  0.1122 -0.3336 -0.3396
 4928TIP3   OH238978   7.317   1.973   6.907 -0.4733  0.1341 -0.5292
 4928TIP3    H138979   7.269   1.960   6.989  0.1784  0.5709 -0.0654
 4928TIP3    H238980   7.337   1.884   6.877  1.2880 -0.0507  1.0106
 4929TIP3   OH238981   6.500   2.047   9.244  0.0813 -0.3268  0.1271
 4929TIP3    H138982   6.437   2.055   9.316 -0.5753  0.5228 -0.5190
 4929TIP3    H238983   6.447   2.051   9.165  0.8140 -1.0542 -0.4164
 4930TIP3   OH238984   6.608   3.521   8.406  0.2170  0.0650  0.0674
 4930TIP3    H138985   6.667   3.528   8.480 -0.2045 -0.8172  0.5033
 4930TIP3    H238986   6.529   3.567   8.433  0.6673  1.2181 -0.5034
 4931TIP3   OH238987   6.224   3.665   8.080 -0.0992 -0.1046  0.4387
 4931TIP3    H138988   6.215   3.573   8.106 -0.2941  0.2742  1.7989
 4931TIP3    H238989   6.318   3.675   8.062 -0.2327 -0.8070 -0.7178
 4932TIP3   OH238990   0.709   6.839   7.188 -0.0416  0.4612 -0.0352
 4932TIP3    H138991   0.672   6.751   7.188  0.7624  0.1072 -0.7400
 4932TIP3    H238992   0.637   6.896   7.159 -0.1684 -0.1467 -0.9304
 4933TIP3   OH238993   7.109   0.476   8.301  0.2373 -0.0862 -0.2793
 4933TIP3    H138994   7.126   0.559   8.346  1.0005  0.2065 -1.0791
 4933TIP3    H238995   7.060   0.424   8.365  0.5978  0.6111  0.5919
 4934TIP3   OH238996   5.948   5.219   7.538 -0.5206  0.3296 -0.3549
 4934TIP3    H138997   5.900   5.295   7.573 -0.6693 -0.0843  0.3610
 4934TIP3    H238998   5.879   5.157   7.513 -0.3737 -0.2308  0.5908
 4935TIP3   OH238999   4.974   5.151   6.791  0.3339 -0.5380  0.6718
 4935TIP3    H139000   5.010   5.095   6.859  0.9172 -2.6591 -1.2370
 4935TIP3    H239001   5.044   5.156   6.725 -1.3595 -1.4922 -1.3218
 4936TIP3   OH239002   0.499   1.412   9.587  0.1201  0.5094 -0.3843
 4936TIP3    H139003   0.442   1.381   9.516 -0.8604  0.6924  0.2963
 4936TIP3    H239004   0.438   1.438   9.656  1.0305  1.2532  0.1526
 4937TIP3   OH239005   2.060   6.468   7.754 -0.0559 -0.5354  0.1649
 4937TIP3    H139006   2.132   6.477   7.691 -1.2766  0.1854 -1.1927
 4937TIP3    H239007   2.003   6.402   7.716 -0.8722 -0.0083  0.4438
 4938TIP3   OH239008   2.959   4.398   9.601 -0.0488  0.4969 -0.4946
 4938TIP3    H139009   3.015   4.370   9.529 -0.1663  1.9617 -1.1899
 4938TIP3    H239010   2.960   4.493   9.596 -1.4849  0.5819  0.3439
 4939TIP3   OH239011   7.341   6.915   8.827 -0.7313 -0.1373 -0.2899
 4939TIP3    H139012   7.305   6.828   8.812 -0.4258 -0.5384  1.1417
 4939TIP3    H239013   7.265   6.968   8.851 -0.9006 -0.0358 -1.0457
 4940TIP3   OH239014   4.287   1.443   6.826  0.3250 -0.0863  0.3780
 4940TIP3    H139015   4.216   1.486   6.779  0.1085  1.3756  1.9394
 4940TIP3    H239016   4.246   1.369   6.870 -0.1619  0.4912  0.9127
 4941TIP3   OH239017   1.936   7.427   7.607 -0.0921 -0.7447  0.3139
 4941TIP3    H139018   1.847   7.404   7.580  1.1082 -2.2173 -2.8893
 4941TIP3    H239019   1.987   7.347   7.594  2.0306  0.4844  0.4908
 4942TIP3   OH239020   1.577   2.240   8.009 -0.2182 -0.0866 -0.4140
 4942TIP3    H139021   1.516   2.298   7.963 -0.3801  0.6303  0.6530
 4942TIP3    H239022   1.646   2.298   8.039  1.2533 -0.9499 -1.9509
 4943TIP3   OH239023   4.983   5.497   6.877 -0.0609  0.1165  0.7669
 4943TIP3    H139024   4.905   5.531   6.834  0.8072  0.5672 -0.5053
 4943TIP3    H239025   5.056   5.524   6.820  1.1324  0.6050  2.4329
 4944TIP3   OH239026   3.147   0.481   8.206 -0.3420 -0.0994  0.0555
 4944TIP3    H139027   3.089   0.493   8.282 -0.7912  0.3075 -0.3467
 4944TIP3    H239028   3.087   0.469   8.132  0.0627  1.4704 -0.5542
 4945TIP3   OH239029   5.330   4.424   7.296 -0.3110 -0.3579 -0.3549
 4945TIP3    H139030   5.256   4.445   7.238 -0.8847  1.1206  0.8492
 4945TIP3    H239031   5.351   4.506   7.340  0.9074 -1.1551  0.6428
 4946TIP3   OH239032   7.341   7.622   8.524  0.5627  0.0497 -0.5430
 4946TIP3    H139033   7.246   7.636   8.535  0.7480 -0.2068  2.0114
 4946TIP3    H239034   7.348   7.536   8.483 -0.4171 -2.5231  3.9402
 4947TIP3   OH239035   0.884   3.564   7.139 -0.5788 -0.5563 -0.5598
 4947TIP3    H139036   0.816   3.496   7.143 -0.6763 -0.4882 -1.0399
 4947TIP3    H239037   0.946   3.533   7.073  0.8311 -1.4896  1.1148
 4948TIP3   OH239038   0.557   7.206   8.059  0.1271  0.2687 -0.2369
 4948TIP3    H139039   0.579   7.251   7.978 -1.6722  0.4485 -0.6793
 4948TIP3    H239040   0.490   7.142   8.034  0.8079 -0.9047  0.8175
 4949TIP3   OH239041   4.817   5.817   9.129  0.2358 -0.1541 -0.1760
 4949TIP3    H139042   4.747   5.756   9.152  0.0746  0.1171  0.0530
 4949TIP3    H239043   4.775   5.884   9.075  0.7745 -1.2665 -2.1043
 4950TIP3   OH239044   3.912   7.377   8.205 -0.1448  0.0398 -0.1914
 4950TIP3    H139045   3.823   7.351   8.183 -0.2135  0.0985  0.0127
 4950TIP3    H239046   3.908   7.400   8.298 -0.0398  0.6000 -0.3226
 4951TIP3   OH239047   2.667   2.680   7.635  0.3700 -0.6838 -0.2645
 4951TIP3    H139048   2.631   2.637   7.558 -0.3557 -2.9511  1.2295
 4951TIP3    H239049   2.745   2.627   7.657  1.0832  0.4675  0.0492
 4952TIP3   OH239050   4.431   7.151   9.163 -0.2948 -0.2701 -0.2883
 4952TIP3    H139051   4.342   7.168   9.194  0.0699 -0.4123  0.8861
 4952TIP3    H239052   4.421   7.137   9.068 -1.6455 -1.2750 -0.0256
 4953TIP3   OH239053   3.152   0.479   8.692  0.1520 -0.4855  0.2156
 4953TIP3    H139054   3.186   0.550   8.638  0.7804 -1.1593 -0.2924
 4953TIP3    H239055   3.149   0.516   8.781 -0.0041  0.3252 -0.1203
 4954TIP3   OH239056   7.001   2.341   8.669  0.1031  0.7682  0.4669
 4954TIP3    H139057   7.055   2.363   8.745  0.4697  1.0972  0.1179
 4954TIP3    H239058   7.063   2.339   8.596  0.0671 -1.1920  0.4304
 4955TIP3   OH239059   3.748   2.380   8.186 -0.2994  0.0901  0.5229
 4955TIP3    H139060   3.759   2.301   8.238  0.9461 -1.3947 -1.8191
 4955TIP3    H239061   3.699   2.351   8.109  1.2849  1.2857 -0.9895
 4956TIP3   OH239062   2.177   0.817   8.625 -0.5766 -0.0276  0.1154
 4956TIP3    H139063   2.195   0.891   8.568 -0.3846 -1.0379 -1.1741
 4956TIP3    H239064   2.114   0.763   8.577 -0.3462 -0.9521  0.8125
 4957TIP3   OH239065   2.244   6.141   8.553  0.0696  0.0247  0.0241
 4957TIP3    H139066   2.150   6.126   8.562 -0.4772  2.7905 -0.3200
 4957TIP3    H239067   2.283   6.056   8.574 -2.4500 -1.1055  0.5940
 4958TIP3   OH239068   6.536   1.308   9.660  0.0692  0.1525 -0.1548
 4958TIP3    H139069   6.480   1.276   9.731  0.8787 -0.8563  0.0641
 4958TIP3    H239070   6.612   1.347   9.705 -0.0372  0.7127 -0.4551
 4959TIP3   OH239071   2.521   5.722   7.756  0.3917 -0.3860 -0.6718
 4959TIP3    H139072   2.527   5.642   7.807 -0.7657  0.6049  1.1049
 4959TIP3    H239073   2.529   5.693   7.665  0.8809 -2.3889 -0.0387
 4960TIP3   OH239074   7.159   2.209   8.304 -0.8434 -0.0187 -0.1540
 4960TIP3    H139075   7.190   2.226   8.215 -0.6298 -0.3946 -0.1578
 4960TIP3    H239076   7.095   2.277   8.321  0.0756  0.8599 -0.1106
 4961TIP3   OH239077   4.889   1.971   7.771 -0.4978 -0.3482 -0.1124
 4961TIP3    H139078   4.947   1.944   7.699 -0.0043  0.3110  0.0314
 4961TIP3    H239079   4.832   1.895   7.785 -0.7077 -0.4363 -1.2986
 4962TIP3   OH239080   6.983   3.766   6.925  0.2578 -0.1142  0.2455
 4962TIP3    H139081   6.978   3.851   6.968 -2.3868 -0.8859  1.7195
 4962TIP3    H239082   6.983   3.703   6.997  0.8128 -1.3949 -0.8323
 4963TIP3   OH239083   6.619   0.308   9.379  0.1803  0.1916 -0.1793
 4963TIP3    H139084   6.545   0.269   9.425  2.4440 -1.6820  2.2589
 4963TIP3    H239085   6.598   0.401   9.373 -2.7392 -0.4042 -0.5341
 4964TIP3   OH239086   7.014   2.672   8.263  0.0589 -0.4684 -0.1162
 4964TIP3    H139087   6.987   2.746   8.319 -0.6654 -1.0529  0.3282
 4964TIP3    H239088   7.018   2.710   8.175 -2.0641 -0.2594 -0.1921
 4965TIP3   OH239089   5.489   1.018   8.120 -0.0806 -0.1080  0.1234
 4965TIP3    H139090   5.462   0.967   8.043 -0.4162 -0.2873  0.3561
 4965TIP3    H239091   5.569   1.063   8.092  0.1359 -0.6418 -0.1348
 4966TIP3   OH239092   6.527   2.659   8.251 -0.1336  0.1334  0.1541
 4966TIP3    H139093   6.431   2.658   8.251 -0.1351 -0.0882  0.7631
 4966TIP3    H239094   6.552   2.576   8.291  0.2707  1.2559  2.3710
 4967TIP3   OH239095   2.050   3.360   7.049 -0.3066 -0.1344  0.1854
 4967TIP3    H139096   1.970   3.373   7.101 -0.2287  2.8594 -0.2594
 4967TIP3    H239097   2.020   3.316   6.970 -1.2726 -0.3520  0.6474
 4968TIP3   OH239098   2.052   5.305   7.627  0.0420  0.3542  0.2106
 4968TIP3    H139099   1.979   5.254   7.662  0.8194 -1.5663 -0.8005
 4968TIP3    H239100   2.029   5.320   7.535  1.4234 -1.3666 -0.4604
 4969TIP3   OH239101   1.590   6.405   8.832  0.0704 -0.0566  0.0565
 4969TIP3    H139102   1.509   6.411   8.883 -0.3906  0.0544 -0.6658
 4969TIP3    H239103   1.580   6.471   8.763  0.2264 -0.8743 -0.7807
 4970TIP3   OH239104   7.437   7.018   8.144 -0.5278 -0.2643 -0.4300
 4970TIP3    H139105   7.347   7.001   8.116 -1.2170 -0.2644  1.6260
 4970TIP3    H239106   7.429   7.087   8.210  1.1501  0.7277 -1.1891
 4971TIP3   OH239107   5.247   1.902   8.554 -0.1570 -0.2925  0.1225
 4971TIP3    H139108   5.173   1.936   8.603 -0.5637 -1.2954  0.2210
 4971TIP3    H239109   5.252   1.810   8.579  0.4159 -0.5060 -0.7502
 4972TIP3   OH239110   0.880   5.834   8.010 -0.6544 -0.2797  0.1454
 4972TIP3    H139111   0.905   5.745   8.035 -0.7133 -1.4114 -3.3707
 4972TIP3    H239112   0.963   5.881   8.003 -0.6606  0.3096  2.7952
 4973TIP3   OH239113   1.317   7.237   6.957  0.1048  0.2057 -0.1527
 4973TIP3    H139114   1.410   7.214   6.964  0.3789  0.6446 -1.8706
 4973TIP3    H239115   1.286   7.189   6.880 -1.6852 -1.6614  1.6094
 4974TIP3   OH239116   2.025   7.472   9.310 -0.0373  0.1780 -0.7382
 4974TIP3    H139117   1.984   7.390   9.283  0.2472  0.1078 -0.9623
 4974TIP3    H239118   1.973   7.540   9.267 -0.4053  0.1249 -0.3774
 4975TIP3   OH239119   0.561   6.550   8.900  0.6089  0.4747  0.3332
 4975TIP3    H139120   0.645   6.593   8.882  0.2132  1.2768  0.4157
 4975TIP3    H239121   0.512   6.612   8.954  0.5049 -0.5796  1.4951
 4976TIP3   OH239122   2.328   5.265   7.605 -0.2794  0.0932  0.0939
 4976TIP3    H139123   2.236   5.289   7.597 -1.3510 -2.0865  3.7668
 4976TIP3    H239124   2.354   5.300   7.691  1.2326 -2.2593  0.6787
 4977TIP3   OH239125   6.188   2.853   8.964  0.0840  0.1079 -0.0026
 4977TIP3    H139126   6.169   2.855   8.870  0.9243 -0.2533 -0.1873
 4977TIP3    H239127   6.245   2.928   8.979  1.7657 -1.0737 -0.2098
 4978TIP3   OH239128   3.054   0.377   7.528 -0.6962 -0.0335 -0.5613
 4978TIP3    H139129   3.137   0.425   7.521 -0.2076 -0.5051  1.3734
 4978TIP3    H239130   2.987   0.441   7.508  0.0924  0.6235 -1.1524
 4979TIP3   OH239131   1.632   2.954   9.260 -0.1802  0.0161 -0.2387
 4979TIP3    H139132   1.581   2.959   9.179  0.1542  0.3324 -0.4297
 4979TIP3    H239133   1.714   2.913   9.234  1.0394  2.5151 -0.6251
 4980TIP3   OH239134   6.016   3.386   7.715 -0.2229 -0.0496  0.7005
 4980TIP3    H139135   6.064   3.304   7.718  1.0471  0.6255 -0.2008
 4980TIP3    H239136   5.976   3.388   7.628 -0.4118  0.1933  0.7897
 4981TIP3   OH239137   2.591   0.353   7.793 -0.4070 -0.5687  0.2988
 4981TIP3    H139138   2.684   0.351   7.816 -0.3421 -0.0141  0.1138
 4981TIP3    H239139   2.582   0.288   7.724  0.4212  1.2792 -1.6728
 4982TIP3   OH239140   7.679   7.654   9.418 -0.6994 -0.7948  0.0255
 4982TIP3    H139141   7.720   7.677   9.501 -2.0124  0.4619  0.3659
 4982TIP3    H239142   7.736   7.587   9.381  1.2638  0.3842  0.7693
 4983TIP3   OH239143   6.265   4.700   8.294  0.6750  0.1968  0.1091
 4983TIP3    H139144   6.338   4.754   8.326  1.5237 -0.7957 -0.0713
 4983TIP3    H239145   6.187   4.741   8.330  1.3313  1.2108  0.4375
 4984TIP3   OH239146   1.500   4.533   7.090  0.0225  0.5547 -0.0784
 4984TIP3    H139147   1.594   4.541   7.101 -0.1038  0.7347  0.9562
 4984TIP3    H239148   1.463   4.578   7.166 -0.8872  0.1140 -0.2476
 4985TIP3   OH239149   5.951   2.348   9.262 -0.6164  0.1088 -0.5293
 4985TIP3    H139150   5.987   2.283   9.202 -0.3450  0.2396 -0.5045
 4985TIP3    H239151   6.027   2.387   9.305 -0.8344 -0.5329  0.4722
 4986TIP3   OH239152   1.224   4.484   8.749 -0.2339 -0.3348 -0.1052
 4986TIP3    H139153   1.219   4.559   8.809  0.8498 -1.0481  0.9281
 4986TIP3    H239154   1.174   4.416   8.793  0.5152 -0.8435 -0.0225
 4987TIP3   OH239155   5.570   1.821   8.207 -0.4292 -0.4038  0.3156
 4987TIP3    H139156   5.539   1.891   8.265 -2.3810 -0.7146 -0.2980
 4987TIP3    H239157   5.665   1.831   8.207 -0.6488  2.5928 -0.1569
 4988TIP3   OH239158   0.747   1.416   9.148  0.5575 -0.1774  0.3172
 4988TIP3    H139159   0.735   1.508   9.171 -1.0205  0.0376 -1.1711
 4988TIP3    H239160   0.734   1.369   9.231 -2.1038  0.7432  0.5382
 4989TIP3   OH239161   5.091   5.525   8.285 -0.3255  0.5570 -0.0532
 4989TIP3    H139162   5.114   5.612   8.318 -2.4594  0.2560  2.6588
 4989TIP3    H239163   5.020   5.542   8.223 -0.8150  0.7860  0.5539
 4990TIP3   OH239164   5.680   1.677   8.833  0.6657  0.0741  0.1416
 4990TIP3    H139165   5.769   1.706   8.814  0.3941 -0.5127 -2.3946
 4990TIP3    H239166   5.660   1.615   8.762 -0.8128 -1.8561  2.1313
 4991TIP3   OH239167   7.337   5.596   8.425 -0.3159  0.1037  0.0736
 4991TIP3    H139168   7.266   5.630   8.370 -0.8287 -2.4323 -0.9926
 4991TIP3    H239169   7.411   5.587   8.365 -0.1630 -0.4998  0.3494
 4992TIP3   OH239170   3.539   7.099   6.292  0.0827  0.2291  0.0695
 4992TIP3    H139171   3.578   7.014   6.277  0.3450  0.0479  1.5906
 4992TIP3    H239172   3.613   7.160   6.295  0.2381  0.0135  2.0867
 4993TIP3   OH239173   5.243   5.824   8.024  0.2826  0.2042 -0.0332
 4993TIP3    H139174   5.302   5.750   8.016 -0.9956 -0.7635 -0.9467
 4993TIP3    H239175   5.282   5.892   7.970  0.4492 -0.4925 -0.8056
 4994TIP3   OH239176   5.481   4.578   8.975 -0.1419 -0.2004  0.5946
 4994TIP3    H139177   5.568   4.578   9.014  0.0846 -0.0141  0.0891
 4994TIP3    H239178   5.467   4.669   8.947  0.2584 -0.6014 -0.9914
 4995TIP3   OH239179   7.222   0.241   8.406  0.3404  0.5712  0.2861
 4995TIP3    H139180   7.250   0.239   8.497  2.3583  0.1225 -0.2958
 4995TIP3    H239181   7.127   0.253   8.410  0.5625  2.1976  2.4070
 4996TIP3   OH239182   1.823   7.544   9.118  0.2406 -0.1389  0.2211
 4996TIP3    H139183   1.857   7.621   9.071 -0.7256  0.0225 -0.2353
 4996TIP3    H239184   1.759   7.506   9.058  0.2041 -0.9000  0.7382
 4997TIP3   OH239185   1.934   6.527   8.903  0.4820  0.2380 -0.3776
 4997TIP3    H139186   1.845   6.494   8.914  0.4012  0.4792 -0.3106
 4997TIP3    H239187   1.990   6.459   8.942  0.1525  1.5518  2.6363
 4998TIP3   OH239188   3.876   3.686   8.543 -0.2125  0.3042  0.0328
 4998TIP3    H139189   3.906   3.596   8.532  1.3051  0.7554  0.2853
 4998TIP3    H239190   3.846   3.712   8.455  0.8589  0.0673 -0.4248
 4999TIP3   OH239191   1.222   4.368   7.371  0.1656  0.7899  0.3504
 4999TIP3    H139192   1.200   4.422   7.447 -0.0565  1.1201  0.0515
 4999TIP3    H239193   1.317   4.362   7.372  0.4133  3.2178 -0.9941
 5000TIP3   OH239194   7.379   0.096   7.936  0.1956  0.3619 -0.1013
 5000TIP3    H139195   7.392   0.147   7.856  0.2712  0.5476  0.0261
 5000TIP3    H239196   7.428   0.015   7.922 -0.8105 -0.1488 -0.7411
 5001TIP3   OH239197   1.708   0.836   9.032 -0.0144 -0.1031 -0.0056
 5001TIP3    H139198   1.711   0.815   8.939 -0.5712 -1.2284  0.2097
 5001TIP3    H239199   1.732   0.755   9.076  1.1927  0.6736  0.8324
 5002TIP3   OH239200   0.043   3.696   7.328 -0.1810  0.0904 -0.6643
 5002TIP3    H139201   0.087   3.637   7.267 -0.8421 -1.4234  0.2784
 5002TIP3    H239202  -0.004   3.758   7.271  0.5060 -0.2878 -1.6651
 5003TIP3   OH239203   6.586   5.085   8.165 -0.4652 -0.0297  0.2666
 5003TIP3    H139204   6.530   5.013   8.191  0.1467 -0.7885 -0.4724
 5003TIP3    H239205   6.674   5.047   8.158 -0.2827  0.5665 -1.0262
 5004TIP3   OH239206   1.029   0.568   9.348 -0.1995 -0.4070 -0.3564
 5004TIP3    H139207   1.099   0.576   9.413 -0.7656  0.0252  0.2101
 5004TIP3    H239208   1.008   0.658   9.324  0.4175 -0.5735 -1.6117
 5005TIP3   OH239209   7.298   0.143   9.574  0.3431 -0.0926  0.0973
 5005TIP3    H139210   7.363   0.144   9.503 -0.3027  2.2159 -0.5571
 5005TIP3    H239211   7.217   0.115   9.531  0.4505 -1.0423  0.4867
 5006TIP3   OH239212   7.370   2.290   7.215  0.2065 -0.7267  0.4074
 5006TIP3    H139213   7.296   2.291   7.155  1.4979  1.0541 -1.3191
 5006TIP3    H239214   7.388   2.383   7.231  1.1006 -1.1500  2.0487
 5007TIP3   OH239215   0.573   5.963   9.040 -0.0442  0.6789  0.3637
 5007TIP3    H139216   0.662   5.971   9.075  0.6266 -1.4013 -0.7266
 5007TIP3    H239217   0.581   5.901   8.968 -2.3162  0.8226 -0.0726
 5008TIP3   OH239218   0.786   7.080   7.770  0.3827  0.5167  0.2826
 5008TIP3    H139219   0.753   6.998   7.809  1.2438  0.5827  1.1797
 5008TIP3    H239220   0.879   7.065   7.758 -0.0636 -0.1772 -3.5244
 5009TIP3   OH239221   5.766   7.021   8.195 -0.9344 -0.5219  0.0591
 5009TIP3    H139222   5.797   6.933   8.174 -0.6040 -1.0194  2.3198
 5009TIP3    H239223   5.842   7.077   8.180 -0.8236 -0.7753 -0.3635
 5010TIP3   OH239224   4.734   7.484   9.301 -0.2976  0.2154  1.1826
 5010TIP3    H139225   4.707   7.392   9.303  0.0870  0.1032  1.2672
 5010TIP3    H239226   4.830   7.481   9.305 -0.3001  0.6318  1.6627
 5011TIP3   OH239227   6.851   3.633   6.707 -0.0813  0.1769 -0.2184
 5011TIP3    H139228   6.837   3.560   6.767  2.5188  0.4834  0.8584
 5011TIP3    H239229   6.901   3.697   6.757 -0.0524  1.5772 -1.9389
 5012TIP3   OH239230   1.059   4.682   9.487 -0.0503 -0.6220 -0.0928
 5012TIP3    H139231   1.116   4.609   9.512  0.7998  0.2278  0.4908
 5012TIP3    H239232   1.114   4.760   9.495 -0.4667 -0.0395 -2.2818
 5013TIP3   OH239233   1.961   1.526   7.803 -0.0231  0.3014 -0.2290
 5013TIP3    H139234   1.887   1.587   7.798 -0.0062  0.3297 -0.1277
 5013TIP3    H239235   1.925   1.447   7.844  0.0427  0.3754 -0.0275
 5014TIP3   OH239236   7.220   3.942   8.783 -0.2406 -0.4458  0.0895
 5014TIP3    H139237   7.175   3.995   8.848  0.7839  0.6479 -0.0573
 5014TIP3    H239238   7.154   3.879   8.754 -0.3499 -1.8270  3.0821
 5015TIP3   OH239239   4.206   2.010   7.688  0.2792  0.1775 -0.1146
 5015TIP3    H139240   4.301   2.000   7.696  0.1511 -1.8650 -0.5800
 5015TIP3    H239241   4.195   2.090   7.638  1.8401 -0.3719 -1.4486
 5016TIP3   OH239242   1.670   0.039   7.377 -0.0765  0.2248 -0.4114
 5016TIP3    H139243   1.757   0.075   7.359  0.2300 -0.3843 -0.1563
 5016TIP3    H239244   1.614   0.078   7.310  0.2284  1.2554 -0.0879
 5017TIP3   OH239245   0.591   4.232   7.726 -0.2066 -0.2260 -0.4700
 5017TIP3    H139246   0.616   4.280   7.647 -0.7885  0.1135 -0.4568
 5017TIP3    H239247   0.563   4.300   7.787  0.4003 -0.4734  0.0970
 5018TIP3   OH239248   1.054   4.348   7.802  0.2623 -0.1808 -0.1034
 5018TIP3    H139249   1.139   4.375   7.769  0.3996  0.7356  0.9229
 5018TIP3    H239250   1.009   4.310   7.727  0.5909  1.6981 -1.2933
 5019TIP3   OH239251   3.346   1.211   7.164  0.4456  0.1733 -0.5040
 5019TIP3    H139252   3.314   1.130   7.124  2.5390  0.0344 -2.0471
 5019TIP3    H239253   3.291   1.279   7.125 -0.6098 -0.3678 -0.0130
 5020TIP3   OH239254   0.250   2.171   9.646  0.7773 -0.3428 -0.4654
 5020TIP3    H139255   0.284   2.206   9.564  2.7734 -1.0909 -0.0006
 5020TIP3    H239256   0.299   2.090   9.660 -1.2248 -1.5100  0.2705
 5021TIP3   OH239257   0.714   0.256   7.845  0.3420 -0.4136 -0.5484
 5021TIP3    H139258   0.717   0.344   7.883 -1.0039 -0.4679 -0.2475
 5021TIP3    H239259   0.805   0.234   7.827  0.7918  0.6363  0.3174
 5022TIP3   OH239260   0.910   3.628   7.734  0.1855 -0.2819  0.4333
 5022TIP3    H139261   0.967   3.704   7.747 -0.1558 -0.1052  0.9200
 5022TIP3    H239262   0.872   3.611   7.820 -1.2707  0.2150 -0.0770
 5023TIP3   OH239263   6.245   1.908   7.005  0.1054 -0.1852 -0.3831
 5023TIP3    H139264   6.232   1.948   6.919 -2.3717  0.5625  0.2428
 5023TIP3    H239265   6.217   1.975   7.068  2.2885 -0.5361  1.0950
 5024TIP3   OH239266   0.529   2.435   8.797 -0.0286  0.0937 -0.4918
 5024TIP3    H139267   0.522   2.411   8.889  2.1097  1.6665  0.1541
 5024TIP3    H239268   0.533   2.352   8.750 -2.4788 -0.7364  0.6567
 5025TIP3   OH239269   3.267   5.772   6.878  0.4768 -0.2440 -0.2237
 5025TIP3    H139270   3.348   5.737   6.840  0.9576  0.8334 -0.2372
 5025TIP3    H239271   3.217   5.694   6.904  0.9155 -0.9612 -1.4332
 5026TIP3   OH239272   1.321   3.514   9.165 -0.5325 -0.6338  0.2855
 5026TIP3    H139273   1.275   3.598   9.176  0.1431  0.3478 -3.2141
 5026TIP3    H239274   1.307   3.491   9.074  3.9481 -1.4221 -0.4335
 5027TIP3   OH239275   5.893   6.140   7.438  0.2361  0.2913  0.1014
 5027TIP3    H139276   5.818   6.190   7.470 -1.0573 -0.9526 -0.8336
 5027TIP3    H239277   5.953   6.136   7.513 -0.0667  2.3130  0.5009
 5028TIP3   OH239278   5.435   4.574   8.649 -0.0474 -0.2018 -0.4253
 5028TIP3    H139279   5.438   4.533   8.562 -1.6188 -0.1140 -0.5410
 5028TIP3    H239280   5.372   4.645   8.640  0.2524  0.2085  0.6302
 5029TIP3   OH239281   2.299   0.876   6.844 -0.0629 -0.2650  0.3390
 5029TIP3    H139282   2.274   0.896   6.935 -0.3695 -1.7017  0.5909
 5029TIP3    H239283   2.373   0.815   6.853  0.1877 -0.0743 -0.3879
 5030TIP3   OH239284   3.488   7.361   8.719  0.4502 -0.3239  0.5439
 5030TIP3    H139285   3.528   7.307   8.652 -0.1178 -1.4184  1.0562
 5030TIP3    H239286   3.407   7.315   8.742 -0.2314  0.9254  0.7511
 5031TIP3   OH239287   1.191   3.367   9.521  0.3498 -0.3800  0.3983
 5031TIP3    H139288   1.220   3.285   9.480  1.5647  0.2553 -0.0572
 5031TIP3    H239289   1.271   3.411   9.546 -0.2651  0.9809  0.0406
 5032TIP3   OH239290   6.993   5.590   7.663 -0.0305 -0.5295 -0.2617
 5032TIP3    H139291   6.997   5.565   7.755  0.4667  0.6816  0.0687
 5032TIP3    H239292   6.901   5.579   7.639 -0.7877  1.7661  1.2060
 5033TIP3   OH239293   5.926   1.660   8.602 -0.7268 -0.0844 -0.2697
 5033TIP3    H139294   5.963   1.585   8.649 -1.1975  0.0460  0.3263
 5033TIP3    H239295   5.960   1.737   8.648  0.2864  0.1019 -1.2841
 5034TIP3   OH239296   0.403   3.649   8.567 -0.0494 -0.7213  0.3546
 5034TIP3    H139297   0.399   3.578   8.503  1.3035 -0.1039 -0.4642
 5034TIP3    H239298   0.486   3.635   8.613  0.6374  0.7313 -0.3608
 5035TIP3   OH239299   4.069   4.659   8.860 -0.8251 -0.2169 -0.6166
 5035TIP3    H139300   4.100   4.656   8.951 -1.3957  1.8593 -0.2996
 5035TIP3    H239301   4.146   4.637   8.807  0.5081  2.0197  0.2603
 5036TIP3   OH239302   7.020   3.809   8.438 -0.2399 -0.2886 -0.6034
 5036TIP3    H139303   7.073   3.887   8.455  0.6045 -0.8738 -0.4871
 5036TIP3    H239304   7.004   3.772   8.525 -0.9557 -0.0536 -0.6260
 5037TIP3   OH239305   0.881   3.874   9.621  0.0682  0.3208  0.1433
 5037TIP3    H139306   0.844   3.962   9.607  0.5643  0.3924 -0.8457
 5037TIP3    H239307   0.861   3.827   9.540  2.5167  0.5182 -0.6396
 5038TIP3   OH239308   6.349   3.631   9.046  0.8239  0.1952  0.1507
 5038TIP3    H139309   6.391   3.701   8.996 -0.4414 -0.7862 -2.4707
 5038TIP3    H239310   6.415   3.562   9.052  0.9493  0.2828 -0.2347
 5039TIP3   OH239311   6.254   3.003   7.374 -0.3410 -0.0714 -0.4024
 5039TIP3    H139312   6.320   2.982   7.308 -1.6845 -1.2663 -1.4274
 5039TIP3    H239313   6.222   3.090   7.348 -0.5098 -0.3143 -1.0250
 5040TIP3   OH239314   2.969   0.287   9.117  0.7722 -0.1235  0.0887
 5040TIP3    H139315   2.935   0.253   9.199 -0.9215  0.7040 -0.2390
 5040TIP3    H239316   2.897   0.278   9.055  1.2839  1.2548 -0.7629
 5041TIP3   OH239317   3.657   5.541   7.317  0.0280 -0.3062  0.7208
 5041TIP3    H139318   3.568   5.507   7.326 -0.9915  2.0592  0.4141
 5041TIP3    H239319   3.683   5.565   7.406  0.5804 -1.4434  0.8800
 5042TIP3   OH239320   0.381   5.484   7.572  0.4215  0.0644 -0.8830
 5042TIP3    H139321   0.431   5.414   7.531  0.6589  0.5663 -1.4631
 5042TIP3    H239322   0.320   5.512   7.504 -0.5189 -0.3891 -0.2640
 5043TIP3   OH239323   3.466   7.604   8.832 -0.4971  0.2826 -0.2934
 5043TIP3    H139324   3.557   7.624   8.854 -0.0783 -0.2141 -1.5173
 5043TIP3    H239325   3.465   7.510   8.815 -1.2712  0.2582 -0.1669
 5044TIP3   OH239326   2.896   6.022   8.577 -0.2601 -0.5304 -0.0790
 5044TIP3    H139327   2.846   6.045   8.499  1.8015  0.1963 -1.2776
 5044TIP3    H239328   2.883   6.096   8.636 -0.3414 -0.1856 -0.5219
 5045TIP3   OH239329   2.807   7.332   7.821 -0.0150 -0.3275 -0.0717
 5045TIP3    H139330   2.846   7.248   7.845  0.4311 -0.2084 -0.3647
 5045TIP3    H239331   2.728   7.339   7.876  0.2240 -0.7006  0.3235
 5046TIP3   OH239332   3.661   1.449   7.746 -0.5840  0.2461 -0.8930
 5046TIP3    H139333   3.689   1.363   7.716 -2.2252 -0.6511  0.0324
 5046TIP3    H239334   3.627   1.435   7.834  2.7353  2.5489  1.0060
 5047TIP3   OH239335   1.810   6.345   8.360 -0.1632  0.4652  0.2042
 5047TIP3    H139336   1.723   6.372   8.328 -0.5244  1.0373  1.5982
 5047TIP3    H239337   1.807   6.363   8.454  0.7807 -1.3481  0.6181
 5048TIP3   OH239338   0.625   6.397   6.904 -0.3563  0.0250  0.4927
 5048TIP3    H139339   0.570   6.320   6.921  1.6345 -1.4398  0.5854
 5048TIP3    H239340   0.666   6.378   6.820  0.8426  0.5602  0.9472
 5049TIP3   OH239341   5.875   4.623   7.784  0.4956  0.0012  0.0371
 5049TIP3    H139342   5.887   4.541   7.834  1.4676 -0.1019 -0.3334
 5049TIP3    H239343   5.789   4.655   7.810 -0.2990 -1.6114 -0.4817
 5050TIP3   OH239344   2.276   6.497   6.519 -0.2505 -0.1049 -0.4497
 5050TIP3    H139345   2.185   6.467   6.526 -0.2421  0.0671  0.5350
 5050TIP3    H239346   2.328   6.417   6.530 -0.2862 -0.4412 -2.4752
 5051TIP3   OH239347   1.676   4.675   8.555 -0.1722  0.0936  0.0373
 5051TIP3    H139348   1.636   4.757   8.586  2.1266  1.9240 -1.4820
 5051TIP3    H239349   1.606   4.631   8.507 -1.3369  1.3907  0.4665
 5052TIP3   OH239350   2.966   4.148   7.196 -0.3546  0.5787 -0.4033
 5052TIP3    H139351   2.940   4.189   7.114  0.3920 -0.4272 -1.1715
 5052TIP3    H239352   3.059   4.168   7.205 -0.2854  0.1485 -0.1285
 5053TIP3   OH239353   3.153   1.304   9.031 -0.3915  0.4340  0.2725
 5053TIP3    H139354   3.123   1.280   9.118  0.7940  1.0599  0.8696
 5053TIP3    H239355   3.154   1.400   9.032  2.9860  0.5029  0.8164
 5054TIP3   OH239356   3.165   1.297   8.703  0.5480  0.1126 -0.4196
 5054TIP3    H139357   3.193   1.296   8.611 -0.2468  0.3744 -0.6704
 5054TIP3    H239358   3.070   1.305   8.699  0.5974  1.3311  0.4496
 5055TIP3   OH239359   4.451   5.143   8.862  0.1401 -0.2992  0.0560
 5055TIP3    H139360   4.437   5.057   8.822  1.6876 -0.1091 -0.9662
 5055TIP3    H239361   4.436   5.205   8.790  0.3578  0.2059  0.4422
 5056TIP3   OH239362   2.042   0.779   8.215 -0.3479 -0.0991 -0.4271
 5056TIP3    H139363   1.969   0.830   8.250 -0.8722 -0.2646 -1.2474
 5056TIP3    H239364   2.119   0.830   8.237 -0.6287 -0.3164  1.1681
 5057TIP3   OH239365   6.975   7.215   7.828 -0.1095  0.0942  0.2846
 5057TIP3    H139366   7.069   7.208   7.848 -0.2941 -0.1163  1.1010
 5057TIP3    H239367   6.963   7.156   7.753  0.6745  1.2417 -0.7892
 5058TIP3   OH239368   7.399   4.284   6.748  0.2685 -0.0187 -0.3446
 5058TIP3    H139369   7.455   4.347   6.701  0.4494 -0.5654 -0.8868
 5058TIP3    H239370   7.411   4.202   6.700 -0.4820 -0.3074 -0.0512
 5059TIP3   OH239371   4.776   0.826   6.887  0.0023  0.0352 -0.2807
 5059TIP3    H139372   4.801   0.738   6.859  0.8339 -0.1121  0.8458
 5059TIP3    H239373   4.839   0.847   6.956 -0.7846  1.1381  0.1157
 5060TIP3   OH239374   0.701   3.017   7.941  0.0853  0.5117  0.1784
 5060TIP3    H139375   0.770   2.956   7.913  0.7265  2.2673 -2.4247
 5060TIP3    H239376   0.745   3.102   7.947 -1.4033  1.2861  0.6629
 5061TIP3   OH239377   5.435   7.513   8.671  0.2974  0.3793  0.1430
 5061TIP3    H139378   5.445   7.550   8.583 -0.0466  0.7095  0.2372
 5061TIP3    H239379   5.341   7.518   8.689  0.2877 -0.2552  0.2876
 5062TIP3   OH239380   5.429   7.529   8.007 -0.3821 -0.1436 -0.2139
 5062TIP3    H139381   5.469   7.501   8.089 -0.1756 -0.1663 -0.3222
 5062TIP3    H239382   5.486   7.598   7.975 -1.2894  0.9222  0.4172
 5063TIP3   OH239383   0.387   1.478   9.099  0.1080  0.0686 -0.1366
 5063TIP3    H139384   0.476   1.466   9.067  0.4754  0.5676  0.6486
 5063TIP3    H239385   0.357   1.559   9.058  0.4249  0.4835  0.4306
 5064TIP3   OH239386   3.829   6.058   9.157 -0.0763 -0.0509  0.7235
 5064TIP3    H139387   3.867   6.097   9.236  2.0632 -1.0113  0.2590
 5064TIP3    H239388   3.823   6.130   9.095  1.8141  0.0238  0.5697
 5065TIP3   OH239389   6.352   0.275   8.195  0.4407  0.4467 -0.4205
 5065TIP3    H139390   6.310   0.294   8.111  1.3527  2.2001 -0.5131
 5065TIP3    H239391   6.444   0.263   8.174  1.0003  2.6462  0.4836
 5066TIP3   OH239392   2.151   3.797   8.086  0.2025  0.0829  0.2447
 5066TIP3    H139393   2.121   3.791   8.176  0.8511 -0.1103  0.4514
 5066TIP3    H239394   2.213   3.869   8.085 -3.0612  3.2109 -0.9927
 5067TIP3   OH239395   0.353   1.415   8.639  0.2598 -0.7952  0.0413
 5067TIP3    H139396   0.272   1.464   8.640  1.0631  0.5933  1.5492
 5067TIP3    H239397   0.329   1.327   8.669 -0.4430  0.0738  2.1681
 5068TIP3   OH239398   6.758   3.573   7.839 -0.2578  0.6448  0.2164
 5068TIP3    H139399   6.795   3.662   7.842  1.1698  0.2485 -2.5396
 5068TIP3    H239400   6.683   3.581   7.780  1.1384 -0.2973 -1.7909
 5069TIP3   OH239401   0.905   0.708   8.671  0.5626  0.2288 -0.9471
 5069TIP3    H139402   0.910   0.758   8.589 -2.4009  0.4822 -1.0764
 5069TIP3    H239403   0.853   0.763   8.729  1.1385 -0.7387  0.5274
 5070TIP3   OH239404   1.343   4.679   7.256  0.6761  0.6741  0.5108
 5070TIP3    H139405   1.276   4.747   7.259 -0.3021 -0.2865  1.4475
 5070TIP3    H239406   1.397   4.696   7.333 -1.1829 -1.1276  2.3283
 5071TIP3   OH239407   1.648   5.048   7.597  0.4596 -0.2382  0.2818
 5071TIP3    H139408   1.566   5.003   7.578  0.0432 -0.6018  2.6484
 5071TIP3    H239409   1.656   5.114   7.527 -1.1586 -1.0509 -0.7269
 5072TIP3   OH239410   4.929   6.062   8.156  0.5849  0.0975  0.0495
 5072TIP3    H139411   5.021   6.045   8.175  0.0940 -4.4611 -0.4290
 5072TIP3    H239412   4.883   6.035   8.235 -0.4137 -0.2859 -0.6389
 5073TIP3   OH239413   2.296   0.869   8.321 -0.1241 -0.0820  0.1371
 5073TIP3    H139414   2.296   0.947   8.377 -0.0678 -0.6406  0.9380
 5073TIP3    H239415   2.381   0.871   8.277  0.7308 -0.7073  1.6554
 5074TIP3   OH239416   7.569   2.848   9.331 -0.1481  0.1384  0.2661
 5074TIP3    H139417   7.645   2.815   9.282  0.7952  0.6559  1.3323
 5074TIP3    H239418   7.550   2.779   9.395 -0.9703 -0.2512 -0.3804
 5075TIP3   OH239419   2.974   5.740   9.440 -0.3250  0.3972  0.3682
 5075TIP3    H139420   3.054   5.724   9.490 -0.8358  0.6039  1.2870
 5075TIP3    H239421   2.913   5.673   9.470 -0.6748  0.5834  0.0865
 5076TIP3   OH239422   6.915   1.672   9.670 -0.4002  1.1251  0.1750
 5076TIP3    H139423   6.901   1.710   9.583  0.9701  0.2478 -0.4629
 5076TIP3    H239424   6.932   1.748   9.726 -1.2072  1.6977 -0.3214
 5077TIP3   OH239425   5.584   0.286   7.719  0.4041 -0.2746  0.5204
 5077TIP3    H139426   5.544   0.208   7.681 -0.2037  1.0076 -1.5635
 5077TIP3    H239427   5.640   0.321   7.650  2.4966 -0.0776  2.1920
 5078TIP3   OH239428   1.376   2.928   7.744  0.2574 -0.0441 -0.4888
 5078TIP3    H139429   1.432   2.980   7.802 -1.0712  0.9882 -0.0695
 5078TIP3    H239430   1.414   2.938   7.657  0.8888  0.3647 -0.1742
 5079TIP3   OH239431   5.968   0.857   8.288 -0.2791  0.0199 -0.2035
 5079TIP3    H139432   5.914   0.799   8.233 -0.6237  0.9096 -0.8186
 5079TIP3    H239433   5.985   0.805   8.367 -0.8166 -0.8181 -0.6216
 5080TIP3   OH239434   6.073   7.607   7.111  0.3892 -0.6391  0.4125
 5080TIP3    H139435   6.002   7.571   7.163  0.7075 -1.0456  0.5736
 5080TIP3    H239436   6.032   7.673   7.056 -0.6024 -2.7010 -1.4583
 5081TIP3   OH239437   5.349   0.078   8.811 -0.0288 -0.2580  0.1387
 5081TIP3    H139438   5.319   0.026   8.737  1.3681 -0.8947 -0.0148
 5081TIP3    H239439   5.306   0.039   8.887  0.0669 -0.8604 -0.1134
 5082TIP3   OH239440   4.794   4.502   9.205 -0.0337  0.0080 -0.1480
 5082TIP3    H139441   4.751   4.576   9.247  1.0225  0.3341  0.4021
 5082TIP3    H239442   4.813   4.532   9.116  3.3578  1.7406  0.9694
 5083TIP3   OH239443   4.375   3.865   8.500 -0.8239 -0.1858  0.4367
 5083TIP3    H139444   4.378   3.932   8.569  1.6662  0.3172 -0.0339
 5083TIP3    H239445   4.353   3.784   8.545 -1.6446  0.5483  1.3982
 5084TIP3   OH239446   3.008   4.044   9.136 -0.5511  0.0644 -0.0883
 5084TIP3    H139447   2.920   4.034   9.173 -0.6778  1.2938  0.0049
 5084TIP3    H239448   3.063   4.068   9.210 -0.2579 -0.1298 -0.2423
 5085TIP3   OH239449   1.109   3.806   7.815 -0.1274  0.2189 -0.2691
 5085TIP3    H139450   1.138   3.895   7.837 -2.9648  0.6408  2.5772
 5085TIP3    H239451   1.182   3.750   7.840  1.0363  1.6156 -0.3900
 5086TIP3   OH239452   4.140   3.689   7.709  0.1514 -0.4195 -0.0064
 5086TIP3    H139453   4.161   3.648   7.793 -1.6031  0.2051  0.8017
 5086TIP3    H239454   4.047   3.712   7.717  0.5374  1.8284 -1.1825
 5087TIP3   OH239455   2.909   0.730   9.693 -0.5263 -0.1638  0.0162
 5087TIP3    H139456   2.964   0.706   9.619  0.3695 -1.0938  0.9534
 5087TIP3    H239457   2.970   0.748   9.764 -1.4010 -0.8523  0.9786
 5088TIP3   OH239458   4.426   7.084   8.389  1.0602 -0.6385 -0.5595
 5088TIP3    H139459   4.347   7.069   8.440  1.1948  0.2475 -0.0627
 5088TIP3    H239460   4.495   7.039   8.438  0.7278 -2.2540 -1.5122
 5089TIP3   OH239461   5.878   6.098   8.100 -0.2100  0.5056 -0.2216
 5089TIP3    H139462   5.795   6.145   8.102 -0.6419 -0.0255 -2.6026
 5089TIP3    H239463   5.922   6.124   8.181 -3.2379 -0.2589  1.8830
 5090TIP3   OH239464   6.877   0.114   7.062  0.6073 -0.4084 -0.4497
 5090TIP3    H139465   6.897   0.079   6.976  1.8142 -0.5024 -0.1491
 5090TIP3    H239466   6.819   0.189   7.045  2.6705  1.0306 -1.5497
 5091TIP3   OH239467   0.031   6.894   7.384 -0.0085  1.0477 -0.5427
 5091TIP3    H139468  -0.026   6.823   7.352 -0.1110  1.1070 -0.4937
 5091TIP3    H239469   0.018   6.894   7.478  1.3231 -0.0148 -0.3358
 5092TIP3   OH239470   6.148   7.407   8.524 -0.1616  0.3508  0.2564
 5092TIP3    H139471   6.149   7.503   8.516  0.0973  0.4479  1.2983
 5092TIP3    H239472   6.103   7.391   8.607  1.5208 -0.3554  1.0632
 5093TIP3   OH239473   2.965   6.523   7.031 -0.4069 -0.0663  0.2007
 5093TIP3    H139474   2.879   6.529   6.990  1.5931  1.6666 -4.3836
 5093TIP3    H239475   2.960   6.584   7.105 -2.7601  1.0242 -0.7468
 5094TIP3   OH239476   4.155   4.520   7.418 -0.3504 -0.4261 -0.4078
 5094TIP3    H139477   4.065   4.547   7.403  0.2193  1.3344 -0.9889
 5094TIP3    H239478   4.176   4.464   7.343  0.3975  2.9187 -2.9468
 5095TIP3   OH239479   5.289   1.865   9.425  0.7596 -0.0038  0.3451
 5095TIP3    H139480   5.239   1.924   9.368 -0.3862 -0.3629  0.9382
 5095TIP3    H239481   5.247   1.780   9.413 -2.1047  0.5060  4.4175
 5096TIP3   OH239482   2.953   0.579   6.701 -0.3551 -0.0486  0.2440
 5096TIP3    H139483   2.998   0.663   6.703 -0.2316 -0.0991 -0.2939
 5096TIP3    H239484   2.864   0.600   6.673 -0.5375 -0.0089  0.8370
 5097TIP3   OH239485   0.617   5.192   9.187 -0.0320  0.0467 -0.1561
 5097TIP3    H139486   0.690   5.221   9.133 -0.9608  0.9664 -0.9419
 5097TIP3    H239487   0.614   5.097   9.174  0.0845  0.1895 -1.3166
 5098TIP3   OH239488   3.698   7.130   7.104  0.4175 -0.0924 -0.3319
 5098TIP3    H139489   3.636   7.184   7.152  0.7542 -0.3386  0.4041
 5098TIP3    H239490   3.751   7.192   7.053  1.5864  0.4238  1.4029
 5099TIP3   OH239491   2.186   2.067   6.817 -0.5094  0.0473  0.4694
 5099TIP3    H139492   2.239   2.141   6.847  1.5733 -1.9552  2.1273
 5099TIP3    H239493   2.241   2.023   6.753 -0.9128 -1.0707  0.8644
 5100TIP3   OH239494   6.319   1.032   8.827 -0.8269  0.6811 -0.0406
 5100TIP3    H139495   6.250   1.013   8.764 -1.9695  3.0132  0.4017
 5100TIP3    H239496   6.381   1.088   8.780  1.0662 -1.6625 -0.5426
 5101TIP3   OH239497   7.052   0.831   7.822  0.8620 -0.2805 -0.3642
 5101TIP3    H139498   7.012   0.791   7.744  1.1277 -2.8817  0.7497
 5101TIP3    H239499   7.114   0.766   7.854  0.1159  0.2961  2.5485
 5102TIP3   OH239500   3.104   2.028   7.115  0.1448 -0.0344 -0.7225
 5102TIP3    H139501   3.010   2.022   7.130  0.0861  1.4486 -0.3610
 5102TIP3    H239502   3.143   1.966   7.176 -0.5461  0.0533 -0.1931
 5103TIP3   OH239503   1.718   2.446   8.132 -0.2897  0.1238  0.4035
 5103TIP3    H139504   1.778   2.509   8.092  1.1406 -2.0137 -1.0811
 5103TIP3    H239505   1.657   2.499   8.183  2.5234  2.5103  1.6127
 5104TIP3   OH239506   1.523   0.193   9.386 -0.1451  0.1887 -0.2462
 5104TIP3    H139507   1.547   0.100   9.386 -0.8727 -0.0168 -1.4003
 5104TIP3    H239508   1.599   0.237   9.349  0.9377  0.2968  1.9585
 5105TIP3   OH239509   6.812   7.561   7.650 -0.0048  0.1817 -0.1424
 5105TIP3    H139510   6.778   7.479   7.686  1.0920 -0.8850 -1.4337
 5105TIP3    H239511   6.904   7.563   7.678 -0.3992  1.8065  1.2274
 5106TIP3   OH239512   5.682   4.263   9.285 -0.1547  0.2696  0.0146
 5106TIP3    H139513   5.686   4.345   9.236 -0.3849  0.2271 -0.0769
 5106TIP3    H239514   5.636   4.203   9.226  0.3740 -0.0391 -0.0868
 5107TIP3   OH239515   2.498   5.510   6.817  0.0782  0.0694 -0.8333
 5107TIP3    H139516   2.554   5.582   6.846 -0.5028  0.2724 -0.1637
 5107TIP3    H239517   2.415   5.526   6.863 -2.2720  2.5072 -5.2481
 5108TIP3   OH239518   2.870   4.368   8.249  0.4703 -0.7288  0.1727
 5108TIP3    H139519   2.897   4.328   8.332  0.5586  1.3459  1.1918
 5108TIP3    H239520   2.789   4.414   8.270 -0.5035 -1.6809 -1.3686
 5109TIP3   OH239521   6.215   3.211   8.929 -0.0223  0.2185  0.5635
 5109TIP3    H139522   6.281   3.257   8.980  0.4478  1.2963 -0.9555
 5109TIP3    H239523   6.240   3.226   8.837 -0.3425 -2.3657 -0.0189
 5110TIP3   OH239524   3.077   1.419   9.875  0.4356  0.2562  0.2632
 5110TIP3    H139525   3.121   1.344   9.837  0.3804  0.0831  0.5403
 5110TIP3    H239526   3.132   1.445   9.949 -0.6694 -0.8704  1.5332
 5111TIP3   OH239527   1.925   7.665   8.129  0.3006  0.1802 -0.1915
 5111TIP3    H139528   1.841   7.710   8.143 -1.6634 -3.3357  0.5502
 5111TIP3    H239529   1.940   7.669   8.035 -0.7709  0.7527 -0.3495
 5112TIP3   OH239530   0.075   2.417   8.186  0.5454 -0.4673 -0.6276
 5112TIP3    H139531   0.134   2.376   8.123  0.1088 -0.1287 -1.2703
 5112TIP3    H239532   0.133   2.462   8.247  0.9651  0.2894 -1.5443
 5113TIP3   OH239533   3.082   5.619   6.348 -0.7090  0.3849 -0.4059
 5113TIP3    H139534   3.139   5.553   6.306 -0.2252 -1.3038  2.6287
 5113TIP3    H239535   2.995   5.580   6.345 -0.3864 -0.6234  1.5962
 5114TIP3   OH239536   4.662   0.033   8.665  0.0516 -0.1285 -0.7179
 5114TIP3    H139537   4.675   0.075   8.580  1.2802  1.0029 -0.0094
 5114TIP3    H239538   4.567   0.029   8.675 -0.1753 -1.6349 -2.7551
 5115TIP3   OH239539   1.169   5.366   8.442  0.5706  0.1715  0.4899
 5115TIP3    H139540   1.133   5.398   8.360  0.1327  1.0717  1.0216
 5115TIP3    H239541   1.263   5.356   8.425  0.9172  2.6894  0.5545
 5116TIP3   OH239542   1.839   3.989   9.597  0.7057 -0.1701 -0.1071
 5116TIP3    H139543   1.767   3.934   9.628  1.4099 -0.4486  1.0609
 5116TIP3    H239544   1.829   3.990   9.501 -1.0437  0.0800  0.0498
 5117TIP3   OH239545   2.767   2.920   7.514  0.4068  1.0264  0.3673
 5117TIP3    H139546   2.734   2.847   7.566  1.1392  0.0953 -0.4320
 5117TIP3    H239547   2.730   2.997   7.555 -0.4316  0.2050  1.2098
 5118TIP3   OH239548   1.895   3.672   8.843 -0.3885  0.2374 -0.2793
 5118TIP3    H139549   1.849   3.730   8.783 -1.2866 -0.1063  0.0644
 5118TIP3    H239550   1.837   3.596   8.852  0.0811 -0.0434  0.4374
 5119TIP3   OH239551   3.162   7.354   6.950 -0.4611  0.1809  0.2572
 5119TIP3    H139552   3.162   7.450   6.943 -3.3900  0.2098 -0.5140
 5119TIP3    H239553   3.091   7.326   6.893 -0.8611 -2.3445  1.8386
 5120TIP3   OH239554   6.694   2.203   8.895 -0.6679  0.2909 -0.4715
 5120TIP3    H139555   6.755   2.273   8.917  0.3590 -0.6026 -0.3948
 5120TIP3    H239556   6.630   2.203   8.966  0.0237  0.3601  0.1575
 5121TIP3   OH239557   7.175   1.562   9.504 -0.1868  0.0682 -0.4618
 5121TIP3    H139558   7.178   1.500   9.431 -0.3438 -1.2722  0.6410
 5121TIP3    H239559   7.128   1.516   9.573 -0.9925  1.7157  0.1455
 5122TIP3   OH239560   1.260   7.168   7.881  0.0403  0.3808  0.4408
 5122TIP3    H139561   1.236   7.120   7.960  2.0828  0.3768  1.0997
 5122TIP3    H239562   1.350   7.195   7.895  0.2770  0.8710 -1.6581
 5123TIP3   OH239563   5.694   5.084   9.241 -0.6981  0.3384 -1.2061
 5123TIP3    H139564   5.671   5.177   9.241 -1.3792  0.1810 -1.7515
 5123TIP3    H239565   5.728   5.067   9.153  1.7639  0.5921 -0.3948
 5124TIP3   OH239566   0.809   4.692   9.165  0.1274 -0.1423  0.2347
 5124TIP3    H139567   0.857   4.752   9.221 -1.1192 -0.2333  1.4543
 5124TIP3    H239568   0.874   4.627   9.137  0.8565  0.1235  1.2791
 5125TIP3   OH239569   4.026   0.250   7.727 -0.6767 -0.3714 -0.0020
 5125TIP3    H139570   4.102   0.284   7.679 -0.6922 -0.8608 -0.3858
 5125TIP3    H239571   3.951   0.267   7.670 -0.9383  0.5871  0.6075
 5126TIP3   OH239572   7.669   0.467   8.036 -0.2111  0.2881  0.0784
 5126TIP3    H139573   7.752   0.467   8.084  0.2629  0.7398 -0.7087
 5126TIP3    H239574   7.643   0.375   8.032  0.8916 -0.0099 -0.7262
 5127TIP3   OH239575   0.783   1.576   7.012  0.2265  0.0144 -0.1703
 5127TIP3    H139576   0.756   1.646   6.953 -1.9892 -0.2426  0.4341
 5127TIP3    H239577   0.837   1.620   7.078 -1.1296  1.2160  0.2041
 5128TIP3   OH239578   1.721   3.044   8.888  0.7709 -0.7365  0.0829
 5128TIP3    H139579   1.743   2.952   8.905 -0.4356 -1.0690 -0.1029
 5128TIP3    H239580   1.632   3.054   8.920 -0.0296 -0.3003 -2.1064
 5129TIP3   OH239581   0.927   5.479   7.887  0.3482  0.3337  0.1072
 5129TIP3    H139582   0.920   5.497   7.981 -0.5029  0.5255  0.0111
 5129TIP3    H239583   0.859   5.414   7.870 -1.5557  2.4654 -0.9151
 5130TIP3   OH239584   6.811   4.297   8.686 -0.4879  0.9645 -0.0893
 5130TIP3    H139585   6.887   4.319   8.741  0.7426 -0.0787 -1.2922
 5130TIP3    H239586   6.740   4.352   8.719  0.3958  0.9215  2.0396
 5131TIP3   OH239587   1.075   7.250   9.460 -0.0480 -0.5241 -0.2923
 5131TIP3    H139588   1.138   7.254   9.388 -1.4240 -0.2002 -1.5124
 5131TIP3    H239589   1.040   7.161   9.456 -0.1548 -0.4960 -0.0234
 5132TIP3   OH239590   3.739   1.439   9.441 -0.0032  0.2607 -0.0850
 5132TIP3    H139591   3.829   1.467   9.460 -0.3490  2.0337 -0.9237
 5132TIP3    H239592   3.689   1.520   9.436 -1.2521 -0.5590 -1.7433
 5133TIP3   OH239593   3.422   3.684   8.348  0.5397  0.7926 -0.4386
 5133TIP3    H139594   3.361   3.675   8.274 -1.0540  1.2075  0.7768
 5133TIP3    H239595   3.479   3.756   8.323  1.1903 -0.2175 -2.0228
 5134TIP3   OH239596   4.040   2.274   7.237 -0.6875 -0.3599  0.2218
 5134TIP3    H139597   3.946   2.287   7.225 -0.3034  1.6928 -1.1263
 5134TIP3    H239598   4.080   2.323   7.165  1.4105 -1.7794  0.3425
 5135TIP3   OH239599   7.368   3.076   8.699  0.0236  0.6429 -0.0108
 5135TIP3    H139600   7.355   3.034   8.784 -1.1759 -0.5818 -0.7559
 5135TIP3    H239601   7.284   3.065   8.655 -0.3030  3.6835 -0.3412
 5136TIP3   OH239602   7.368   1.710   6.923 -0.3686  0.0544 -0.1396
 5136TIP3    H139603   7.275   1.692   6.912 -0.6055  0.6441  0.7874
 5136TIP3    H239604   7.408   1.625   6.939 -0.3580 -0.5451 -2.8348
 5137TIP3   OH239605   7.060   3.762   8.144 -0.9571  0.4953 -0.4490
 5137TIP3    H139606   7.078   3.772   8.238 -1.5064  2.1800 -0.4998
 5137TIP3    H239607   6.976   3.716   8.141 -0.7749  0.1310 -0.1317
 5138TIP3   OH239608   5.417   0.062   6.784  0.2719  0.0836 -0.1855
 5138TIP3    H139609   5.359   0.002   6.831 -0.6456  1.8295  1.0423
 5138TIP3    H239610   5.503   0.022   6.790 -0.3485 -1.2328  0.3591
 5139TIP3   OH239611   2.652   2.679   9.715 -0.1485 -0.9316 -0.1269
 5139TIP3    H139612   2.559   2.678   9.735 -0.1245 -0.2279  0.0402
 5139TIP3    H239613   2.682   2.765   9.744  0.2373 -0.5248 -1.6268
 5140TIP3   OH239614   2.329   6.358   7.085 -0.0440  0.9497 -0.3775
 5140TIP3    H139615   2.307   6.380   6.995 -0.7607  2.2260  0.0817
 5140TIP3    H239616   2.367   6.438   7.121  1.0489  0.1980  0.2172
 5141TIP3   OH239617   4.616   7.140   7.493 -0.1740 -0.4449 -0.5477
 5141TIP3    H139618   4.592   7.189   7.572 -2.9447 -0.0061 -1.5337
 5141TIP3    H239619   4.638   7.207   7.429  0.3192 -0.7210 -0.6704
 5142TIP3   OH239620   7.303   4.822   9.150 -0.3997 -0.1504  0.4877
 5142TIP3    H139621   7.317   4.900   9.203 -0.7082  0.4297 -0.2642
 5142TIP3    H239622   7.303   4.854   9.060  1.2340 -1.2603  0.0504
 5143TIP3   OH239623   5.721   2.622   7.237  0.1543 -0.0168  0.0575
 5143TIP3    H139624   5.627   2.607   7.234  0.2686 -0.7404 -0.0307
 5143TIP3    H239625   5.734   2.706   7.192 -0.6962  1.3353  2.1697
 5144TIP3   OH239626   7.193   4.987   8.152  0.0464  0.9431 -0.1890
 5144TIP3    H139627   7.182   5.082   8.147  0.8222  0.9922 -1.9002
 5144TIP3    H239628   7.286   4.973   8.133  0.5284 -0.0542  2.4430
 5145TIP3   OH239629   6.283   5.144   6.536  0.3106 -0.1893 -0.4866
 5145TIP3    H139630   6.262   5.080   6.604 -0.7771 -0.0322 -0.6576
 5145TIP3    H239631   6.245   5.226   6.567 -0.1535 -0.1025 -1.2386
 5146TIP3   OH239632   1.458   3.443   9.595 -0.3456  0.5229 -0.4442
 5146TIP3    H139633   1.459   3.534   9.565 -2.0450  0.5450 -0.5326
 5146TIP3    H239634   1.535   3.435   9.650 -0.5270  2.2204  0.1089
 5147TIP3   OH239635   6.956   3.221   8.129 -0.1881 -0.0805  0.2853
 5147TIP3    H139636   7.025   3.235   8.194  1.3155  1.1547 -1.4548
 5147TIP3    H239637   6.878   3.261   8.167  0.2301 -0.7842  1.9657
 5148TIP3   OH239638   3.252   5.762   7.731  0.2841 -0.6158  0.0379
 5148TIP3    H139639   3.158   5.753   7.715  0.3819  0.8969 -1.8264
 5148TIP3    H239640   3.291   5.694   7.676  0.3316  0.3718 -1.2166
 5149TIP3   OH239641   5.825   3.602   8.420 -0.3305 -0.4893  0.1816
 5149TIP3    H139642   5.773   3.671   8.379  0.4961  0.4116  0.6019
 5149TIP3    H239643   5.761   3.542   8.457 -1.0706 -0.0372 -0.3409
 5150TIP3   OH239644   6.803   1.422   9.709  0.6854  0.0239 -0.1175
 5150TIP3    H139645   6.806   1.387   9.620 -0.9471  0.2749 -0.2939
 5150TIP3    H239646   6.839   1.510   9.701  1.1505 -0.1877 -0.4061
 5151TIP3   OH239647   5.701   3.212   7.155 -0.4735 -0.0291  0.3271
 5151TIP3    H139648   5.653   3.231   7.236 -1.5354 -2.2697  0.3212
 5151TIP3    H239649   5.633   3.210   7.087 -0.1354 -1.4787  0.0019
 5152TIP3   OH239650   4.446   3.113   7.778  0.0909  0.1334 -0.1701
 5152TIP3    H139651   4.531   3.131   7.738  0.2439 -0.0024  0.0905
 5152TIP3    H239652   4.441   3.172   7.853 -0.5449  0.9749 -0.8411
 5153TIP3   OH239653   2.283   1.779   8.033 -0.4714 -0.2132 -0.1354
 5153TIP3    H139654   2.244   1.753   8.117 -1.0079  0.4574 -0.1675
 5153TIP3    H239655   2.361   1.829   8.057  0.9417 -2.3169 -0.0746
 5154TIP3   OH239656   5.199   5.858   6.851 -0.2738 -0.1716 -0.1483
 5154TIP3    H139657   5.150   5.776   6.850 -1.4852  0.5376 -0.6024
 5154TIP3    H239658   5.224   5.872   6.759  0.0645 -0.0968 -0.0481
 5155TIP3   OH239659   0.378   3.192   9.428  0.0618 -0.1524 -0.4920
 5155TIP3    H139660   0.324   3.125   9.386  0.0615 -1.0028  0.8218
 5155TIP3    H239661   0.352   3.274   9.384  0.0715 -0.9738 -2.1267
 5156TIP3   OH239662   4.692   3.989   9.047  0.4287  0.5494  0.5454
 5156TIP3    H139663   4.599   3.973   9.030  0.0660  0.4441  2.4135
 5156TIP3    H239664   4.696   4.082   9.069  1.1311  1.0622 -1.5228
 5157TIP3   OH239665   0.421   4.144   7.949  0.0238  0.7667  0.0462
 5157TIP3    H139666   0.484   4.137   7.879  2.2495 -0.4518  2.0393
 5157TIP3    H239667   0.393   4.054   7.967 -1.4337  1.1698 -0.0203
 5158TIP3   OH239668   2.155   4.339   9.543  0.6012  0.2031  0.4278
 5158TIP3    H139669   2.122   4.266   9.596  0.9064 -0.8473 -0.7800
 5158TIP3    H239670   2.221   4.381   9.598 -0.4788  0.3859  1.6438
 5159TIP3   OH239671   4.095   6.605   9.224  0.1067 -0.3618  0.3104
 5159TIP3    H139672   4.063   6.692   9.199 -0.0218 -0.6392 -0.5306
 5159TIP3    H239673   4.173   6.623   9.277  1.7128  0.2747 -2.0808
 5160TIP3   OH239674   2.907   1.396   8.645 -0.2009 -0.0761 -0.1041
 5160TIP3    H139675   2.858   1.469   8.608  1.3041  0.7287 -0.5608
 5160TIP3    H239676   2.884   1.397   8.738 -0.0683  1.0974 -0.0719
 5161TIP3   OH239677   6.667   2.141   8.247 -0.1242  0.1399  0.2808
 5161TIP3    H139678   6.634   2.064   8.293 -1.1953  1.4504  1.8341
 5161TIP3    H239679   6.732   2.179   8.306 -0.0928  0.7863 -0.1544
 5162TIP3   OH239680   0.114   4.974   7.888  0.2357 -0.1132  0.3515
 5162TIP3    H139681   0.114   4.888   7.846 -0.5611 -0.5014  1.1114
 5162TIP3    H239682   0.143   4.956   7.978  0.7334  0.5158  0.3169
 5163TIP3   OH239683   2.273   0.472   8.065 -0.4201  0.2530 -0.1097
 5163TIP3    H139684   2.249   0.425   8.145 -1.5918  1.4127  0.2425
 5163TIP3    H239685   2.266   0.406   7.996  0.9116 -0.8446  0.7428
 5164TIP3   OH239686   1.442   5.797   7.747 -0.5360 -0.0014 -0.1081
 5164TIP3    H139687   1.390   5.864   7.702 -1.3522  0.2308  1.1526
 5164TIP3    H239688   1.455   5.831   7.835  1.2628 -0.3428 -0.1969
 5165TIP3   OH239689   1.592   6.178   8.098 -0.0415 -0.5732 -0.2511
 5165TIP3    H139690   1.610   6.249   8.159 -0.4414 -3.2447  3.3246
 5165TIP3    H239691   1.679   6.144   8.075  0.1156 -1.9109  2.0511
 5166TIP3   OH239692   4.601   5.852   7.754  0.5262 -0.2780 -0.5458
 5166TIP3    H139693   4.668   5.805   7.804 -0.6246 -0.8073  0.5596
 5166TIP3    H239694   4.630   5.845   7.663 -0.2216 -4.3591 -0.6481
 5167TIP3   OH239695   2.179   4.316   9.181  0.4852 -0.6713  0.7779
 5167TIP3    H139696   2.148   4.256   9.248  0.0052 -2.0488 -0.6224
 5167TIP3    H239697   2.263   4.347   9.214 -0.2918 -0.3257  2.5757
 5168TIP3   OH239698   3.073   2.214   6.925 -0.6840 -0.1964 -0.6840
 5168TIP3    H139699   3.106   2.169   6.847 -2.2688 -0.8637 -1.0110
 5168TIP3    H239700   3.103   2.160   6.998 -0.4596 -0.3997 -0.9253
 5169TIP3   OH239701   0.193   7.321   7.546  0.0512 -0.6504 -0.0941
 5169TIP3    H139702   0.187   7.348   7.455  1.0379 -0.6975 -0.1817
 5169TIP3    H239703   0.213   7.227   7.542 -0.1044 -0.6968  0.1709
 5170TIP3   OH239704   4.604   6.628   6.822 -0.4449  0.0668  0.2982
 5170TIP3    H139705   4.564   6.668   6.744  1.0927  1.2652  0.0767
 5170TIP3    H239706   4.558   6.669   6.895 -0.5657  0.3931  0.0442
 5171TIP3   OH239707   7.575   2.942   7.660 -0.0440 -0.0433 -0.1905
 5171TIP3    H139708   7.625   2.880   7.606  0.5068  0.1747  0.0628
 5171TIP3    H239709   7.541   3.005   7.597  0.0362 -0.1666 -0.3603
 5172TIP3   OH239710   3.187   6.823   8.178 -0.2442  1.2972  0.1869
 5172TIP3    H139711   3.094   6.817   8.201 -0.5117 -0.0163 -1.1459
 5172TIP3    H239712   3.218   6.733   8.175  0.9906  1.6988  0.2326
 5173TIP3   OH239713   1.096   4.722   9.218  0.0422  0.3124  0.2606
 5173TIP3    H139714   1.083   4.701   9.310  0.2733  0.4203  0.3194
 5173TIP3    H239715   1.120   4.815   9.218 -0.9975  0.5861  0.0072
 5174TIP3   OH239716   5.854   4.829   8.766 -0.7132  0.5947  0.6253
 5174TIP3    H139717   5.842   4.736   8.750 -1.3941  0.5959  1.0733
 5174TIP3    H239718   5.942   4.848   8.733 -0.5699 -0.1993  0.5242
 5175TIP3   OH239719   6.665   1.361   7.547 -0.0858  0.5557 -0.2740
 5175TIP3    H139720   6.647   1.295   7.480  1.1628  0.7753 -0.8584
 5175TIP3    H239721   6.687   1.311   7.625 -0.9973  0.2949 -0.1733
 5176TIP3   OH239722   4.135   6.308   6.724 -0.2572  0.3476 -0.4887
 5176TIP3    H139723   4.147   6.359   6.805 -0.9763 -1.0425  0.5344
 5176TIP3    H239724   4.210   6.331   6.670  0.5511  0.8763  0.8100
 5177TIP3   OH239725   5.624   5.871   7.273 -0.8278  0.0668  0.0627
 5177TIP3    H139726   5.602   5.850   7.364  0.5563  0.8964  0.6321
 5177TIP3    H239727   5.540   5.885   7.230 -1.4852  0.9054  1.5439
 5178TIP3   OH239728   5.633   2.348   8.332 -0.0130  0.7073  0.5214
 5178TIP3    H139729   5.695   2.308   8.393 -0.6319 -1.1676 -0.0259
 5178TIP3    H239730   5.675   2.431   8.307  1.8257 -0.0631  0.8899
 5179TIP3   OH239731   6.279   7.309   7.322 -0.0613  0.0439 -0.4818
 5179TIP3    H139732   6.295   7.316   7.228 -1.2184 -0.8998 -0.7813
 5179TIP3    H239733   6.356   7.347   7.363  0.4449  0.5036 -1.8151
 5180TIP3   OH239734   6.714   7.272   7.900  0.5286  0.5671  0.0021
 5180TIP3    H139735   6.808   7.263   7.884  0.4235 -0.9780  0.1020
 5180TIP3    H239736   6.681   7.182   7.901 -1.0970  1.1184 -0.8465
 5181TIP3   OH239737   1.298   5.424   9.392  0.1238 -0.2215  0.1015
 5181TIP3    H139738   1.339   5.457   9.311 -1.5442  0.8326 -0.3555
 5181TIP3    H239739   1.228   5.366   9.362 -0.1908 -0.2189  0.8124
 5182TIP3   OH239740   5.789   7.462   7.920 -0.3046 -0.0188 -0.0818
 5182TIP3    H139741   5.805   7.444   8.013  2.4696 -1.0541 -0.6644
 5182TIP3    H239742   5.768   7.377   7.882  0.7765 -0.0189 -0.7416
 5183TIP3   OH239743   5.801   1.084   9.527 -0.6008  0.1139  0.0497
 5183TIP3    H139744   5.748   1.162   9.540  0.7847  0.9205  1.2064
 5183TIP3    H239745   5.784   1.030   9.604 -0.9641 -0.3735 -0.3669
 5184TIP3   OH239746   5.566   4.335   7.436  0.2703  0.0094 -0.0887
 5184TIP3    H139747   5.491   4.379   7.476  0.6417 -0.3312  1.0339
 5184TIP3    H239748   5.543   4.328   7.344 -0.1071  1.8935 -0.1824
 5185TIP3   OH239749   0.252   4.210   8.183  0.4022  0.3575 -0.5525
 5185TIP3    H139750   0.179   4.167   8.227  0.9948 -1.5519 -1.3102
 5185TIP3    H239751   0.288   4.142   8.126  1.3904  1.9157 -1.8579
 5186TIP3   OH239752   6.869   4.161   6.954  0.0923 -0.0913 -0.0987
 5186TIP3    H139753   6.889   4.248   6.918  2.2543 -0.9992 -1.2912
 5186TIP3    H239754   6.793   4.132   6.905 -0.3440  0.9015 -0.0442
 5187TIP3   OH239755   5.024   6.717   8.634  0.6279 -0.2318  0.5021
 5187TIP3    H139756   5.088   6.786   8.651  0.5194  0.2363 -0.8587
 5187TIP3    H239757   5.039   6.652   8.703  2.7306 -0.2511  0.0924
 5188TIP3   OH239758   3.826   3.911   8.801  0.2508  0.0874 -0.3663
 5188TIP3    H139759   3.918   3.930   8.779  0.3464 -0.8590 -0.8146
 5188TIP3    H239760   3.782   3.996   8.793  1.2715  0.7775  0.8864
 5189TIP3   OH239761   5.283   4.815   8.680  0.0026 -0.0868 -0.0359
 5189TIP3    H139762   5.309   4.884   8.619 -0.0398  1.0202  1.1691
 5189TIP3    H239763   5.191   4.797   8.657 -0.0295  0.3458 -0.2609
 5190TIP3   OH239764   2.816   2.595   8.414  0.7324 -0.3052 -0.0590
 5190TIP3    H139765   2.724   2.591   8.441  0.5421  1.6708 -0.2481
 5190TIP3    H239766   2.819   2.544   8.333  0.2976 -2.2049  1.0707
 5191TIP3   OH239767   1.341   0.716   9.419 -0.1170  0.5977  0.2995
 5191TIP3    H139768   1.394   0.641   9.445  0.3815  0.2411 -1.6479
 5191TIP3    H239769   1.401   0.790   9.424  0.1611  0.4262 -0.4685
 5192TIP3   OH239770   3.404   1.316   8.249  0.4691  0.2866  0.1554
 5192TIP3    H139771   3.409   1.372   8.172 -1.4629  1.5564  0.8973
 5192TIP3    H239772   3.496   1.305   8.276  0.9147  3.6550  0.3609
 5193TIP3   OH239773   1.366   4.902   6.856  0.0550 -0.1663  0.2805
 5193TIP3    H139774   1.296   4.837   6.846 -0.4956  0.5897 -1.1685
 5193TIP3    H239775   1.336   4.959   6.927 -0.6885 -0.0288 -0.1260
 5194TIP3   OH239776   1.922   2.232   8.210 -0.3793 -0.1235  0.2964
 5194TIP3    H139777   1.851   2.290   8.179  0.0166  1.1211  1.6301
 5194TIP3    H239778   1.989   2.239   8.142 -0.7549  0.1927 -0.0518
 5195TIP3   OH239779   1.571   5.470   9.000 -0.3499  0.6232 -0.0392
 5195TIP3    H139780   1.610   5.489   9.085 -1.2294 -0.8164  0.7333
 5195TIP3    H239781   1.478   5.460   9.019 -0.2613 -2.2282 -0.6593
 5196TIP3   OH239782   4.694   0.774   8.192  0.2509  0.0513 -0.4468
 5196TIP3    H139783   4.610   0.733   8.211  0.2060  0.6690  0.7428
 5196TIP3    H239784   4.689   0.860   8.233  1.1360  0.4407 -1.1274
 5197TIP3   OH239785   5.676   5.376   7.883 -0.2809  0.0839 -0.1632
 5197TIP3    H139786   5.594   5.325   7.881 -0.1729 -0.1044  0.0914
 5197TIP3    H239787   5.657   5.454   7.832 -1.1172  0.7861  1.1778
 5198TIP3   OH239788   0.871   1.521   9.410 -0.3001 -0.7484 -0.1287
 5198TIP3    H139789   0.814   1.445   9.407 -0.4018 -0.6915  0.3163
 5198TIP3    H239790   0.927   1.506   9.486 -0.8308 -0.0252  0.4232
 5199TIP3   OH239791   2.972   5.597   8.469  0.0039 -0.1472  0.3395
 5199TIP3    H139792   3.027   5.634   8.400  1.0326  1.4629  1.9320
 5199TIP3    H239793   2.978   5.503   8.456 -1.0746  0.0755 -2.6474
 5200TIP3   OH239794   6.557   0.162   8.576  0.3338  0.3403 -0.2256
 5200TIP3    H139795   6.477   0.177   8.525  1.6255  1.8258 -1.9217
 5200TIP3    H239796   6.560   0.067   8.587 -2.8380  0.3293  1.9725
 5201TIP3   OH239797   4.376   6.813   7.564  0.2156 -0.0252 -0.0604
 5201TIP3    H139798   4.414   6.725   7.554  1.1762 -0.0748  3.0037
 5201TIP3    H239799   4.283   6.800   7.547  0.4822 -1.4064 -0.6928
 5202TIP3   OH239800   0.450   4.879   7.740 -0.3686 -0.4011 -0.7311
 5202TIP3    H139801   0.361   4.890   7.706 -0.2920 -0.5272 -0.9723
 5202TIP3    H239802   0.474   4.790   7.717 -0.0156 -0.2259 -1.0532
 5203TIP3   OH239803   5.725   2.155   7.580  0.0115 -0.2725 -0.1075
 5203TIP3    H139804   5.703   2.064   7.558 -2.0150  0.4027 -1.1087
 5203TIP3    H239805   5.641   2.200   7.585  0.9385  1.4763  0.8554
 5204TIP3   OH239806   6.819   0.719   8.702  0.2997  0.3806  0.2563
 5204TIP3    H139807   6.869   0.714   8.783  1.2753  0.2245 -0.3427
 5204TIP3    H239808   6.810   0.628   8.674  0.2202  0.4558  0.0360
 5205TIP3   OH239809   6.891   5.091   9.202  0.4498  0.5615 -0.0594
 5205TIP3    H139810   6.807   5.048   9.188  0.7849 -1.5407  3.2886
 5205TIP3    H239811   6.871   5.169   9.253  0.5481 -0.2735  1.2789
 5206TIP3   OH239812   6.981   7.258   7.445  0.4196  0.1552  0.1478
 5206TIP3    H139813   7.065   7.295   7.417  1.3059  0.1830  2.5609
 5206TIP3    H239814   7.003   7.172   7.481 -0.9252 -0.7255 -1.0292
 5207TIP3   OH239815   7.313   0.276   8.875 -0.4081  0.4724  0.0973
 5207TIP3    H139816   7.336   0.348   8.933 -1.0626  0.6302  0.1752
 5207TIP3    H239817   7.316   0.198   8.931 -0.5658  0.5616  0.2328
 5208TIP3   OH239818   3.663   0.070   7.327  0.0074  0.7194 -0.5047
 5208TIP3    H139819   3.649   0.051   7.234  0.4435  1.0358 -0.6428
 5208TIP3    H239820   3.643   0.164   7.335  0.0146  0.7024 -0.2888
 5209TIP3   OH239821   1.105   1.183   7.527  0.0326  0.1984  0.8479
 5209TIP3    H139822   1.167   1.210   7.595  2.0308 -0.2841 -0.6531
 5209TIP3    H239823   1.147   1.211   7.445 -1.2734 -1.0846 -0.3046
 5210TIP3   OH239824   1.912   4.996   7.920  0.2065 -0.3960  0.5735
 5210TIP3    H139825   1.975   5.027   7.985  2.7411  0.5166 -2.1122
 5210TIP3    H239826   1.944   4.910   7.894 -0.5471 -0.5845  0.2347
 5211TIP3   OH239827   5.729   5.594   9.290 -0.3187 -0.0625 -0.6354
 5211TIP3    H139828   5.637   5.615   9.302 -0.1594  0.0810  0.5491
 5211TIP3    H239829   5.772   5.679   9.279  0.0129  0.1726  1.7529
 5212TIP3   OH239830   6.431   1.356   9.418 -0.1016 -0.1179 -0.0253
 5212TIP3    H139831   6.469   1.340   9.505 -1.8242  2.1008  1.2599
 5212TIP3    H239832   6.466   1.441   9.391 -3.0072  1.4643  0.7069
 5213TIP3   OH239833   0.123   7.157   8.251 -0.2806 -0.2265  0.5208
 5213TIP3    H139834   0.082   7.239   8.279 -0.5573  0.0581 -0.6510
 5213TIP3    H239835   0.133   7.106   8.331 -0.2108  0.9033  1.2584
 5214TIP3   OH239836   3.354   6.885   8.740 -0.1213  0.2142 -0.0830
 5214TIP3    H139837   3.431   6.940   8.752  0.1482 -0.0496 -0.5920
 5214TIP3    H239838   3.384   6.796   8.761 -0.4250  0.1807  0.2373
 5215TIP3   OH239839   5.665   0.718   9.121 -0.3647  0.3810 -0.1966
 5215TIP3    H139840   5.657   0.701   9.027  1.3146  1.3103 -0.5493
 5215TIP3    H239841   5.618   0.800   9.135  0.6657  1.0530 -0.5452
 5216TIP3   OH239842   2.794   4.055   8.718  0.3962 -0.1176  0.2942
 5216TIP3    H139843   2.889   4.045   8.724  0.6113  0.1928 -1.9769
 5216TIP3    H239844   2.772   4.114   8.790  1.8715 -0.3632  0.9956
 5217TIP3   OH239845   0.502   5.966   7.478  0.2015  0.3737 -0.0422
 5217TIP3    H139846   0.532   5.903   7.544 -1.3019  1.7139  2.0476
 5217TIP3    H239847   0.581   6.016   7.456  0.9654 -0.8350 -0.1458
 5218TIP3   OH239848   2.629   4.916   7.238 -0.2028 -0.1561 -0.3715
 5218TIP3    H139849   2.559   4.956   7.186  1.4492 -0.2522 -2.8623
 5218TIP3    H239850   2.667   4.988   7.288 -2.1375 -0.1422  1.2184
 5219TIP3   OH239851   2.550   6.222   8.809 -0.0813  0.4111  0.5925
 5219TIP3    H139852   2.512   6.232   8.897 -0.6995  1.2587  0.2513
 5219TIP3    H239853   2.502   6.286   8.756  1.3985  1.0608 -0.0092
 5220TIP3   OH239854   4.553   0.660   8.797  0.1533 -0.0741  0.0108
 5220TIP3    H139855   4.584   0.633   8.710  0.1554 -0.3356  0.0923
 5220TIP3    H239856   4.466   0.697   8.780  0.3211  0.2561 -0.1577
 5221TIP3   OH239857   1.725   7.431   7.991 -0.0677 -0.1082 -0.6525
 5221TIP3    H139858   1.724   7.410   8.084 -0.6413 -0.3275 -0.7064
 5221TIP3    H239859   1.633   7.442   7.967 -0.0896 -1.8788 -1.5971
 5222TIP3   OH239860   2.703   4.224   7.388  0.1173  0.0853  0.5540
 5222TIP3    H139861   2.652   4.182   7.318  0.8805  0.2604 -0.1285
 5222TIP3    H239862   2.794   4.214   7.360  0.4501 -0.0517  1.6536
 5223TIP3   OH239863   6.257   6.602   9.017  0.2277  0.5076 -0.1725
 5223TIP3    H139864   6.287   6.691   9.035 -2.0044  1.0057  1.4565
 5223TIP3    H239865   6.305   6.548   9.080 -1.3308  1.1495  1.6552
 5224TIP3   OH239866   1.779   3.491   8.122 -0.6850 -0.0547 -0.2551
 5224TIP3    H139867   1.787   3.397   8.133 -0.0488 -0.0056 -0.2546
 5224TIP3    H239868   1.802   3.506   8.030 -1.3076  0.0432 -0.3972
 5225TIP3   OH239869   7.435   2.376   8.911 -0.2215  0.1984  0.3454
 5225TIP3    H139870   7.506   2.413   8.962  2.9388 -2.4800 -1.6642
 5225TIP3    H239871   7.380   2.330   8.974  0.7130  1.0162  1.7905
 5226TIP3   OH239872   1.285   6.160   8.075 -0.3073  0.1344 -0.8373
 5226TIP3    H139873   1.258   6.239   8.029 -0.8550 -0.2980 -1.2673
 5226TIP3    H239874   1.380   6.168   8.083 -0.1272 -0.0752 -2.5866
 5227TIP3   OH239875   4.633   1.370   8.300 -0.0188  0.5532  0.2307
 5227TIP3    H139876   4.574   1.439   8.330 -1.1516 -0.1765 -0.2641
 5227TIP3    H239877   4.626   1.372   8.205  0.8337  0.5044  0.1602
 5228TIP3   OH239878   2.432   0.057   7.246  0.5602 -0.1926  0.1563
 5228TIP3    H139879   2.487   0.024   7.317 -0.7715  1.2762  1.9518
 5228TIP3    H239880   2.358  -0.003   7.243  0.3623  0.0348  0.3861
 5229TIP3   OH239881   2.866   1.690   9.087  0.9523 -0.2204  0.2208
 5229TIP3    H139882   2.809   1.723   9.018  2.7727  1.3686 -0.6226
 5229TIP3    H239883   2.868   1.760   9.152  0.5539 -1.0154  1.1125
 5230TIP3   OH239884   5.585   7.321   8.437 -0.6198 -0.0277  0.4438
 5230TIP3    H139885   5.517   7.254   8.441  0.6803 -1.3958  1.0325
 5230TIP3    H239886   5.631   7.313   8.521  0.0990  1.0165  0.1683
 5231TIP3   OH239887   1.932   1.891   7.200 -0.1065  0.2104  0.6312
 5231TIP3    H139888   1.982   1.882   7.119  0.1425 -0.4160  0.8460
 5231TIP3    H239889   1.894   1.805   7.215 -1.2561  0.6729  0.4839
 5232TIP3   OH239890   2.490   0.901   7.583 -0.9509 -0.1448  0.3673
 5232TIP3    H139891   2.539   0.825   7.615  0.9267  0.6900 -0.4190
 5232TIP3    H239892   2.398   0.876   7.594 -0.3913 -2.4395  0.3360
 5233TIP3   OH239893   0.527   1.514   7.591  0.1567  0.6743  0.4881
 5233TIP3    H139894   0.478   1.527   7.510  0.6940  0.0442  0.0480
 5233TIP3    H239895   0.476   1.449   7.640  0.5625 -0.0267  0.0033
 5234TIP3   OH239896   0.549   1.078   8.604 -0.1511 -0.3645  0.0546
 5234TIP3    H139897   0.626   1.060   8.658 -0.6004 -1.6681  0.2964
 5234TIP3    H239898   0.486   1.118   8.664 -0.4457 -1.2973  0.3737
 5235TIP3   OH239899   6.383   7.496   7.661  0.2088 -0.3152 -0.1665
 5235TIP3    H139900   6.435   7.458   7.590  0.2576 -1.0404  0.2415
 5235TIP3    H239901   6.448   7.535   7.720  0.1161  1.1192 -0.9643
 5236TIP3   OH239902   0.368   4.780   8.369 -0.0572  0.2982 -0.2032
 5236TIP3    H139903   0.359   4.701   8.422  0.7228  0.4350  0.1586
 5236TIP3    H239904   0.345   4.852   8.428 -0.3450  0.3684 -0.4020
 5237TIP3   OH239905   1.549   5.221   7.887 -0.0478  0.0796  0.2701
 5237TIP3    H139906   1.602   5.301   7.890 -0.9516  0.6856  2.2476
 5237TIP3    H239907   1.476   5.244   7.829 -0.9124  1.1686  1.7077
 5238TIP3   OH239908   2.564   4.893   8.774 -0.1862  0.2676  0.3335
 5238TIP3    H139909   2.647   4.882   8.820 -1.1112 -1.9733  1.6387
 5238TIP3    H239910   2.497   4.874   8.839 -1.7079  1.0762 -0.9230
 5239TIP3   OH239911   5.743   6.156   6.703  0.5440 -0.1494  0.1988
 5239TIP3    H139912   5.817   6.216   6.701  0.2568  0.2010 -2.1336
 5239TIP3    H239913   5.666   6.212   6.712  0.2315 -0.0311 -2.5390
 5240TIP3   OH239914   5.555   6.825   7.549 -0.5872 -0.0232 -0.1159
 5240TIP3    H139915   5.638   6.809   7.595 -1.8781 -0.2554  2.2847
 5240TIP3    H239916   5.529   6.740   7.515 -0.3567 -0.1605  0.0523
 5241TIP3   OH239917   6.323   4.025   6.904  0.6003  0.1004  0.4313
 5241TIP3    H139918   6.238   3.981   6.896  1.0112 -0.8585  1.1690
 5241TIP3    H239919   6.361   3.989   6.984  0.7768  2.1385  1.3205
 5242TIP3   OH239920   1.222   6.249   6.890  0.2026 -0.3198 -0.3448
 5242TIP3    H139921   1.297   6.217   6.839  0.9895  1.1155 -0.1731
 5242TIP3    H239922   1.260   6.315   6.948 -1.0385 -0.3590  0.5515
 5243TIP3   OH239923   6.003   6.168   9.283 -0.7935 -0.1525  0.8379
 5243TIP3    H139924   6.080   6.114   9.266 -2.5642 -2.1513 -1.4471
 5243TIP3    H239925   6.026   6.255   9.250  0.2976 -0.8603 -0.3258
 5244TIP3   OH239926   7.370   3.863   8.062  0.5450  0.0561 -0.3218
 5244TIP3    H139927   7.313   3.829   8.130  0.8781  1.9285  0.9733
 5244TIP3    H239928   7.436   3.914   8.109  2.7238 -1.1934 -1.8242
 5245TIP3   OH239929   4.866   4.039   8.515 -0.3359  0.5609  0.1151
 5245TIP3    H139930   4.864   4.099   8.441 -0.9615 -0.7103 -0.9423
 5245TIP3    H239931   4.781   3.995   8.512  0.1761 -0.5202  0.7199
 5246TIP3   OH239932   3.075   0.665   9.463 -0.2333 -0.1142  0.5812
 5246TIP3    H139933   3.134   0.593   9.440  0.6786  0.4493  1.0864
 5246TIP3    H239934   3.112   0.742   9.420  0.1619  0.4953  1.9463
 5247TIP3   OH239935   7.217   1.192   9.607 -0.8452  0.4499 -0.1661
 5247TIP3    H139936   7.128   1.165   9.629 -0.3065 -3.3772 -1.9582
 5247TIP3    H239937   7.259   1.113   9.575  3.7259  1.6946  1.8930
 5248TIP3   OH239938   2.302   1.149   7.782 -0.2130  0.3848 -0.0472
 5248TIP3    H139939   2.209   1.153   7.803 -0.3913  1.2343 -0.9048
 5248TIP3    H239940   2.307   1.174   7.690  0.7289 -1.1914 -0.4565
 5249TIP3   OH239941   5.051   2.255   8.407 -0.0811 -0.1381  0.4634
 5249TIP3    H139942   5.076   2.337   8.366 -0.1936 -0.3706 -0.0716
 5249TIP3    H239943   5.126   2.231   8.462  1.0173 -0.9635 -1.3128
 5250TIP3   OH239944   1.112   7.015   8.747  0.2265  0.2716  0.0917
 5250TIP3    H139945   1.207   6.999   8.742  0.3413  0.5348  1.1246
 5250TIP3    H239946   1.078   6.941   8.798 -0.1485  0.0888 -0.4257
 5251TIP3   OH239947   2.362   6.842   8.262  0.0155 -0.2593  0.0675
 5251TIP3    H139948   2.441   6.789   8.254  0.8896  0.9759  0.1372
 5251TIP3    H239949   2.366   6.877   8.351 -0.4381  0.0770 -0.0408
 5252TIP3   OH239950   4.996   5.908   7.709 -0.0185 -0.1999 -0.4577
 5252TIP3    H139951   4.982   5.830   7.655  1.1068 -1.1268  0.5066
 5252TIP3    H239952   4.989   5.875   7.799 -1.9668  1.3126  0.0213
 5253TIP3   OH239953   7.053   6.425   8.084 -0.4097  0.2514  0.2213
 5253TIP3    H139954   7.129   6.368   8.069 -0.9315 -0.5772  0.6618
 5253TIP3    H239955   6.977   6.369   8.069 -0.9369  0.7103  1.0962
 5254TIP3   OH239956   0.584   1.364   7.220 -0.0980 -0.6999 -0.4812
 5254TIP3    H139957   0.626   1.304   7.282 -0.4098 -1.6267 -1.1515
 5254TIP3    H239958   0.495   1.329   7.209 -0.0526 -0.5409 -1.4345
 5255TIP3   OH239959   2.192   1.901   9.479  0.2175 -0.0065 -0.3116
 5255TIP3    H139960   2.240   1.959   9.538  0.5119  0.5724 -1.0977
 5255TIP3    H239961   2.161   1.959   9.409 -0.0808 -0.6834 -0.7464
 5256TIP3   OH239962   3.900   4.797   8.483 -0.1511 -0.4658  0.0739
 5256TIP3    H139963   3.907   4.706   8.512  1.5808 -0.8152 -1.2590
 5256TIP3    H239964   3.989   4.832   8.490 -0.8866  1.3698  1.1787
 5257TIP3   OH239965   5.296   2.712   9.076  0.3881 -0.5867  0.1312
 5257TIP3    H139966   5.270   2.803   9.062  2.8043 -0.1017 -1.9317
 5257TIP3    H239967   5.329   2.711   9.166  0.6279  0.6727  0.0809
 5258TIP3   OH239968   7.047   4.709   7.801  0.2568 -0.0574 -0.8694
 5258TIP3    H139969   7.022   4.617   7.790 -2.0753  0.6809 -2.6266
 5258TIP3    H239970   7.081   4.735   7.715  0.7858  0.7653 -0.4248
 5259TIP3   OH239971   1.683   3.843   9.103  0.0439 -0.4287  0.1847
 5259TIP3    H139972   1.604   3.896   9.095  0.7452  0.6042 -0.0962
 5259TIP3    H239973   1.651   3.755   9.123 -1.1493  0.1002  0.7007
 5260TIP3   OH239974   6.477   1.846   7.184  0.2883 -0.5653 -0.2343
 5260TIP3    H139975   6.401   1.867   7.129  1.1633 -0.0974 -1.3133
 5260TIP3    H239976   6.552   1.873   7.131  1.3650 -3.4942 -0.3578
 5261TIP3   OH239977   1.608   5.757   9.203  0.1876  0.2807  0.5175
 5261TIP3    H139978   1.662   5.681   9.225  0.3203  0.7684  1.9742
 5261TIP3    H239979   1.589   5.798   9.287 -0.0040  1.7863 -0.2290
 5262TIP3   OH239980   1.988   6.751   9.582  0.4352 -0.3010  0.2839
 5262TIP3    H139981   2.012   6.728   9.672 -0.2824 -1.8113  0.1306
 5262TIP3    H239982   2.062   6.722   9.530 -0.3468 -2.1900  0.1226
 5263TIP3   OH239983   4.737   3.817   8.628 -0.0490 -0.1229 -0.4089
 5263TIP3    H139984   4.808   3.781   8.681 -1.4100 -1.7165  0.4136
 5263TIP3    H239985   4.723   3.753   8.559 -1.1326 -0.1890 -0.1518
 5264TIP3   OH239986   0.807   0.993   7.666 -0.0531  0.3063  0.4968
 5264TIP3    H139987   0.779   1.081   7.690  0.9162  0.6450  0.4380
 5264TIP3    H239988   0.859   1.006   7.586  0.5352 -0.2555  0.7853
 5265TIP3   OH239989   0.538   6.751   8.663  0.2620 -0.1479 -0.3381
 5265TIP3    H139990   0.513   6.843   8.674 -0.8590 -0.5338  0.5613
 5265TIP3    H239991   0.491   6.705   8.732  1.3512 -1.3201 -0.3530
 5266TIP3   OH239992   1.195   3.039   8.288  0.2609 -0.1339 -0.4181
 5266TIP3    H139993   1.108   3.000   8.295  0.1586 -0.1868 -1.6878
 5266TIP3    H239994   1.196   3.110   8.352 -0.4264 -0.6329  0.1570
 5267TIP3   OH239995   3.125   6.954   7.942 -0.0188  0.1821 -0.3429
 5267TIP3    H139996   3.154   6.916   8.025 -2.6124  0.0152  0.5681
 5267TIP3    H239997   3.185   6.917   7.877  0.5634 -1.6115  1.1324
 5268TIP3   OH239998   7.466   3.300   8.552  0.0236 -0.3886 -0.1348
 5268TIP3    H139999   7.394   3.356   8.523 -1.7396 -3.0412 -1.3581
 5268TIP3    H240000   7.425   3.237   8.610  1.8786 -0.5615  1.0650
 5269TIP3   OH240001   3.065   6.436   6.787  0.2913  0.4552  0.3378
 5269TIP3    H140002   3.160   6.454   6.787  0.4717 -0.3204 -1.1533
 5269TIP3    H240003   3.031   6.488   6.860  1.6015  2.1969 -0.2006
 5270TIP3   OH240004   2.956   0.948   8.645 -0.2351  0.2429  0.6830
 5270TIP3    H140005   2.894   0.919   8.577  2.4172  0.7301 -2.1644
 5270TIP3    H240006   2.929   1.037   8.664 -0.1415  0.6764 -0.9913
 5271TIP3   OH240007   2.275   1.178   9.235 -0.6874  0.0141  0.1605
 5271TIP3    H140008   2.238   1.264   9.255  0.2532  0.8756 -1.5662
 5271TIP3    H240009   2.361   1.179   9.277 -0.1035  0.4932 -1.0108
 5272TIP3   OH240010   4.279   4.626   6.818 -0.0275  0.4464 -0.0462
 5272TIP3    H140011   4.233   4.704   6.787 -1.0688  0.4265  1.3348
 5272TIP3    H240012   4.213   4.557   6.815 -0.2337  0.4542  2.1729
 5273TIP3   OH240013   3.506   3.132   7.822  0.3487 -0.2258  0.1121
 5273TIP3    H140014   3.567   3.145   7.895  0.0695  0.9597  0.1624
 5273TIP3    H240015   3.563   3.117   7.746  0.6574 -0.6698  0.4249
 5274TIP3   OH240016   0.416   3.248   8.748 -0.1538  0.9711  0.3679
 5274TIP3    H140017   0.397   3.338   8.721  2.1081  1.7951  1.2913
 5274TIP3    H240018   0.462   3.210   8.674 -0.9595  0.5926  0.0444
 5275TIP3   OH240019   7.555   2.585   8.721  0.0376 -0.3093 -0.4863
 5275TIP3    H140020   7.495   2.645   8.677 -0.0170 -0.3458 -0.4634
 5275TIP3    H240021   7.502   2.505   8.734  0.2088 -0.4767 -0.8093
 5276TIP3   OH240022   6.348   4.643   8.870 -0.1384  0.1853  0.0131
 5276TIP3    H140023   6.348   4.635   8.774 -1.5316 -0.0931  0.0205
 5276TIP3    H240024   6.440   4.636   8.894  0.1033 -1.3887 -1.1797
 5277TIP3   OH240025   2.437   0.455   7.101 -0.5682 -0.1835  0.1951
 5277TIP3    H140026   2.369   0.388   7.105 -0.5729 -0.1567  0.6108
 5277TIP3    H240027   2.428   0.503   7.183 -0.1495 -0.0794  0.1827
 5278TIP3   OH240028   0.677   5.262   8.130  0.2239  0.0441  0.6065
 5278TIP3    H140029   0.683   5.261   8.035 -2.1603  0.9419  0.3630
 5278TIP3    H240030   0.601   5.207   8.150  1.0086 -0.5791  2.0547
 5279TIP3   OH240031   1.662   1.383   8.237  0.5227 -0.3804 -0.6121
 5279TIP3    H140032   1.680   1.450   8.172  2.5673 -0.3944 -0.1390
 5279TIP3    H240033   1.568   1.387   8.252  0.5055  1.8877 -1.1188
 5280TIP3   OH240034   1.332   6.410   8.959  0.2672  0.2016 -0.5106
 5280TIP3    H140035   1.321   6.399   9.054  1.9075  0.7452 -0.2158
 5280TIP3    H240036   1.247   6.388   8.922  0.3640 -2.9814  0.8287
 5281TIP3   OH240037   3.985   0.450   7.357  0.1025 -0.2594  0.1416
 5281TIP3    H140038   3.920   0.380   7.367  0.6216 -1.0839 -1.7823
 5281TIP3    H240039   3.938   0.519   7.310  0.8416 -1.3437 -2.3528
 5282TIP3   OH240040   4.415   7.314   9.514  0.9227  0.4703 -0.5226
 5282TIP3    H140041   4.456   7.304   9.429  0.6693  0.8528 -0.6931
 5282TIP3    H240042   4.322   7.329   9.494  0.9936  1.3708 -0.2185
 5283TIP3   OH240043   7.178   0.678   9.488  0.1882 -0.0903 -0.5012
 5283TIP3    H140044   7.190   0.768   9.519 -0.1587  1.5034 -4.4065
 5283TIP3    H240045   7.266   0.641   9.491  0.6487  0.9566 -0.3845
 5284TIP3   OH240046   1.605   6.833   9.378 -0.3449  0.2071 -0.1382
 5284TIP3    H140047   1.529   6.778   9.395  0.5168 -1.1279 -0.4070
 5284TIP3    H240048   1.666   6.812   9.448 -0.4287  1.7211  0.4311
 5285TIP3   OH240049   7.623   4.267   8.018 -0.2987 -0.2049 -0.1834
 5285TIP3    H140050   7.592   4.183   7.982  0.1293 -0.8356  0.8963
 5285TIP3    H240051   7.593   4.267   8.108 -2.1939  1.8032 -0.7373
 5286TIP3   OH240052   2.471   4.194   7.862  0.1761  0.2304  0.6032
 5286TIP3    H140053   2.541   4.245   7.820 -0.7503  0.7330 -0.3668
 5286TIP3    H240054   2.391   4.221   7.817 -0.8241  0.5196  2.4551
 5287TIP3   OH240055   6.787   5.015   7.890 -0.3468  0.0261 -0.5472
 5287TIP3    H140056   6.872   5.044   7.854 -0.0331 -0.6900 -0.3964
 5287TIP3    H240057   6.810   4.956   7.962 -0.9205 -2.4490 -2.2784
 5288TIP3   OH240058   6.194   5.986   9.208 -0.4648 -0.1556  0.0608
 5288TIP3    H140059   6.273   6.036   9.187 -0.5429  0.0194  0.1895
 5288TIP3    H240060   6.157   5.962   9.123 -1.0415  0.9527 -0.0085
 5289TIP3   OH240061   3.631   0.349   7.381 -0.0128  0.3030 -0.4409
 5289TIP3    H140062   3.593   0.416   7.437 -2.0426 -0.4497 -0.8250
 5289TIP3    H240063   3.618   0.381   7.292 -0.1450 -0.1762 -0.5958
 5290TIP3   OH240064   2.567   5.988   8.211 -0.1132  0.4248  0.1573
 5290TIP3    H140065   2.598   5.904   8.244  0.1538  0.6954  0.6207
 5290TIP3    H240066   2.556   5.975   8.117  0.8772  0.1510  0.0635
 5291TIP3   OH240067   5.151   5.320   7.015  0.0058 -0.1076 -0.3363
 5291TIP3    H140068   5.081   5.364   6.966  0.6100 -0.6332 -1.6911
 5291TIP3    H240069   5.143   5.228   6.993  1.4569 -0.1132 -0.9415
 5292TIP3   OH240070   5.606   4.039   9.112  0.4661  0.5406  0.5998
 5292TIP3    H140071   5.539   3.973   9.096  0.7953  0.6243 -1.3769
 5292TIP3    H240072   5.685   3.989   9.133  1.0606  0.1293 -2.1799
 5293TIP3   OH240073   2.080   0.648   9.290 -0.4511  0.1011 -0.6547
 5293TIP3    H140074   1.988   0.668   9.272 -0.8709 -1.1172  0.0557
 5293TIP3    H240075   2.121   0.734   9.303 -1.3527  0.6859 -1.5166
 5294TIP3   OH240076   1.488   2.812   9.457  0.1286  1.1779  0.6701
 5294TIP3    H140077   1.536   2.869   9.397  0.0523  0.2230 -0.3370
 5294TIP3    H240078   1.409   2.861   9.479  0.5002  1.8326  0.5645
 5295TIP3   OH240079   6.714   5.583   7.539 -0.2810  0.5058 -0.1651
 5295TIP3    H140080   6.725   5.541   7.454 -1.6061  0.3576 -0.2932
 5295TIP3    H240081   6.697   5.510   7.600  3.3206  0.3118  0.8265
 5296TIP3   OH240082   2.186   5.486   9.429  0.3393 -0.4143 -0.1771
 5296TIP3    H140083   2.208   5.539   9.353 -0.5702 -0.6694 -0.6271
 5296TIP3    H240084   2.267   5.437   9.448  0.5533 -0.3970 -1.0174
 5297TIP3   OH240085   6.258   0.017   9.123  0.7012  0.0374  0.0550
 5297TIP3    H140086   6.179   0.020   9.068  0.5085 -0.5582  0.2979
 5297TIP3    H240087   6.300   0.102   9.107  0.4062  0.0625 -0.6552
 5298TIP3   OH240088   6.881   2.072   9.195 -0.1645 -0.1163 -0.0888
 5298TIP3    H140089   6.864   1.979   9.206 -0.8092  0.2944  3.5412
 5298TIP3    H240090   6.959   2.076   9.140 -0.2885 -2.7438 -0.5703
 5299TIP3   OH240091   2.046   2.152   7.343 -0.6640 -0.1984 -0.1150
 5299TIP3    H140092   2.028   2.063   7.314 -1.1642  0.4164 -1.8138
 5299TIP3    H240093   2.141   2.156   7.352 -0.7450 -1.4908  2.1438
 5300TIP3   OH240094   3.975   6.422   9.387  0.1202 -0.1895 -0.2009
 5300TIP3    H140095   4.000   6.478   9.313  0.6992  2.2410  1.7120
 5300TIP3    H240096   4.038   6.350   9.384 -0.0187 -0.2976 -2.1872
 5301TIP3   OH240097   3.688   6.084   7.436  0.1976 -0.0017  0.0119
 5301TIP3    H140098   3.608   6.137   7.433 -0.0392 -0.3832 -1.0400
 5301TIP3    H240099   3.741   6.117   7.364  0.3037 -0.7854 -0.2819
 5302TIP3   OH240100   3.147   4.282   9.002 -0.7477  0.3248 -0.6603
 5302TIP3    H140101   3.111   4.199   9.034  2.6793 -0.6896  0.9828
 5302TIP3    H240102   3.179   4.262   8.914 -1.0856  0.2901 -0.7778
 5303TIP3   OH240103   7.596   6.975   8.939  0.2495 -0.6819  0.3745
 5303TIP3    H140104   7.505   6.969   8.911 -0.0670  0.3044  1.1139
 5303TIP3    H240105   7.645   6.995   8.859 -0.3570  0.0683  0.1826
 5304TIP3   OH240106   0.115   2.002   7.081 -0.0566 -0.0366 -0.6683
 5304TIP3    H140107   0.093   1.956   7.000 -4.7380  1.7961 -0.8038
 5304TIP3    H240108   0.088   2.093   7.064  1.7971  1.1233  1.9582
 5305TIP3   OH240109   1.817   1.971   9.269  0.2119  0.3648  0.4768
 5305TIP3    H140110   1.910   1.986   9.258  0.1496  1.2877  1.0716
 5305TIP3    H240111   1.790   2.035   9.336 -0.9266  0.4386 -0.0245
 5306TIP3   OH240112   0.633   7.296   8.953  0.2335 -0.7584 -0.1136
 5306TIP3    H140113   0.636   7.354   9.029 -1.6910  2.0630 -2.0164
 5306TIP3    H240114   0.696   7.226   8.974  0.6959  0.5247  3.4722
 5307TIP3   OH240115   3.176   6.033   8.461 -0.2286 -0.3987  0.0861
 5307TIP3    H140116   3.157   5.981   8.383  0.2064  0.0469 -0.3226
 5307TIP3    H240117   3.096   6.027   8.513 -1.0860  0.4764 -1.0616
 5308TIP3   OH240118   3.293   1.463   9.380 -0.0338  0.0249 -0.0958
 5308TIP3    H140119   3.301   1.438   9.472  0.4462 -2.4851 -0.7636
 5308TIP3    H240120   3.213   1.515   9.377 -0.9929 -1.2674  1.4869
 5309TIP3   OH240121   2.743   6.776   8.899  0.0786 -0.4846 -0.3316
 5309TIP3    H140122   2.777   6.707   8.842 -0.0981 -3.2019  2.5583
 5309TIP3    H240123   2.648   6.775   8.886 -0.0454 -1.6776  0.5146
 5310TIP3   OH240124   5.242   4.387   7.837 -0.6278  0.0722  0.7002
 5310TIP3    H140125   5.279   4.315   7.786  1.9666  0.4575  1.8563
 5310TIP3    H240126   5.259   4.465   7.785 -1.5781  0.0771  0.3819
 5311TIP3   OH240127   6.723   6.022   7.866 -0.1185  0.5087 -0.0101
 5311TIP3    H140128   6.710   5.991   7.776  0.4622  0.6498 -0.1482
 5311TIP3    H240129   6.736   5.942   7.917  1.0788  0.4842 -0.3149
 5312TIP3   OH240130   0.831   1.849   7.167  0.2079  0.2272  0.2052
 5312TIP3    H140131   0.830   1.797   7.247 -0.9906  0.0710  0.1137
 5312TIP3    H240132   0.895   1.918   7.183  0.1570  0.0552  1.2004
 5313TIP3   OH240133   3.384   2.707   9.432 -0.3605  0.4620  0.1447
 5313TIP3    H140134   3.394   2.771   9.503  0.1816  0.5762 -0.0310
 5313TIP3    H240135   3.443   2.738   9.364 -1.8945  1.1345 -0.9407
 5314TIP3   OH240136   4.521   5.871   6.976  0.3179 -0.0881  0.0726
 5314TIP3    H140137   4.580   5.859   7.050 -0.5988  0.1211  0.8498
 5314TIP3    H240138   4.521   5.786   6.931  0.1059 -0.5167  0.8815
 5315TIP3   OH240139   5.915   2.076   7.286  0.3917 -0.2310 -0.0654
 5315TIP3    H140140   5.901   1.986   7.316  1.2172 -0.1477  0.6171
 5315TIP3    H240141   5.829   2.117   7.293  0.2930 -0.5756  0.9897
 5316TIP3   OH240142   2.095   1.116   7.967 -0.3052 -0.3298 -0.5761
 5316TIP3    H140143   2.134   1.138   8.052  2.4030  0.2235 -1.8761
 5316TIP3    H240144   2.065   1.026   7.977 -1.9649  0.3602  1.5530
 5317TIP3   OH240145   7.002   4.434   7.820  0.0839  0.7172 -0.1975
 5317TIP3    H140146   7.045   4.370   7.763  0.3162  1.3434 -0.7331
 5317TIP3    H240147   6.912   4.438   7.789  0.3455  1.4697 -0.9046
 5318TIP3   OH240148   4.955   4.004   9.018  0.1380  0.3101 -0.3142
 5318TIP3    H140149   4.865   3.976   9.001  0.2332 -0.4851  0.4465
 5318TIP3    H240150   5.004   3.979   8.940 -0.2297  0.4359 -0.5873
 5319TIP3   OH240151   6.876   6.574   8.233  0.5312  0.3673  0.2440
 5319TIP3    H140152   6.944   6.538   8.176 -1.2279 -0.7390 -1.2598
 5319TIP3    H240153   6.885   6.527   8.316  1.8849  0.6182  0.2617
 5320TIP3   OH240154   3.408   5.773   8.719  0.5317  0.3120 -0.3929
 5320TIP3    H140155   3.472   5.781   8.790  0.2851 -0.7384 -0.0317
 5320TIP3    H240156   3.413   5.856   8.672  2.9630 -0.1240 -1.0367
 5321TIP3   OH240157   7.607   1.207   7.002  0.2808 -0.2476  0.3406
 5321TIP3    H140158   7.612   1.122   6.957  0.8686  0.2204 -0.5136
 5321TIP3    H240159   7.585   1.185   7.092 -0.2160 -1.2693 -0.0100
 5322TIP3   OH240160   4.548   0.612   7.924 -0.0471  0.0736 -0.1351
 5322TIP3    H140161   4.551   0.547   7.995 -0.7097  0.9342  0.7005
 5322TIP3    H240162   4.458   0.643   7.924  0.3152  1.1672 -0.3614
 5323TIP3   OH240163   1.873   6.034   6.813  0.1752  0.2986 -0.0729
 5323TIP3    H140164   1.806   6.090   6.776  1.0337  0.5219 -1.3399
 5323TIP3    H240165   1.930   6.093   6.863 -1.0251 -0.0120  1.7784
 5324TIP3   OH240166   5.415   1.532   9.168  0.4370  0.3833  0.0220
 5324TIP3    H140167   5.427   1.437   9.167 -1.7772  0.0139  1.3395
 5324TIP3    H240168   5.328   1.544   9.205  0.9232  2.9638  0.4827
 5325TIP3   OH240169   7.254   7.026   7.822 -0.2414  0.0812 -0.3558
 5325TIP3    H140170   7.329   7.083   7.840 -0.9150  0.0795  3.0823
 5325TIP3    H240171   7.293   6.944   7.792  0.7922  1.7310 -4.1475
 5326TIP3   OH240172   7.335   5.529   9.445 -0.3263  0.3793 -0.1936
 5326TIP3    H140173   7.289   5.524   9.361 -0.0624  1.5119 -0.4337
 5326TIP3    H240174   7.288   5.596   9.494  0.9795  1.5317 -0.4293
 5327TIP3   OH240175   1.956   0.498   7.969  0.0665 -0.1126  0.2778
 5327TIP3    H140176   1.973   0.503   7.875  1.5273  0.8068  0.5648
 5327TIP3    H240177   1.907   0.578   7.989 -0.3489 -0.3659  0.2991
 5328TIP3   OH240178   2.607   3.582   7.778 -0.4270  0.8177 -0.2279
 5328TIP3    H140179   2.534   3.534   7.740 -0.4235  0.8393 -0.2625
 5328TIP3    H240180   2.587   3.674   7.760  0.4139  0.7419 -1.6904
 5329TIP3   OH240181   2.164   3.677   8.816  0.4328 -0.0006 -0.4194
 5329TIP3    H140182   2.160   3.705   8.725  0.6393 -1.9119 -1.0760
 5329TIP3    H240183   2.072   3.673   8.844  0.3355  0.0499 -0.7306
 5330TIP3   OH240184   5.946   5.471   6.617  0.0915  0.4320 -0.0754
 5330TIP3    H140185   5.858   5.501   6.594  0.4345  0.5707 -1.2818
 5330TIP3    H240186   5.974   5.529   6.687 -0.5046  0.8345 -0.1663
 5331TIP3   OH240187   4.684   4.282   8.607 -0.0160  0.4385  0.5670
 5331TIP3    H140188   4.665   4.274   8.700  0.4291 -1.9383  0.5234
 5331TIP3    H240189   4.777   4.261   8.599 -0.3557 -0.8158 -0.5237
 5332TIP3   OH240190   3.705   3.108   9.118 -0.0924  0.0350 -0.7507
 5332TIP3    H140191   3.641   3.111   9.189  1.7908 -3.3520  1.3696
 5332TIP3    H240192   3.678   3.032   9.066  1.1375 -0.3326 -0.8840
 5333TIP3   OH240193   1.902   6.281   9.327 -0.2545  0.5347  0.8771
 5333TIP3    H140194   1.860   6.220   9.266 -1.0896  1.7576  0.1857
 5333TIP3    H240195   1.972   6.321   9.276 -1.0166  1.6329  0.6709
 5334TIP3   OH240196   3.209   1.120   9.419 -0.0110 -0.4404  0.3521
 5334TIP3    H140197   3.136   1.134   9.359  0.2485 -0.7390 -0.0482
 5334TIP3    H240198   3.287   1.139   9.366  0.2567 -1.3989  0.3772
 5335TIP3   OH240199   5.090   6.951   7.807 -0.0328 -0.1038 -0.6655
 5335TIP3    H140200   5.184   6.946   7.793  0.1826  0.8109  0.3216
 5335TIP3    H240201   5.079   7.021   7.872 -1.1722 -1.8958  1.1976
 5336TIP3   OH240202   0.434   0.194   9.072  0.6596  0.7286  0.2440
 5336TIP3    H140203   0.354   0.233   9.108 -1.3331 -1.7703 -1.1565
 5336TIP3    H240204   0.487   0.173   9.149 -0.4723  1.5314  1.2766
 5337TIP3   OH240205   6.084   1.601   9.481  0.6412 -0.3288  0.2687
 5337TIP3    H140206   6.003   1.626   9.524 -1.7520 -1.3442 -3.2674
 5337TIP3    H240207   6.072   1.510   9.455  2.6187 -0.3191 -0.9680
 5338TIP3   OH240208   0.015   0.547   9.641 -0.0990  0.2490  0.4844
 5338TIP3    H140209   0.089   0.491   9.667 -0.2687 -0.8800 -1.2785
 5338TIP3    H240210   0.048   0.636   9.652  1.8639 -0.2146 -1.0293
 5339TIP3   OH240211   1.954   5.262   8.435 -0.0037  0.3350 -0.4950
 5339TIP3    H140212   1.974   5.169   8.444  0.7279  0.5421  0.1637
 5339TIP3    H240213   2.018   5.294   8.371  0.0043  0.4686 -0.4190
 5340TIP3   OH240214   6.355   4.599   7.178  0.5724  0.0516 -0.1248
 5340TIP3    H140215   6.397   4.670   7.225  1.2758 -0.3312 -0.1631
 5340TIP3    H240216   6.367   4.522   7.235  0.0456 -0.0926 -0.2006
 5341TIP3   OH240217   3.726   5.614   7.624 -0.3348  0.1042  0.3155
 5341TIP3    H140218   3.752   5.698   7.661  0.1133 -0.5817  1.6565
 5341TIP3    H240219   3.788   5.551   7.661 -1.2394 -0.9484  0.1110
 5342TIP3   OH240220   2.948   7.586   8.896  0.4499  0.1654 -0.0273
 5342TIP3    H140221   2.898   7.604   8.816  0.7937  1.0916 -0.0384
 5342TIP3    H240222   3.020   7.648   8.894  2.1449 -1.6933 -0.4374
 5343TIP3   OH240223   4.595   3.461   8.455  0.1777 -0.6019 -0.5964
 5343TIP3    H140224   4.657   3.412   8.509  1.2126 -0.9991 -2.0752
 5343TIP3    H240225   4.648   3.531   8.415 -0.4378 -0.5869 -1.4306
 5344TIP3   OH240226   2.433   6.978   7.354 -0.1459 -0.1036  0.0439
 5344TIP3    H140227   2.384   6.897   7.369 -0.0015 -0.0011  1.1867
 5344TIP3    H240228   2.516   6.949   7.317  0.0788 -0.5386  0.8452
 5345TIP3   OH240229   3.065   0.327   9.464  0.1240 -0.6274 -0.3103
 5345TIP3    H140230   3.008   0.260   9.426 -0.7122 -0.7559  1.1200
 5345TIP3    H240231   3.127   0.278   9.518 -1.3288 -0.2349  1.8315
 5346TIP3   OH240232   5.821   6.840   7.937 -0.1924  0.5532  0.0222
 5346TIP3    H140233   5.822   6.820   8.030  3.9799 -0.1058  0.0280
 5346TIP3    H240234   5.845   6.932   7.932  0.5588  0.3464 -0.3701
 5347TIP3   OH240235   6.759   2.323   7.640  0.4496  0.0995  0.3707
 5347TIP3    H140236   6.744   2.333   7.545  2.6766 -0.8034 -0.1312
 5347TIP3    H240237   6.801   2.405   7.666 -0.9135  0.6990  0.8090
 5348TIP3   OH240238   5.743   0.249   8.580  0.4257  0.2409 -0.0201
 5348TIP3    H140239   5.721   0.157   8.595 -0.3589  0.6116  1.2473
 5348TIP3    H240240   5.834   0.247   8.549  0.6047 -0.9354  0.5108
 5349TIP3   OH240241   0.390   2.479   9.070  0.9463 -0.2529 -0.0292
 5349TIP3    H140242   0.410   2.407   9.129  0.5320  0.4662  1.0157
 5349TIP3    H240243   0.296   2.468   9.051  1.1522 -0.6908 -0.8719
 5350TIP3   OH240244   1.902   7.574   9.542 -0.1103 -0.2609  0.0290
 5350TIP3    H140245   1.954   7.531   9.475  0.3847 -0.7145  0.6984
 5350TIP3    H240246   1.943   7.660   9.554  0.9777 -0.9259  1.1276
 5351TIP3   OH240247   7.003   3.023   9.432 -0.3525  0.6247 -0.0960
 5351TIP3    H140248   7.065   3.057   9.496 -0.2952  2.2888 -0.9879
 5351TIP3    H240249   7.033   2.933   9.416  1.5510  1.2159 -0.1297
 5352TIP3   OH240250   1.099   7.149   7.400  0.8534  0.1870  0.8217
 5352TIP3    H140251   1.171   7.088   7.385  1.8346  1.6517 -0.8957
 5352TIP3    H240252   1.110   7.216   7.331 -1.6793  0.8869  1.0037
 5353TIP3   OH240253   4.271   6.492   6.567  0.6186  0.2013 -0.3764
 5353TIP3    H140254   4.282   6.473   6.474  0.8606  1.1529 -0.5561
 5353TIP3    H240255   4.360   6.510   6.599  0.6244 -0.7703  0.1991
 5354TIP3   OH240256   6.384   1.382   7.214  0.1467  0.3361  0.3282
 5354TIP3    H140257   6.345   1.385   7.126 -0.4212  2.3021  0.5933
 5354TIP3    H240258   6.426   1.296   7.218 -0.4300 -0.1048 -1.5944
 5355TIP3   OH240259   2.352   2.569   8.350  0.0752 -0.1157 -0.1265
 5355TIP3    H140260   2.258   2.573   8.335 -0.0341  0.5038  0.6686
 5355TIP3    H240261   2.381   2.492   8.301 -0.8556 -0.3687 -0.2916
 5356TIP3   OH240262   1.680   7.102   9.334  0.4615 -0.5295  0.5299
 5356TIP3    H140263   1.615   7.171   9.346  1.5320  0.3188  1.6589
 5356TIP3    H240264   1.647   7.028   9.385  0.1404 -0.2709  0.6990
 5357TIP3   OH240265   6.861   5.507   8.847 -1.0527 -0.3931  0.7657
 5357TIP3    H140266   6.800   5.560   8.796 -0.2205 -0.3139 -0.1789
 5357TIP3    H240267   6.917   5.570   8.892 -0.1244 -0.4394 -0.2825
 5358TIP3   OH240268   3.696   4.960   9.451 -0.2128  0.5044  0.3305
 5358TIP3    H140269   3.744   4.891   9.498  0.2817  0.9894  0.5578
 5358TIP3    H240270   3.726   5.041   9.492  0.0939  0.9316 -0.7122
 5359TIP3   OH240271   4.977   2.456   9.014  0.0271 -0.4528 -0.2435
 5359TIP3    H140272   4.998   2.512   8.939 -0.2042 -1.8780 -1.4197
 5359TIP3    H240273   5.025   2.495   9.087  2.7138 -0.6532 -1.7346
 5360TIP3   OH240274   0.188   4.911   8.155  0.3959 -0.7471  0.3004
 5360TIP3    H140275   0.258   4.973   8.137 -0.2067  0.6149  2.3194
 5360TIP3    H240276   0.233   4.827   8.169  1.2931 -0.6181 -1.5135
 5361TIP3   OH240277   0.743   4.764   6.745 -0.4798  0.0078  0.4018
 5361TIP3    H140278   0.753   4.677   6.785 -1.2813 -0.2749  0.0102
 5361TIP3    H240279   0.819   4.772   6.687  0.4837  0.2672  1.6622
 5362TIP3   OH240280   1.118   5.946   8.006 -0.5479  0.0669  0.1152
 5362TIP3    H140281   1.171   5.891   7.948  0.5540  2.8279 -1.6996
 5362TIP3    H240282   1.180   6.009   8.041 -2.1815  1.8084 -0.0078
 5363TIP3   OH240283   6.383   6.256   7.744 -0.0204  0.2701  0.6405
 5363TIP3    H140284   6.321   6.228   7.811 -1.8861  0.6104 -0.8456
 5363TIP3    H240285   6.344   6.336   7.707  0.7965 -0.0513 -1.0076
 5364TIP3   OH240286   5.205   3.499   8.444  0.0523 -0.5614 -0.2939
 5364TIP3    H140287   5.253   3.477   8.364 -0.2785  1.3858 -1.0782
 5364TIP3    H240288   5.248   3.579   8.476 -0.3278 -0.8820  1.0532
 5365TIP3   OH240289   4.338   0.654   9.453  0.2236 -0.2047  0.6780
 5365TIP3    H140290   4.384   0.575   9.426  0.6304 -0.2414  1.4511
 5365TIP3    H240291   4.365   0.668   9.544 -0.6553  0.2402  0.8792
 5366TIP3   OH240292   1.430   4.229   6.775  0.0095  0.0195  0.1692
 5366TIP3    H140293   1.518   4.266   6.777  0.3060 -0.6860  0.5640
 5366TIP3    H240294   1.440   4.147   6.728 -0.8319  0.8830 -1.5935
 5367TIP3   OH240295   4.342   5.768   7.502 -0.1626  0.2270  0.3137
 5367TIP3    H140296   4.270   5.737   7.447  0.5235  0.6182 -0.8401
 5367TIP3    H240297   4.341   5.709   7.578 -2.1584  0.6935  0.7195
 5368TIP3   OH240298   2.147   7.301   6.872  0.4654 -0.0695  0.3914
 5368TIP3    H140299   2.073   7.327   6.817  0.6133 -0.8337 -0.1790
 5368TIP3    H240300   2.203   7.378   6.875  0.4292 -0.0010 -0.4946
 5369TIP3   OH240301   0.005   0.162   8.059  0.1748  0.0454  0.4041
 5369TIP3    H140302   0.075   0.132   8.000  0.2406 -0.8614  0.9207
 5369TIP3    H240303  -0.037   0.081   8.089 -0.7046  0.5557  0.5793
 5370TIP3   OH240304   3.499   2.331   6.790 -0.0281 -0.4167  0.0054
 5370TIP3    H140305   3.517   2.247   6.748 -0.2808  0.4561 -1.9710
 5370TIP3    H240306   3.556   2.333   6.867  0.8704 -1.8751 -0.5901
 5371TIP3   OH240307   3.720   6.851   7.206 -0.2785 -0.0173  0.2031
 5371TIP3    H140308   3.678   6.936   7.194 -0.2341 -0.2238 -1.6710
 5371TIP3    H240309   3.659   6.789   7.166  1.5117 -0.3830 -2.1496
 5372TIP3   OH240310   7.630   3.096   9.185 -0.1901 -0.2985  0.2650
 5372TIP3    H140311   7.628   3.135   9.098  0.4462 -0.1292  0.3165
 5372TIP3    H240312   7.601   3.006   9.172  0.2863 -0.3922 -0.1934
 5373TIP3   OH240313   2.075   2.398   7.026  0.0973 -0.6344 -0.1762
 5373TIP3    H140314   1.993   2.369   7.064  0.4411 -0.1895  0.9522
 5373TIP3    H240315   2.095   2.480   7.071  0.9237 -0.4913 -0.7673
 5374TIP3   OH240316   0.888   2.235   7.873  0.2347  0.3079 -0.7990
 5374TIP3    H140317   0.976   2.201   7.855 -0.5580 -1.7743 -0.9872
 5374TIP3    H240318   0.900   2.290   7.951  1.4190 -1.4640  0.3545
 5375TIP3   OH240319   1.846   2.396   8.498  0.2829  0.3258  0.7942
 5375TIP3    H140320   1.809   2.337   8.432  1.4177 -0.6480  1.0062
 5375TIP3    H240321   1.782   2.467   8.505 -0.5393 -0.2773 -0.3206
 5376TIP3   OH240322   4.126   2.168   9.269 -0.0120  0.4107  0.1867
 5376TIP3    H140323   4.154   2.118   9.192 -2.0129 -2.3329  1.0599
 5376TIP3    H240324   4.192   2.149   9.335  0.3981  0.7297 -0.1285
 5377TIP3   OH240325   2.220   3.838   8.610  0.2745  0.0237  0.3820
 5377TIP3    H140326   2.312   3.831   8.583  0.0417  1.7620 -1.0884
 5377TIP3    H240327   2.171   3.809   8.533 -0.4169  0.0624  0.8003
 5378TIP3   OH240328   6.414   2.039   7.637  0.0833 -0.2667  0.4364
 5378TIP3    H140329   6.416   2.132   7.660  0.3179 -0.1565 -0.0115
 5378TIP3    H240330   6.448   2.036   7.548 -0.3128 -0.7382  0.2968
 5379TIP3   OH240331   3.754   5.077   7.754 -0.5192 -0.1977  0.2499
 5379TIP3    H140332   3.690   5.148   7.758 -1.2600 -0.6863 -1.7493
 5379TIP3    H240333   3.780   5.074   7.662  2.0675 -0.3210  0.9240
 5380TIP3   OH240334   6.545   2.322   8.658  0.0508 -0.0237 -0.5629
 5380TIP3    H140335   6.504   2.251   8.609 -1.8106 -0.1346  1.0658
 5380TIP3    H240336   6.542   2.293   8.749  1.7591  0.9877 -0.1330
 5381TIP3   OH240337   0.076   1.277   8.478  0.4168  0.7010  0.4093
 5381TIP3    H140338   0.148   1.218   8.456  0.8575  1.1471  0.6457
 5381TIP3    H240339   0.068   1.334   8.401  0.8078  1.1266  0.6751
 5382TIP3   OH240340   3.011   4.960   9.002 -0.3109 -0.3317  0.0822
 5382TIP3    H140341   3.061   5.008   8.937 -1.9647  2.8284  0.9511
 5382TIP3    H240342   2.919   4.972   8.976 -0.8673 -1.6261  1.2927
 5383TIP3   OH240343   0.376   3.915   7.793 -0.3102 -0.2272  0.1737
 5383TIP3    H140344   0.302   3.883   7.742  1.4081 -3.0418 -0.7949
 5383TIP3    H240345   0.402   3.841   7.848  0.8321  1.2002  1.6956
 5384TIP3   OH240346   2.269   1.989   8.461 -0.1909  0.6361  0.4537
 5384TIP3    H140347   2.261   2.081   8.435 -1.1401  0.5920  0.5450
 5384TIP3    H240348   2.251   1.989   8.555  1.0663  0.5122  0.7076
 5385TIP3   OH240349   4.668   1.847   7.886  0.4947 -0.1058  0.1326
 5385TIP3    H140350   4.657   1.853   7.981 -1.2502  0.7728 -0.0878
 5385TIP3    H240351   4.645   1.756   7.865  0.9290 -0.3158  0.5463
 5386TIP3   OH240352   7.539   4.036   7.924  0.0859  0.1853  0.4614
 5386TIP3    H140353   7.469   3.973   7.935  0.1589  0.4240  2.8214
 5386TIP3    H240354   7.619   3.988   7.946  0.5506  0.2516 -0.9693
 5387TIP3   OH240355   5.264   5.217   7.709 -0.0521 -0.3631 -0.0946
 5387TIP3    H140356   5.281   5.136   7.757  1.8480 -0.9468 -1.6564
 5387TIP3    H240357   5.261   5.191   7.617  2.8051  1.5680 -0.8539
 5388TIP3   OH240358   3.340   0.315   7.711  0.0332  0.2869  0.5233
 5388TIP3    H140359   3.271   0.350   7.768 -1.1400  0.7060 -1.0840
 5388TIP3    H240360   3.324   0.357   7.626  0.7588 -1.4857 -0.5360
 5389TIP3   OH240361   2.320   2.875   7.588  0.0960  0.4788 -0.1589
 5389TIP3    H140362   2.401   2.912   7.623 -0.9672  0.3105  2.7782
 5389TIP3    H240363   2.252   2.935   7.617 -1.0616 -0.4993 -0.7438
 5390TIP3   OH240364   2.644   6.265   7.684 -0.6463  0.2554 -0.4111
 5390TIP3    H140365   2.630   6.279   7.778 -1.3012 -0.2495 -0.4244
 5390TIP3    H240366   2.738   6.249   7.676 -0.6367 -0.0296  0.2074
 5391TIP3   OH240367   6.089   3.851   1.011 -0.1836 -0.1865  0.2372
 5391TIP3    H140368   6.092   3.786   0.941 -0.6873  0.5613 -0.4920
 5391TIP3    H240369   6.172   3.839   1.058 -0.1783 -1.2049  0.0016
 5392TIP3   OH240370   6.717   3.019   1.137 -0.1025 -0.3834  0.0648
 5392TIP3    H140371   6.648   3.031   1.071 -2.0463 -0.1482  2.0184
 5392TIP3    H240372   6.689   3.072   1.211  1.5615 -1.2812  1.4095
 5393TIP3   OH240373   5.379   2.876   2.387 -0.2859  0.8767  0.0555
 5393TIP3    H140374   5.468   2.878   2.350 -0.1762 -0.8905  0.1829
 5393TIP3    H240375   5.393   2.875   2.482 -0.5094  2.3558  0.1293
 5394TIP3   OH240376   4.447   6.711   1.723  1.0230 -0.2865  0.8511
 5394TIP3    H140377   4.444   6.664   1.639 -2.3426  1.0919  0.0442
 5394TIP3    H240378   4.479   6.798   1.700  0.8198 -0.1390  1.1292
 5395TIP3   OH240379   6.036   5.402   2.523  0.6473  0.0859  0.4832
 5395TIP3    H140380   6.063   5.418   2.432 -0.4123  1.1466  0.3320
 5395TIP3    H240381   5.963   5.340   2.516 -0.7393  1.6576  0.4218
 5396TIP3   OH240382   1.295   1.903   2.434 -0.1564 -0.4064 -0.0079
 5396TIP3    H140383   1.344   1.981   2.461  0.1053 -0.4950 -0.2206
 5396TIP3    H240384   1.204   1.927   2.448  0.0113 -1.0878  2.6358
 5397TIP3   OH240385   5.972   6.083   1.071  0.0515 -0.1395  0.5734
 5397TIP3    H140386   5.986   6.075   0.977  0.3202 -0.2512  0.6195
 5397TIP3    H240387   5.883   6.118   1.080  1.3664  3.8710  0.1439
 5398TIP3   OH240388   3.734   5.935   2.729 -0.3145  0.2910 -0.0340
 5398TIP3    H140389   3.665   5.936   2.795  0.2576  0.5810  0.5640
 5398TIP3    H240390   3.736   5.844   2.698 -1.5001  0.4488 -0.6415
 5399TIP3   OH240391   6.910   0.863   3.524 -0.0157 -0.2676  0.1658
 5399TIP3    H140392   6.921   0.956   3.503  1.0243 -0.6562 -1.1140
 5399TIP3    H240393   6.884   0.862   3.616  0.8560  1.2479  0.4557
 5400TIP3   OH240394   5.346   1.342   2.762  0.3190  0.5276 -0.1175
 5400TIP3    H140395   5.416   1.276   2.758  2.4817  1.7103  6.2522
 5400TIP3    H240396   5.387   1.421   2.728  0.1068  0.1021 -1.4113
 5401TIP3   OH240397   7.674   5.840   1.006 -0.2318 -0.4731  0.6128
 5401TIP3    H140398   7.683   5.890   0.925 -2.1668  1.0973  1.2736
 5401TIP3    H240399   7.686   5.749   0.980  2.1983  0.1988 -0.8564
 5402TIP3   OH240400   3.038   4.478   1.173 -0.5327  0.6895  0.2258
 5402TIP3    H140401   3.046   4.572   1.191  0.3864  0.6383  0.1358
 5402TIP3    H240402   2.971   4.448   1.234 -0.1638  1.2377  0.9201
 5403TIP3   OH240403   4.976   5.603   1.085  0.0253  0.1266  0.7554
 5403TIP3    H140404   4.907   5.590   1.150  0.2835 -2.8461  0.5570
 5403TIP3    H240405   4.966   5.530   1.024  0.5887  2.1196 -1.8829
 5404TIP3   OH240406   1.994   6.458   1.299  0.3121  0.2135 -0.2029
 5404TIP3    H140407   2.062   6.521   1.273  1.0704 -0.4102  0.1933
 5404TIP3    H240408   2.027   6.373   1.268  0.3152 -0.2748  1.0538
 5405TIP3   OH240409   2.793   4.192   1.848 -0.4562  0.4504 -0.1057
 5405TIP3    H140410   2.814   4.104   1.880  0.4993  0.0306 -1.7482
 5405TIP3    H240411   2.701   4.188   1.826 -0.2633 -0.3709 -0.8152
 5406TIP3   OH240412   5.821   6.319   0.708 -0.4574  0.0169 -0.1813
 5406TIP3    H140413   5.737   6.325   0.755  0.0496  1.1588  0.6186
 5406TIP3    H240414   5.825   6.228   0.678 -2.2148  0.0684 -0.6859
 5407TIP3   OH240415   2.460   3.823   1.396  0.6742 -0.5215  0.4452
 5407TIP3    H140416   2.511   3.904   1.400 -1.3223  0.8370 -0.0080
 5407TIP3    H240417   2.435   3.815   1.303 -0.7084 -0.5852  0.7924
 5408TIP3   OH240418   4.499   3.024   0.818  0.6376  0.2598 -0.3436
 5408TIP3    H140419   4.554   2.955   0.856  0.2665 -0.6522 -1.4185
 5408TIP3    H240420   4.455   2.982   0.745 -2.4709  0.5934  1.1810
 5409TIP3   OH240421   5.554   1.030   1.455  0.1699  0.5220 -0.0131
 5409TIP3    H140422   5.529   1.110   1.501 -0.4076  1.6930 -2.2703
 5409TIP3    H240423   5.594   0.976   1.524 -0.9452  2.0105  1.9299
 5410TIP3   OH240424   4.670   1.555   2.995 -0.2970  0.0640  0.5606
 5410TIP3    H140425   4.758   1.566   2.958  0.1797  0.8044  1.8808
 5410TIP3    H240426   4.678   1.480   3.054 -0.5315  0.1775  0.7375
 5411TIP3   OH240427   3.459   1.567   1.494  0.4871 -0.4993 -0.1158
 5411TIP3    H140428   3.461   1.663   1.496  0.8264 -0.5071 -0.1393
 5411TIP3    H240429   3.370   1.545   1.522  0.9683 -0.2276  1.7650
 5412TIP3   OH240430   5.401   0.903   2.657  0.0162 -0.5651 -0.0163
 5412TIP3    H140431   5.368   0.925   2.744  0.4234 -1.5911  0.4169
 5412TIP3    H240432   5.332   0.931   2.597  0.0425  0.8282  0.5612
 5413TIP3   OH240433   4.208   2.394   4.006  0.7297 -0.2234 -0.5725
 5413TIP3    H140434   4.202   2.299   4.005 -0.9029 -0.1770 -2.4949
 5413TIP3    H240435   4.140   2.423   3.944  2.6852  2.0959 -1.8310
 5414TIP3   OH240436   5.432   1.443   3.346  0.1134 -0.4130  0.3949
 5414TIP3    H140437   5.487   1.481   3.414 -0.0175 -1.6124  1.2138
 5414TIP3    H240438   5.347   1.485   3.357 -0.1255 -1.1468  1.5069
 5415TIP3   OH240439   0.150   6.959   2.512 -0.1339  0.4217 -0.4150
 5415TIP3    H140440   0.215   6.980   2.579 -3.3627  2.8507  2.3422
 5415TIP3    H240441   0.189   6.989   2.430  2.9243 -0.1073  0.7097
 5416TIP3   OH240442   3.897   2.974   1.218  0.2370  0.1864  0.0028
 5416TIP3    H140443   3.844   3.022   1.155  1.1406  2.7507  1.0756
 5416TIP3    H240444   3.839   2.959   1.293 -0.2702 -1.1913 -0.6193
 5417TIP3   OH240445   1.024   4.726   2.911  0.4235  0.5159  0.5002
 5417TIP3    H140446   0.980   4.810   2.900 -2.0558 -0.9286 -2.0788
 5417TIP3    H240447   1.107   4.735   2.864 -0.0842  1.3456 -0.2572
 5418TIP3   OH240448   2.433   3.657   3.248 -0.1224 -0.7520  0.1852
 5418TIP3    H140449   2.362   3.715   3.275 -0.7674 -1.2716 -0.3484
 5418TIP3    H240450   2.459   3.690   3.162  2.2693  1.2138  1.5350
 5419TIP3   OH240451   0.632   0.434   2.972 -0.4080 -0.4734 -0.0602
 5419TIP3    H140452   0.665   0.488   3.044  0.1267  0.3159 -0.8782
 5419TIP3    H240453   0.538   0.449   2.973 -0.1324  1.8048 -1.2765
 5420TIP3   OH240454   7.530   1.247   1.293  0.1599 -0.5969  0.0499
 5420TIP3    H140455   7.472   1.220   1.364  1.7334  0.0548  1.6745
 5420TIP3    H240456   7.471   1.270   1.221 -1.6870  1.0688  1.9434
 5421TIP3   OH240457   3.739   1.286   1.920  0.2552  0.5980  0.4578
 5421TIP3    H140458   3.692   1.318   1.996 -0.7438 -1.2343  0.6519
 5421TIP3    H240459   3.830   1.280   1.949  0.2948  2.1555  0.7349
 5422TIP3   OH240460   3.396   4.602   1.218 -0.2571 -0.0853  0.4141
 5422TIP3    H140461   3.339   4.542   1.170  1.0282 -0.4122 -0.7795
 5422TIP3    H240462   3.382   4.582   1.310 -1.6326 -0.5383  0.1181
 5423TIP3   OH240463   1.458   0.594   2.611  0.6989 -0.2071 -0.9064
 5423TIP3    H140464   1.543   0.636   2.621  1.0744 -1.3638  1.4551
 5423TIP3    H240465   1.403   0.635   2.679  0.4256 -1.8762 -0.0825
 5424TIP3   OH240466   1.971   5.487   2.343  0.3042  0.0331 -0.1991
 5424TIP3    H140467   1.879   5.514   2.342  0.3006 -0.0109 -0.9172
 5424TIP3    H240468   2.008   5.521   2.262  0.7847 -0.4296 -0.1829
 5425TIP3   OH240469   5.489   1.556   3.027 -0.5692  0.3782  0.2396
 5425TIP3    H140470   5.551   1.492   2.991 -0.5783  0.8488 -0.6422
 5425TIP3    H240471   5.411   1.505   3.045  0.1927 -0.3107  1.7630
 5426TIP3   OH240472   5.102   6.181   1.330  0.0964 -0.0050  0.4710
 5426TIP3    H140473   5.172   6.246   1.335 -0.7699  1.0931 -0.9080
 5426TIP3    H240474   5.135   6.113   1.272  0.9317 -0.7464  1.7643
 5427TIP3   OH240475   7.447   7.130   2.418 -0.5842  0.5249  0.6679
 5427TIP3    H140476   7.453   7.048   2.369 -0.8136 -0.0566  1.5827
 5427TIP3    H240477   7.483   7.110   2.504  0.2145  1.6437  0.6240
 5428TIP3   OH240478   3.389   1.025   2.307  0.1875 -0.8716  0.1211
 5428TIP3    H140479   3.375   1.023   2.402 -2.0592  2.8464  0.0252
 5428TIP3    H240480   3.484   1.022   2.297  0.5196 -0.4438  2.5571
 5429TIP3   OH240481   1.468   3.777   2.657 -0.6612  0.2024 -0.2395
 5429TIP3    H140482   1.509   3.706   2.707 -0.5630  0.2540 -0.2471
 5429TIP3    H240483   1.540   3.818   2.611 -0.3860  1.6607  1.3983
 5430TIP3   OH240484   1.555   1.084   1.037  0.5777  0.5611 -0.4647
 5430TIP3    H140485   1.594   0.997   1.042 -0.9594 -0.2886 -2.3776
 5430TIP3    H240486   1.523   1.101   1.125  1.5668 -0.4631  0.1201
 5431TIP3   OH240487   5.647   2.025   1.620 -0.2478  0.5730  0.2722
 5431TIP3    H140488   5.680   2.107   1.655 -0.7116  0.8039  0.1745
 5431TIP3    H240489   5.726   1.976   1.597  0.0476  1.6562 -1.2093
 5432TIP3   OH240490   6.401   0.109   3.863  0.1191  0.4416  0.0475
 5432TIP3    H140491   6.432   0.077   3.778  1.1221  0.8672  0.2310
 5432TIP3    H240492   6.482   0.132   3.910 -0.3390 -0.8234  1.5374
 5433TIP3   OH240493   6.857   5.669   0.646 -0.0599  0.2781 -0.2232
 5433TIP3    H140494   6.778   5.721   0.659 -0.6130 -0.6945  0.4170
 5433TIP3    H240495   6.883   5.642   0.734  2.0579  2.0623 -0.1873
 5434TIP3   OH240496   1.060   0.792   2.838 -0.6198  0.0990 -0.5524
 5434TIP3    H140497   1.155   0.800   2.850 -0.7083 -0.0966  0.3120
 5434TIP3    H240498   1.023   0.864   2.889 -1.0673 -1.5216  1.5312
 5435TIP3   OH240499   5.412   3.514   0.894 -0.1583  0.2660 -0.1835
 5435TIP3    H140500   5.507   3.519   0.881 -0.0060  2.2580  1.2459
 5435TIP3    H240501   5.402   3.478   0.982 -0.8013 -1.2154 -0.8338
 5436TIP3   OH240502   5.279   7.547   1.310  0.0222 -0.4115  0.5800
 5436TIP3    H140503   5.237   7.633   1.319  0.8402  0.0373  0.2694
 5436TIP3    H240504   5.360   7.556   1.361 -0.4050 -1.3648  1.4442
 5437TIP3   OH240505   3.314   0.750   3.345 -0.2728 -0.1831 -0.2677
 5437TIP3    H140506   3.376   0.688   3.308 -0.0369 -0.0783 -0.0481
 5437TIP3    H240507   3.228   0.720   3.314 -0.0574  0.0439 -1.0900
 5438TIP3   OH240508   4.356   0.712   2.110  1.0024  0.1692 -0.1907
 5438TIP3    H140509   4.404   0.790   2.082 -0.6149  1.2006 -0.2484
 5438TIP3    H240510   4.279   0.710   2.054  0.4042 -0.7724  0.6264
 5439TIP3   OH240511   4.479   3.891   0.581  0.1587 -0.1698  0.2599
 5439TIP3    H140512   4.415   3.958   0.605 -1.1624 -1.1511 -0.4349
 5439TIP3    H240513   4.432   3.833   0.521  1.4543 -1.3806  0.3761
 5440TIP3   OH240514   7.262   1.394   2.478 -0.4822 -0.0679 -0.2615
 5440TIP3    H140515   7.260   1.487   2.499 -0.5204 -0.1278  0.0013
 5440TIP3    H240516   7.170   1.368   2.476 -0.6118  0.3280 -2.2840
 5441TIP3   OH240517   0.729   2.704   1.691 -0.3923 -0.2430  0.3722
 5441TIP3    H140518   0.650   2.754   1.710 -1.8409 -2.7406  1.4650
 5441TIP3    H240519   0.787   2.720   1.766  0.1565  1.5487 -0.4034
 5442TIP3   OH240520   4.945   6.366   1.200  0.2347  0.4659 -0.1299
 5442TIP3    H140521   4.999   6.437   1.235  0.1341 -0.1269  1.3264
 5442TIP3    H240522   4.974   6.288   1.248 -2.0420  0.1666  0.9324
 5443TIP3   OH240523   0.408   1.271   2.203 -0.0454 -0.2179  0.0866
 5443TIP3    H140524   0.351   1.205   2.163  1.9471 -3.6811  2.4200
 5443TIP3    H240525   0.489   1.266   2.153 -0.0736  0.9892 -0.0994
 5444TIP3   OH240526   7.429   0.858   0.623 -0.2838  0.7185  0.0737
 5444TIP3    H140527   7.498   0.795   0.602  0.9411  1.5414  1.4968
 5444TIP3    H240528   7.352   0.803   0.639  0.8564 -0.4920  1.7045
 5445TIP3   OH240529   1.460   6.016   3.026 -0.2212 -0.0124 -0.1172
 5445TIP3    H140530   1.530   6.020   3.090  0.4678  0.2269 -0.8762
 5445TIP3    H240531   1.493   5.958   2.957 -2.3133 -3.2756  1.3426
 5446TIP3   OH240532   6.904   7.655   0.973  0.5744 -0.4371 -0.2646
 5446TIP3    H140533   6.954   7.647   1.054  1.2067 -0.8459 -0.6820
 5446TIP3    H240534   6.828   7.708   0.996  2.8792  3.2475 -0.3623
 5447TIP3   OH240535   2.318   5.077   1.207  0.6673  0.0268  0.0119
 5447TIP3    H140536   2.401   5.098   1.165  1.0399 -0.7599  0.3301
 5447TIP3    H240537   2.298   5.153   1.261  0.9347  0.4195 -0.4427
 5448TIP3   OH240538   2.000   0.143   3.008 -0.4461 -0.6548 -0.2077
 5448TIP3    H140539   1.917   0.188   2.989  0.0550  0.8299  0.9582
 5448TIP3    H240540   1.975   0.071   3.066 -0.9124  0.0148  0.4517
 5449TIP3   OH240541   6.605   4.476   2.621 -0.5441  0.4971  0.1191
 5449TIP3    H140542   6.618   4.391   2.578  0.7107  1.8958 -2.4997
 5449TIP3    H240543   6.512   4.495   2.609 -0.5823  0.0264 -0.3751
 5450TIP3   OH240544   2.618   3.758   2.325  0.2693  0.4494 -0.2458
 5450TIP3    H140545   2.667   3.719   2.398  0.1346 -0.3222 -0.5620
 5450TIP3    H240546   2.686   3.793   2.268  0.3870  0.7935  0.0991
 5451TIP3   OH240547   2.441   1.707   1.515  0.1073  0.4196 -0.2628
 5451TIP3    H140548   2.519   1.685   1.566 -0.6923  0.0910  0.8626
 5451TIP3    H240549   2.473   1.716   1.425  1.3969  0.0803  0.1354
 5452TIP3   OH240550   1.314   2.452   2.932  0.4691 -0.5720 -0.2245
 5452TIP3    H140551   1.249   2.385   2.952 -1.4207  0.4251 -2.6261
 5452TIP3    H240552   1.336   2.490   3.017 -3.2683  0.0783  0.6046
 5453TIP3   OH240553   4.934   4.211   2.487 -0.8183  0.0697  0.6579
 5453TIP3    H140554   4.889   4.229   2.405 -0.2368 -4.4361 -0.9655
 5453TIP3    H240555   5.027   4.220   2.467 -0.6394 -1.7381  0.5018
 5454TIP3   OH240556   0.472   1.069   0.744  0.6002  0.1267  0.5300
 5454TIP3    H140557   0.542   1.017   0.784  1.5301  0.5870 -0.4610
 5454TIP3    H240558   0.517   1.124   0.679 -0.8430 -0.5664 -1.1267
 5455TIP3   OH240559   4.969   2.728   2.884 -0.3495 -0.5634 -0.3988
 5455TIP3    H140560   4.911   2.766   2.950  1.7080 -0.3488  1.4109
 5455TIP3    H240561   4.968   2.634   2.902  1.0034 -0.3979  0.6768
 5456TIP3   OH240562   2.284   7.254   2.063  0.1058  0.0818  0.0148
 5456TIP3    H140563   2.306   7.277   1.973  1.5397 -0.6190  0.1618
 5456TIP3    H240564   2.328   7.320   2.117 -0.1930  0.1071  0.2330
 5457TIP3   OH240565   4.655   2.504   3.324 -0.6024  0.1327  0.0792
 5457TIP3    H140566   4.699   2.550   3.396 -0.9463  1.1557 -0.3504
 5457TIP3    H240567   4.726   2.476   3.267 -0.4142  0.6160  0.0668
 5458TIP3   OH240568   2.585   7.594   2.057 -0.3290 -0.5804  0.6902
 5458TIP3    H140569   2.506   7.632   2.095 -0.2116  1.1350 -0.6303
 5458TIP3    H240570   2.652   7.661   2.070 -0.2199 -0.0329 -2.1617
 5459TIP3   OH240571   3.310   5.225   0.852 -0.0460  0.0622  0.6210
 5459TIP3    H140572   3.310   5.235   0.756  2.0699  0.5428  0.6205
 5459TIP3    H240573   3.334   5.312   0.885  2.9519 -0.9640  1.3772
 5460TIP3   OH240574   7.153   5.703   1.321 -0.5726  0.2616 -0.4073
 5460TIP3    H140575   7.243   5.671   1.324 -0.2823  1.0121 -0.7646
 5460TIP3    H240576   7.159   5.793   1.352 -1.0612  0.5801 -1.1951
 5461TIP3   OH240577   3.029   5.486   0.655 -0.4950 -0.2240  0.2230
 5461TIP3    H140578   3.112   5.442   0.636 -0.6072  0.2190 -1.5380
 5461TIP3    H240579   2.962   5.421   0.636 -0.6275  0.3623 -1.4803
 5462TIP3   OH240580   6.900   7.098   0.774  0.0375  0.2751 -0.1596
 5462TIP3    H140581   6.828   7.126   0.832  0.3338  0.1550  0.2732
 5462TIP3    H240582   6.908   7.169   0.710  0.5861  1.0658  0.7541
 5463TIP3   OH240583   6.549   7.401   0.703  0.3282  0.1162 -0.1692
 5463TIP3    H140584   6.482   7.467   0.724 -0.4616 -0.3766 -1.0604
 5463TIP3    H240585   6.628   7.433   0.746 -0.7314  0.1419  1.9389
 5464TIP3   OH240586   6.924   3.557   0.763  0.1304 -0.4741  0.5543
 5464TIP3    H140587   6.991   3.623   0.776 -0.4529 -0.0915  1.7370
 5464TIP3    H240588   6.972   3.474   0.765  0.6680 -0.1680  0.6251
 5465TIP3   OH240589   0.443   7.223   0.514  0.3127  0.2505 -0.2571
 5465TIP3    H140590   0.509   7.164   0.551  1.2290  0.8026 -0.9518
 5465TIP3    H240591   0.360   7.178   0.528  0.6669  0.1574  1.8778
 5466TIP3   OH240592   0.858   7.028   2.701  0.2014  0.3381  0.4602
 5466TIP3    H140593   0.936   7.045   2.755 -0.9267  1.9020  1.6720
 5466TIP3    H240594   0.805   6.968   2.754  0.3980 -0.4925 -0.2409
 5467TIP3   OH240595   0.731   1.264   1.589 -0.1940  0.1706  0.1890
 5467TIP3    H140596   0.763   1.314   1.664  1.2534 -1.0743  0.4687
 5467TIP3    H240597   0.808   1.216   1.559 -1.3462 -1.3385 -0.4828
 5468TIP3   OH240598   5.118   1.176   2.919 -0.1596 -0.4000  0.7880
 5468TIP3    H140599   5.167   1.094   2.916  1.1822  0.3941 -0.3445
 5468TIP3    H240600   5.072   1.180   2.835  1.4121  0.9236 -0.0604
 5469TIP3   OH240601   1.022   7.335   2.158 -0.2844 -0.2304 -0.0538
 5469TIP3    H140602   1.013   7.401   2.226 -2.0235 -0.3181 -0.1752
 5469TIP3    H240603   1.098   7.283   2.185 -0.3959  0.2966  1.3304
 5470TIP3   OH240604   4.505   5.067   0.755  0.3521  0.4595 -0.6345
 5470TIP3    H140605   4.585   5.016   0.750 -0.1461 -0.5166  0.7594
 5470TIP3    H240606   4.535   5.158   0.766  1.3840 -0.1287  2.5132
 5471TIP3   OH240607   0.556   1.653   1.117  0.4143  0.1072  0.0019
 5471TIP3    H140608   0.464   1.679   1.129 -0.1647 -1.3681 -0.9807
 5471TIP3    H240609   0.563   1.631   1.025  0.2607 -5.0002  0.9111
 5472TIP3   OH240610   0.903   5.120   2.116 -0.3644  0.9797 -0.0140
 5472TIP3    H140611   0.911   5.063   2.040  4.5730  0.7457  0.3556
 5472TIP3    H240612   0.848   5.071   2.177  0.7386 -1.7625 -1.0702
 5473TIP3   OH240613   2.410   1.317   3.383 -0.1026  0.6674 -0.0246
 5473TIP3    H140614   2.353   1.240   3.377 -1.6692  1.7384  0.4826
 5473TIP3    H240615   2.499   1.282   3.378 -0.7929 -1.0466 -1.0723
 5474TIP3   OH240616   4.900   3.213   1.620 -0.0423 -0.0215 -0.2844
 5474TIP3    H140617   4.951   3.195   1.541  0.4510  0.3251 -0.0502
 5474TIP3    H240618   4.861   3.129   1.643 -0.2805 -0.1029 -0.9596
 5475TIP3   OH240619   7.345   1.656   1.559 -0.0061  0.4399  0.2507
 5475TIP3    H140620   7.376   1.649   1.649  1.8414 -0.0301 -0.3749
 5475TIP3    H240621   7.318   1.748   1.550 -0.6761  0.3752  1.3880
 5476TIP3   OH240622   3.968   3.381   1.081 -0.1370  0.1184  0.0066
 5476TIP3    H140623   4.045   3.415   1.127  0.1253  0.8255 -0.9300
 5476TIP3    H240624   3.904   3.452   1.084 -1.9584 -1.4342  3.3480
 5477TIP3   OH240625   0.849   4.367   1.287 -0.5054  0.0890  0.0812
 5477TIP3    H140626   0.850   4.461   1.308  0.3343 -0.0980  0.9097
 5477TIP3    H240627   0.825   4.364   1.194  0.1439  1.1623 -0.1413
 5478TIP3   OH240628   4.900   0.609   0.844 -0.8733 -0.1061  0.1882
 5478TIP3    H140629   4.943   0.603   0.758 -1.0138 -0.6740  0.1555
 5478TIP3    H240630   4.962   0.659   0.897 -0.2489 -0.7509  0.0868
 5479TIP3   OH240631   6.678   6.908   2.513 -0.3264  0.1244 -0.2665
 5479TIP3    H140632   6.623   6.837   2.481 -1.8479  0.3990  1.5630
 5479TIP3    H240633   6.766   6.871   2.516 -1.0617 -1.6657  0.4662
 5480TIP3   OH240634   3.507   6.552   1.043 -0.0366  0.1247 -0.2268
 5480TIP3    H140635   3.598   6.555   1.013  0.8796 -2.0295  1.9971
 5480TIP3    H240636   3.461   6.505   0.973  1.0436 -0.7109 -0.4101
 5481TIP3   OH240637   2.770   4.325   2.863 -0.3582  0.6143 -0.7971
 5481TIP3    H140638   2.743   4.322   2.955 -1.0921 -0.6877 -1.0362
 5481TIP3    H240639   2.865   4.321   2.866 -0.3616  0.7671 -0.0990
 5482TIP3   OH240640   0.702   5.602   2.887 -0.0630 -0.3862 -0.2475
 5482TIP3    H140641   0.643   5.664   2.844  0.0503 -1.4097 -1.9672
 5482TIP3    H240642   0.646   5.528   2.911 -0.2903  0.5102  2.2247
 5483TIP3   OH240643   3.603   6.857   0.516  0.1609 -0.7694 -0.0283
 5483TIP3    H140644   3.673   6.922   0.521 -0.0387 -0.4191 -1.3119
 5483TIP3    H240645   3.639   6.788   0.459 -0.0120 -1.2863  0.4822
 5484TIP3   OH240646   5.251   3.337   2.408  0.3209 -0.4873  0.1916
 5484TIP3    H140647   5.160   3.341   2.380  0.0569  0.6185  1.1426
 5484TIP3    H240648   5.275   3.428   2.425  1.3012 -0.8625  0.9315
 5485TIP3   OH240649   3.003   2.997   2.354 -0.5139  0.1031 -0.4562
 5485TIP3    H140650   2.985   2.959   2.440 -0.1881  2.2036  0.5962
 5485TIP3    H240651   2.922   3.042   2.330  0.3654  2.2175  0.2897
 5486TIP3   OH240652   1.029   3.075   0.888  0.4706 -0.5496 -0.0443
 5486TIP3    H140653   0.997   3.155   0.931  3.1469  2.0182 -2.4469
 5486TIP3    H240654   0.962   3.055   0.822  0.0733  0.0614  0.1600
 5487TIP3   OH240655   5.663   7.305   0.686 -0.1895  0.2406 -0.1308
 5487TIP3    H140656   5.755   7.279   0.698 -0.2505 -0.5554 -1.2704
 5487TIP3    H240657   5.667   7.398   0.662  0.2003  0.6402  1.3929
 5488TIP3   OH240658   0.938   2.067   0.654 -0.4578  0.0874 -0.3996
 5488TIP3    H140659   0.957   2.151   0.611  0.3464  0.5226  0.7476
 5488TIP3    H240660   0.991   2.069   0.734 -1.8764 -0.7034  0.6046
 5489TIP3   OH240661   6.221   1.178   2.067 -0.7310 -0.8308  0.2982
 5489TIP3    H140662   6.252   1.210   2.152 -0.9921  0.7603 -0.1771
 5489TIP3    H240663   6.252   1.243   2.004 -1.8714 -1.1621 -0.6435
 5490TIP3   OH240664   3.425   7.138   0.631 -0.0077 -0.0727 -0.1523
 5490TIP3    H140665   3.457   7.055   0.596 -0.2184 -0.1954 -0.0627
 5490TIP3    H240666   3.499   7.174   0.680  0.8152  0.8627 -1.9927
 5491TIP3   OH240667   7.110   2.880   1.170 -0.2723 -0.2128  0.5378
 5491TIP3    H140668   7.188   2.936   1.168 -0.8029  0.5319 -0.7412
 5491TIP3    H240669   7.038   2.939   1.192 -0.9725 -0.1462 -1.6329
 5492TIP3   OH240670   2.127   4.425   0.879 -0.1640 -0.7344 -0.5123
 5492TIP3    H140671   2.129   4.447   0.972  1.3203 -1.9415 -0.2067
 5492TIP3    H240672   2.135   4.509   0.834 -0.2357 -0.1958  0.4551
 5493TIP3   OH240673   7.349   2.145   1.692  0.1723 -0.0393 -0.5725
 5493TIP3    H140674   7.357   2.212   1.624  0.8408 -0.8096 -1.2821
 5493TIP3    H240675   7.277   2.175   1.747 -0.0405  0.8672 -1.3187
 5494TIP3   OH240676   0.321   3.303   1.160 -0.0855 -0.5548 -0.6753
 5494TIP3    H140677   0.228   3.314   1.144  0.0661  0.2201 -1.0775
 5494TIP3    H240678   0.331   3.212   1.187 -1.1802 -0.2270  0.9903
 5495TIP3   OH240679   3.632   7.461   1.722 -0.0607  0.7777  0.0968
 5495TIP3    H140680   3.604   7.377   1.756 -0.8373  1.3593  0.9320
 5495TIP3    H240681   3.658   7.443   1.631  0.2863 -0.4422  0.4174
 5496TIP3   OH240682   6.493   1.362   2.365 -0.0979  0.3955 -0.6435
 5496TIP3    H140683   6.563   1.328   2.421  0.3120 -1.7901 -2.3663
 5496TIP3    H240684   6.536   1.382   2.282 -1.2850  0.1090 -1.3550
 5497TIP3   OH240685   6.395   4.833   2.595 -0.0332 -0.0344  0.5073
 5497TIP3    H140686   6.473   4.813   2.647  1.5958 -0.7689 -2.0087
 5497TIP3    H240687   6.356   4.748   2.577 -0.4451  0.1857  0.3589
 5498TIP3   OH240688   3.259   4.170   1.346 -0.1742 -0.0858 -0.0892
 5498TIP3    H140689   3.231   4.107   1.413  0.2176 -0.9858 -0.7492
 5498TIP3    H240690   3.312   4.234   1.394  2.1258 -2.0116  0.1825
 5499TIP3   OH240691   6.552   0.978   0.893 -0.2316  0.5210  0.0706
 5499TIP3    H140692   6.490   1.018   0.953 -0.7242 -1.3706  0.8762
 5499TIP3    H240693   6.570   0.891   0.930  1.0369  0.0904 -1.4257
 5500TIP3   OH240694   2.887   4.879   1.112 -1.0786 -0.4785  0.5795
 5500TIP3    H140695   2.842   4.839   1.186  0.5989 -2.0933  0.8030
 5500TIP3    H240696   2.975   4.842   1.115  0.2072  2.2892 -0.0182
 5501TIP3   OH240697   0.313   0.350   0.853 -0.3402  0.1365  0.6028
 5501TIP3    H140698   0.406   0.343   0.876 -0.8397 -0.6096  2.6252
 5501TIP3    H240699   0.294   0.444   0.860  0.3959  0.3882 -0.5097
 5502TIP3   OH240700   0.149   3.363   1.792 -0.1473 -0.2898 -0.1815
 5502TIP3    H140701   0.082   3.323   1.737  0.1252 -0.9431 -0.0563
 5502TIP3    H240702   0.205   3.411   1.732 -1.3147  1.1345 -0.1727
 5503TIP3   OH240703   6.595   5.632   0.831  0.1902  0.0955  0.0226
 5503TIP3    H140704   6.533   5.585   0.776  0.7911 -0.4782 -0.1756
 5503TIP3    H240705   6.550   5.714   0.853 -0.8501 -0.5349  0.3256
 5504TIP3   OH240706   6.637   5.793   2.211  0.1715 -0.1441 -0.1841
 5504TIP3    H140707   6.682   5.708   2.206  1.6146  0.6041 -0.4894
 5504TIP3    H240708   6.617   5.814   2.120 -1.5344 -0.8123  0.0009
 5505TIP3   OH240709   1.152   0.202   3.505  0.5932  0.3991  0.2679
 5505TIP3    H140710   1.061   0.188   3.477  0.2963  1.2045  0.7747
 5505TIP3    H240711   1.202   0.137   3.457 -0.0578  0.8917 -1.1524
 5506TIP3   OH240712   0.937   3.522   0.615 -0.1325 -0.6253 -0.5117
 5506TIP3    H140713   0.983   3.602   0.639  1.8515 -1.2063 -2.0573
 5506TIP3    H240714   0.953   3.462   0.687  2.1213 -0.9969 -1.2573
 5507TIP3   OH240715   5.190   6.651   0.452  0.1179  0.3651 -0.1536
 5507TIP3    H140716   5.165   6.559   0.442  0.6820  0.1680  0.2223
 5507TIP3    H240717   5.229   6.674   0.367  1.5020 -0.2355  0.2936
 5508TIP3   OH240718   2.463   0.723   0.955 -0.3533  0.3895  0.5038
 5508TIP3    H140719   2.478   0.782   1.028  2.0434 -1.4218  1.5971
 5508TIP3    H240720   2.428   0.643   0.995 -0.8917  0.0596 -0.5788
 5509TIP3   OH240721   2.967   7.129   1.578  0.2344  0.1352  0.3188
 5509TIP3    H140722   3.032   7.199   1.581  0.9322 -0.4123 -1.0461
 5509TIP3    H240723   2.899   7.156   1.640 -0.2211  2.7191 -1.1674
 5510TIP3   OH240724   1.772   3.690   2.624  0.3474 -0.3621  0.5927
 5510TIP3    H140725   1.765   3.778   2.586 -0.7194 -0.9420 -0.6438
 5510TIP3    H240726   1.866   3.678   2.638  0.6316  0.4920 -0.4217
 5511TIP3   OH240727   6.451   2.311   2.451  0.3495  0.1502  0.2325
 5511TIP3    H140728   6.484   2.246   2.514 -0.5193  0.0843  0.6345
 5511TIP3    H240729   6.376   2.351   2.496  0.5373  1.0373 -0.2390
 5512TIP3   OH240730   2.429   6.779   0.788  0.1922  0.1259 -0.4921
 5512TIP3    H140731   2.347   6.761   0.742 -0.0475  1.3814 -0.6176
 5512TIP3    H240732   2.464   6.857   0.744  0.7378  0.4382  0.4571
 5513TIP3   OH240733   5.374   6.402   3.409 -0.0619  0.0868  0.3144
 5513TIP3    H140734   5.382   6.497   3.400 -0.6626  0.1083 -0.0430
 5513TIP3    H240735   5.396   6.368   3.323  0.6419 -0.1417  0.5733
 5514TIP3   OH240736   5.247   1.560   1.118 -0.2618  0.7316  0.3203
 5514TIP3    H140737   5.276   1.544   1.029 -1.2102 -0.2775  0.1672
 5514TIP3    H240738   5.261   1.654   1.132  0.7213  0.7375 -0.5648
 5515TIP3   OH240739   6.919   2.794   0.748 -0.1315 -0.3132  0.0836
 5515TIP3    H140740   6.869   2.811   0.828 -0.8801 -1.6941 -0.0658
 5515TIP3    H240741   6.857   2.812   0.677 -0.0802 -0.9384 -0.1291
 5516TIP3   OH240742   6.364   3.857   2.332  0.4266 -0.1268  0.1503
 5516TIP3    H140743   6.332   3.906   2.256  0.0238  1.4484  1.2820
 5516TIP3    H240744   6.435   3.911   2.367  0.7180 -0.9116  0.8090
 5517TIP3   OH240745   4.110   1.778   9.050  0.0409  0.2783  0.1203
 5517TIP3    H140746   4.038   1.798   9.109 -0.5640 -0.9352 -0.1656
 5517TIP3    H240747   4.085   1.694   9.010  0.4743  0.9991 -1.7668
 5518TIP3   OH240748   2.536   6.231   1.977 -0.2814 -0.0266  0.2444
 5518TIP3    H140749   2.606   6.284   2.016  1.3932 -3.1877  1.9030
 5518TIP3    H240750   2.579   6.183   1.907 -1.6220  0.3075 -0.8415
 5519TIP3   OH240751   3.115   5.234   1.204 -0.4307  0.0284 -0.1155
 5519TIP3    H140752   3.082   5.281   1.128  1.0076 -0.8705 -1.3723
 5519TIP3    H240753   3.178   5.294   1.244 -0.9159  0.3613  0.1512
 5520TIP3   OH240754   2.404   6.890   3.181  0.3007 -0.1780  0.0444
 5520TIP3    H140755   2.362   6.963   3.226 -1.3397 -0.6664 -0.6124
 5520TIP3    H240756   2.368   6.893   3.092  1.3267 -0.9071 -0.4104
 5521TIP3   OH240757   5.667   1.341   2.948  0.5975  0.7990 -0.1538
 5521TIP3    H140758   5.662   1.253   2.911  1.1882  1.1155 -1.0329
 5521TIP3    H240759   5.679   1.328   3.042  0.3510 -0.0521 -0.2358
 5522TIP3   OH240760   2.187   3.294   2.410 -0.0524 -0.1528 -0.6521
 5522TIP3    H140761   2.208   3.335   2.326 -1.7571  0.9357 -0.5888
 5522TIP3    H240762   2.123   3.226   2.387 -0.3196 -0.0335 -0.2592
 5523TIP3   OH240763   6.924   3.323   2.570  0.0572 -0.0199 -0.1333
 5523TIP3    H140764   6.899   3.256   2.506 -1.4088  1.0186 -0.7208
 5523TIP3    H240765   6.954   3.275   2.646 -0.2580 -1.3256 -0.8105
 5524TIP3   OH240766   0.919   7.664   2.852 -0.0870 -0.0506  0.4773
 5524TIP3    H140767   0.917   7.760   2.850  2.5191  0.0646  0.1607
 5524TIP3    H240768   0.833   7.639   2.888 -0.2831  2.4428  2.0072
 5525TIP3   OH240769   5.376   1.514   2.267 -0.0058 -0.2228  0.0854
 5525TIP3    H140770   5.466   1.513   2.234  0.2712  1.7808  0.6485
 5525TIP3    H240771   5.341   1.600   2.241 -0.8643  0.0980  2.0857
 5526TIP3   OH240772   6.241   1.474   0.855 -0.3672  0.1613  0.4695
 5526TIP3    H140773   6.317   1.460   0.911 -0.0038 -0.3615 -0.1464
 5526TIP3    H240774   6.262   1.429   0.774 -1.3122  0.0562  0.2679
 5527TIP3   OH240775   1.809   7.225   2.249 -0.3448 -0.4114 -0.8721
 5527TIP3    H140776   1.863   7.304   2.244 -0.5176 -0.3139 -1.2666
 5527TIP3    H240777   1.821   7.193   2.339 -0.7801  0.4341 -0.4940
 5528TIP3   OH240778   6.376   0.932   1.354 -0.2155 -0.7089  0.6083
 5528TIP3    H140779   6.368   0.968   1.265 -0.6802 -1.1759  0.4554
 5528TIP3    H240780   6.426   0.998   1.402  1.4922 -1.1939 -0.4218
 5529TIP3   OH240781   4.661   1.738   7.118 -0.3583  0.5534  0.1499
 5529TIP3    H140782   4.706   1.717   7.036 -0.6946  2.6281 -0.6154
 5529TIP3    H240783   4.710   1.691   7.185  1.2832  0.5824 -0.9769
 5530TIP3   OH240784   7.672   6.491   2.175  0.0962 -0.3361 -0.0127
 5530TIP3    H140785   7.646   6.399   2.177 -0.0329 -0.3408 -1.3780
 5530TIP3    H240786   7.624   6.528   2.101 -0.7694  1.1166  1.2307
 5531TIP3   OH240787   1.497   7.195   1.885 -0.1629  0.2097  0.9837
 5531TIP3    H140788   1.589   7.182   1.861  0.0217  0.1227  1.7074
 5531TIP3    H240789   1.496   7.280   1.930 -0.7343  1.0251 -0.4772
 5532TIP3   OH240790   5.639   1.842   1.260  0.1890 -0.0818 -0.4413
 5532TIP3    H140791   5.630   1.777   1.330  0.7155 -0.0170 -0.3092
 5532TIP3    H240792   5.553   1.844   1.217 -0.6465  1.0237  1.1962
 5533TIP3   OH240793   3.483   0.075   1.606  0.2867 -0.5906  0.0390
 5533TIP3    H140794   3.560   0.100   1.657  0.2935  1.3512 -0.8427
 5533TIP3    H240795   3.422   0.039   1.670  0.8058  0.5661  1.2317
 5534TIP3   OH240796   2.196   2.740   1.421  0.1143  0.6593 -0.1359
 5534TIP3    H140797   2.214   2.661   1.474  0.2719  0.5757 -0.3134
 5534TIP3    H240798   2.134   2.789   1.474  0.3810  0.6466  0.1998
 5535TIP3   OH240799   0.147   4.665   2.703  0.4108  0.0398  0.1195
 5535TIP3    H140800   0.201   4.726   2.754  0.6018 -0.2891  0.3126
 5535TIP3    H240801   0.188   4.580   2.716 -0.6025 -0.3552  0.9160
 5536TIP3   OH240802   6.525   4.640   2.114 -0.7031  0.0807  0.3692
 5536TIP3    H140803   6.542   4.579   2.186  0.4264 -1.2614 -0.9490
 5536TIP3    H240804   6.607   4.686   2.102 -0.2333 -1.0738 -1.2317
 5537TIP3   OH240805   4.881   7.559   1.467 -0.1497 -0.1545 -0.1825
 5537TIP3    H140806   4.904   7.585   1.377 -0.6837  0.1892 -0.2231
 5537TIP3    H240807   4.790   7.586   1.477 -0.3955 -1.0739  0.1361
 5538TIP3   OH240808   5.728   5.989   2.420 -0.5582  0.4372  0.2529
 5538TIP3    H140809   5.779   5.948   2.489 -0.4826  1.4305  0.8151
 5538TIP3    H240810   5.793   6.026   2.360 -0.6185  0.3245  0.1190
 5539TIP3   OH240811   6.195   0.448   2.300  0.0516  0.0997  0.1812
 5539TIP3    H140812   6.250   0.522   2.274 -0.7515  0.1289 -1.5874
 5539TIP3    H240813   6.143   0.428   2.222 -2.2600 -0.0807  1.6607
 5540TIP3   OH240814   0.268   5.614   2.010  0.2534 -0.1032 -0.6245
 5540TIP3    H140815   0.173   5.616   2.019  0.1739  2.4956 -1.3049
 5540TIP3    H240816   0.283   5.578   1.923  0.0380 -2.3859  0.2165
 5541TIP3   OH240817   6.573   3.181   1.311  0.0912  0.1510 -0.1660
 5541TIP3    H140818   6.542   3.233   1.385 -2.0070 -1.3124  0.0613
 5541TIP3    H240819   6.493   3.146   1.271  1.0545  1.3940 -3.5766
 5542TIP3   OH240820   5.661   0.501   3.454  0.3782 -0.1916 -0.1880
 5542TIP3    H140821   5.569   0.482   3.434 -0.6488  0.6862  3.0347
 5542TIP3    H240822   5.697   0.418   3.483  0.4947 -0.4570 -1.0833
 5543TIP3   OH240823   6.358   0.325   2.863 -0.6595 -0.3245  0.1049
 5543TIP3    H140824   6.356   0.273   2.783  0.7426 -0.8120  0.3613
 5543TIP3    H240825   6.422   0.394   2.845  0.3626 -0.9817  1.1064
 5544TIP3   OH240826   1.553   4.647   3.115  0.1082 -0.3371  0.7409
 5544TIP3    H140827   1.519   4.559   3.101 -1.6651  0.3666  0.4423
 5544TIP3    H240828   1.476   4.703   3.122  1.1897  1.2522  0.6489
 5545TIP3   OH240829   7.606   7.253   1.327 -0.0235 -0.0456  0.3382
 5545TIP3    H140830   7.693   7.257   1.288 -0.0053 -0.1545  0.3653
 5545TIP3    H240831   7.590   7.159   1.340 -0.0419 -0.0135  0.5602
 5546TIP3   OH240832   6.152   6.792   1.261 -0.2534 -0.3282  0.4221
 5546TIP3    H140833   6.230   6.770   1.209  0.3862  2.0868  0.2801
 5546TIP3    H240834   6.149   6.724   1.329  1.3084 -1.1061 -0.2303
 5547TIP3   OH240835   3.401   2.312   2.507 -0.0764  0.4895  0.2438
 5547TIP3    H140836   3.356   2.380   2.456  0.4052  0.9553  0.4309
 5547TIP3    H240837   3.413   2.351   2.594  0.2236  0.1764  0.3455
 5548TIP3   OH240838   3.099   0.944   1.726  0.2524 -0.1822 -0.1698
 5548TIP3    H140839   3.165   0.880   1.698 -0.4464 -1.4060  0.8301
 5548TIP3    H240840   3.034   0.891   1.774 -1.4726  0.9584 -1.1394
 5549TIP3   OH240841   1.610   0.970   2.534  0.3047 -0.1433 -0.5005
 5549TIP3    H140842   1.674   0.901   2.553 -0.8479 -0.9092  0.7720
 5549TIP3    H240843   1.662   1.051   2.533  1.4563 -0.8571 -0.5505
 5550TIP3   OH240844   4.182   4.536   1.502 -0.1010 -0.4330  0.3467
 5550TIP3    H140845   4.259   4.550   1.557  1.1439  1.8505 -1.7850
 5550TIP3    H240846   4.110   4.578   1.550  0.3457 -0.8997  1.4629
 5551TIP3   OH240847   2.398   6.336   2.716  0.2065  0.2074  0.3668
 5551TIP3    H140848   2.372   6.326   2.807 -0.5226  0.5037  0.1943
 5551TIP3    H240849   2.331   6.290   2.666  0.2791  0.5530 -0.0563
 5552TIP3   OH240850   6.067   0.706   2.430  0.0818  0.1515 -0.5101
 5552TIP3    H140851   6.093   0.623   2.390  3.2362  0.4891  0.5439
 5552TIP3    H240852   6.086   0.772   2.363 -1.2906  0.1825 -0.9068
 5553TIP3   OH240853   6.066   7.437   3.228 -0.0415 -0.2827  0.1307
 5553TIP3    H140854   6.085   7.433   3.134 -0.1308  1.6487  0.0052
 5553TIP3    H240855   6.149   7.465   3.268 -0.3708  0.1747  0.4901
 5554TIP3   OH240856   0.923   2.605   0.655  0.1685  0.7472 -0.0785
 5554TIP3    H140857   1.005   2.555   0.652  1.2491  2.3325  1.0521
 5554TIP3    H240858   0.857   2.545   0.621  1.8071 -0.5614 -1.1598
 5555TIP3   OH240859   0.514   0.794   2.682 -0.0690  0.1498 -0.5958
 5555TIP3    H140860   0.582   0.859   2.666  0.1908  0.3622  1.1531
 5555TIP3    H240861   0.556   0.710   2.665 -0.1442  0.3723 -1.9844
 5556TIP3   OH240862   2.360   3.007   2.127 -0.0601  0.1405  0.1884
 5556TIP3    H140863   2.378   3.092   2.167 -1.4145  1.0626 -1.0625
 5556TIP3    H240864   2.442   2.981   2.085 -0.0104  1.5013 -0.5870
 5557TIP3   OH240865   3.300   4.182   2.528 -0.1822  0.7818  0.4030
 5557TIP3    H140866   3.221   4.129   2.515 -0.3422  1.3289 -1.1279
 5557TIP3    H240867   3.268   4.272   2.527  0.4512  1.0061 -0.2343
 5558TIP3   OH240868   4.169   1.019   3.398  0.8794 -0.0356  0.0685
 5558TIP3    H140869   4.148   0.973   3.317 -0.4380  0.2081  0.2446
 5558TIP3    H240870   4.263   1.006   3.410  0.6346 -2.3780 -0.0708
 5559TIP3   OH240871   0.245   6.615   2.563 -0.3019  0.0977 -0.4438
 5559TIP3    H140872   0.282   6.680   2.503 -0.8412 -1.6742 -2.8590
 5559TIP3    H240873   0.317   6.557   2.584 -0.6443 -0.7474 -1.5021
 5560TIP3   OH240874   0.227   7.060   0.770 -0.3340  0.5480 -0.1538
 5560TIP3    H140875   0.193   7.147   0.749 -0.7706  0.8393  1.5612
 5560TIP3    H240876   0.159   7.000   0.741 -0.6139  0.8806 -0.1960
 5561TIP3   OH240877   7.046   0.768   2.527  0.2629  0.6646 -0.5017
 5561TIP3    H140878   7.080   0.785   2.439  0.8446  0.0831 -0.3999
 5561TIP3    H240879   7.035   0.855   2.566  1.7449  0.8845 -0.5159
 5562TIP3   OH240880   6.452   4.196   2.618 -0.8354 -0.4222 -0.3146
 5562TIP3    H140881   6.384   4.263   2.624 -2.8534 -2.2692 -0.9644
 5562TIP3    H240882   6.442   4.144   2.698  0.0194 -0.5385 -0.2809
 5563TIP3   OH240883   4.110   2.837   2.147  0.0178  0.0656 -0.7231
 5563TIP3    H140884   4.182   2.881   2.192 -0.0845 -1.1849  0.7426
 5563TIP3    H240885   4.140   2.746   2.137 -0.8465 -0.1708 -1.2477
 5564TIP3   OH240886   6.013   3.462   1.119 -0.0391  0.4160  0.3460
 5564TIP3    H140887   5.959   3.494   1.191 -0.3622  0.5955  0.0310
 5564TIP3    H240888   6.049   3.379   1.150  0.9216  1.1472  1.2334
 5565TIP3   OH240889   3.225   5.769   1.758 -0.2620 -0.0930 -0.5684
 5565TIP3    H140890   3.159   5.821   1.803  0.9183  0.6396  0.3699
 5565TIP3    H240891   3.201   5.678   1.776 -1.5303  0.1219 -1.0414
 5566TIP3   OH240892   0.920   7.473   2.389 -0.3736 -0.3234 -0.4478
 5566TIP3    H140893   0.927   7.384   2.423 -1.8587 -0.6936 -1.0564
 5566TIP3    H240894   0.874   7.522   2.458 -1.7874 -0.6462 -1.1368
 5567TIP3   OH240895   4.142   6.979   2.117 -0.9686  0.0955 -0.2078
 5567TIP3    H140896   4.201   6.942   2.183  0.9554  1.5246 -1.0353
 5567TIP3    H240897   4.173   6.944   2.034 -1.5067  0.6152 -0.6379
 5568TIP3   OH240898   6.638   0.120   2.722 -0.3567  0.2012  0.2523
 5568TIP3    H140899   6.633   0.170   2.641 -1.3535  0.5582  0.5237
 5568TIP3    H240900   6.644   0.185   2.791 -0.2651 -0.0893  0.5223
 5569TIP3   OH240901   1.726   6.870   2.500  0.0477  0.6863 -0.2560
 5569TIP3    H140902   1.635   6.870   2.529  0.9799 -0.8600  3.1743
 5569TIP3    H240903   1.727   6.812   2.423 -1.9193  1.3328 -0.8235
 5570TIP3   OH240904   1.845   0.482   1.915  0.8598 -0.4979  0.2434
 5570TIP3    H140905   1.775   0.453   1.973 -0.7072  2.6245  0.1473
 5570TIP3    H240906   1.806   0.483   1.828  1.4044  0.1088 -0.0069
 5571TIP3   OH240907   2.782   5.344   1.622 -0.2646 -0.0940 -0.2062
 5571TIP3    H140908   2.858   5.346   1.564 -0.8930 -1.4890 -1.1214
 5571TIP3    H240909   2.815   5.307   1.704  0.2496  0.2968 -0.2323
 5572TIP3   OH240910   7.660   5.702   1.953  0.7765 -0.3965  0.1629
 5572TIP3    H140911   7.587   5.651   1.916 -0.0658  0.6688  0.2994
 5572TIP3    H240912   7.705   5.738   1.877  0.2924  0.0993  0.1027
 5573TIP3   OH240913   5.312   3.354   2.869 -0.7865 -0.0640 -0.0588
 5573TIP3    H140914   5.293   3.443   2.839  2.1878  0.2932 -1.1913
 5573TIP3    H240915   5.322   3.303   2.789  0.1836 -0.7963  0.5112
 5574TIP3   OH240916   5.204   1.472   2.995  0.0204  0.5434  0.6331
 5574TIP3    H140917   5.241   1.431   2.917  2.7125 -0.5243  2.3398
 5574TIP3    H240918   5.166   1.400   3.045 -1.4626  1.1786  0.4621
 5575TIP3   OH240919   6.900   4.721   0.628 -0.0856 -0.0061 -0.3833
 5575TIP3    H140920   6.832   4.734   0.562 -0.5410  1.9566  0.4178
 5575TIP3    H240921   6.921   4.809   0.660  2.9218 -0.5110 -0.6591
 5576TIP3   OH240922   0.171   0.202   0.655 -0.4148 -0.5053 -0.1521
 5576TIP3    H140923   0.199   0.252   0.731 -1.3659 -2.2095  1.4187
 5576TIP3    H240924   0.251   0.188   0.603  0.5204 -0.4334  1.2340
 5577TIP3   OH240925   4.760   6.385   0.988 -0.0857  0.1976  0.0798
 5577TIP3    H140926   4.814   6.352   1.060 -1.1733  0.4075  1.0142
 5577TIP3    H240927   4.748   6.309   0.931  1.1532  0.1391 -0.1324
 5578TIP3   OH240928   6.515   5.335   1.813 -0.2246 -0.4196 -0.5225
 5578TIP3    H140929   6.561   5.256   1.844  0.4536  0.2329  0.1883
 5578TIP3    H240930   6.578   5.378   1.755 -0.4203 -0.1785 -0.5573
 5579TIP3   OH240931   0.832   3.095   1.924  0.0027  0.5332 -0.2083
 5579TIP3    H140932   0.914   3.078   1.972 -0.1258  2.5623  0.8654
 5579TIP3    H240933   0.766   3.104   1.993 -0.6182  1.4061 -0.8965
 5580TIP3   OH240934   4.579   3.665   0.674 -0.3215  0.6879  0.6208
 5580TIP3    H140935   4.627   3.678   0.755  2.4449  2.1112 -1.0661
 5580TIP3    H240936   4.564   3.754   0.641 -1.6757  0.1581 -0.2931
 5581TIP3   OH240937   7.672   0.448   1.023  0.5027  0.0570 -0.6801
 5581TIP3    H140938   7.690   0.541   1.030  2.1467 -0.2630 -0.2653
 5581TIP3    H240939   7.625   0.438   0.940  1.1975  1.1240 -1.2162
 5582TIP3   OH240940   2.020   6.969   1.732 -0.2837  0.2274 -0.2583
 5582TIP3    H140941   2.001   7.010   1.816 -0.8227 -1.8837  0.6887
 5582TIP3    H240942   2.084   6.901   1.751  1.0484  0.9360 -1.8926
 5583TIP3   OH240943   6.567   1.963   2.598  0.1004  0.0368  0.0169
 5583TIP3    H140944   6.629   2.029   2.566 -0.2076  1.0064  1.3393
 5583TIP3    H240945   6.499   2.013   2.643 -1.4276 -1.0487 -1.0132
 5584TIP3   OH240946   1.749   1.813   2.186  0.2929  0.0993 -0.7109
 5584TIP3    H140947   1.752   1.821   2.091 -0.4067  2.1232 -0.6064
 5584TIP3    H240948   1.672   1.759   2.203  0.0673  0.2314 -1.2895
 5585TIP3   OH240949   3.285   3.039   2.360 -0.3748 -0.4735  0.2577
 5585TIP3    H140950   3.194   3.031   2.334  0.5617 -1.0845 -3.4676
 5585TIP3    H240951   3.322   3.105   2.301  1.5243  0.0769  1.9360
 5586TIP3   OH240952   1.684   6.167   1.269 -0.1856  0.3659 -0.5413
 5586TIP3    H140953   1.687   6.236   1.336 -0.3029 -0.4409  0.3256
 5586TIP3    H240954   1.745   6.196   1.202  0.6611  0.7677  0.3661
 5587TIP3   OH240955   7.034   4.746   2.261  0.0906  0.0061  0.4139
 5587TIP3    H140956   7.088   4.709   2.191 -1.0656  0.7825 -0.9459
 5587TIP3    H240957   7.059   4.838   2.264  0.0999 -0.0149  0.9985
 5588TIP3   OH240958   0.498   2.459   2.324  0.7532  0.5449  0.1342
 5588TIP3    H140959   0.551   2.498   2.254  1.9814 -1.7446 -0.3053
 5588TIP3    H240960   0.411   2.449   2.286  1.4321 -0.7944 -1.1870
 5589TIP3   OH240961   2.597   5.402   2.700 -0.1962  0.3329 -0.1461
 5589TIP3    H140962   2.617   5.490   2.732 -1.5957  1.0794 -1.2214
 5589TIP3    H240963   2.550   5.360   2.773 -3.3024  1.9964 -0.9900
 5590TIP3   OH240964   4.717   2.864   1.243 -0.1066 -0.5535  0.0785
 5590TIP3    H140965   4.623   2.872   1.223 -0.0777  1.1360  0.4963
 5590TIP3    H240966   4.760   2.914   1.174  0.3540  0.3294  0.9858
 5591TIP3   OH240967   1.980   7.329   2.682  0.1700  0.3797  0.0387
 5591TIP3    H140968   1.887   7.334   2.659  0.2727  0.4681 -0.3585
 5591TIP3    H240969   2.025   7.378   2.614  0.5322  0.1205  0.0846
 5592TIP3   OH240970   7.341   0.766   1.312 -0.1653  0.6012  0.2367
 5592TIP3    H140971   7.402   0.806   1.251  0.8309 -0.9289  0.1920
 5592TIP3    H240972   7.256   0.802   1.288  0.5026  1.5777 -0.7101
 5593TIP3   OH240973   2.514   3.108   2.807 -0.1130 -0.1525  0.0058
 5593TIP3    H140974   2.488   3.082   2.719 -0.5914 -0.5313  0.2529
 5593TIP3    H240975   2.609   3.097   2.808  0.0435  1.0103 -0.8291
 5594TIP3   OH240976   5.604   5.870   1.527  0.1504 -0.1678  0.9831
 5594TIP3    H140977   5.526   5.819   1.547 -0.7462  0.4692 -0.6369
 5594TIP3    H240978   5.635   5.833   1.444  0.9986  0.2352  1.1151
 5595TIP3   OH240979   2.632   2.350   1.776  0.5276  0.2077 -0.4045
 5595TIP3    H140980   2.695   2.329   1.845 -0.2692  0.8368  0.5427
 5595TIP3    H240981   2.663   2.432   1.739 -0.0602  0.8429  0.4846
 5596TIP3   OH240982   3.033   2.918   0.765 -0.6006  0.3067 -0.2100
 5596TIP3    H140983   3.055   2.882   0.679 -0.4883  0.3425 -0.1966
 5596TIP3    H240984   3.116   2.916   0.813 -0.6995  0.1218 -0.0435
 5597TIP3   OH240985   4.875   6.285   2.245  0.0822 -0.2719 -0.2319
 5597TIP3    H140986   4.850   6.229   2.319  1.3000 -0.6742 -0.0977
 5597TIP3    H240987   4.850   6.236   2.167 -3.3511  1.1192 -0.1888
 5598TIP3   OH240988   2.392   2.899   2.972  0.4907 -0.3183  0.4565
 5598TIP3    H140989   2.377   2.964   3.042  1.3715 -1.3809  1.6836
 5598TIP3    H240990   2.430   2.949   2.901  1.2172  0.5270  1.4087
 5599TIP3   OH240991   2.478   0.174   1.196 -0.4370 -0.3682 -0.3803
 5599TIP3    H140992   2.500   0.268   1.190  3.5520 -1.1178 -0.3510
 5599TIP3    H240993   2.482   0.154   1.289  2.1098 -1.0784 -0.5506
 5600TIP3   OH240994   5.751   0.911   2.930  0.0882  0.3915  0.3553
 5600TIP3    H140995   5.661   0.939   2.951  0.0426  0.2859  0.3027
 5600TIP3    H240996   5.753   0.818   2.953  0.3654  0.5371  0.9278
 5601TIP3   OH240997   0.233   2.743   2.946  0.0872 -0.1543  0.2133
 5601TIP3    H140998   0.156   2.722   2.998 -1.3046  0.8565 -1.3153
 5601TIP3    H240999   0.238   2.839   2.948 -1.4017  0.1612 -3.1870
 5602TIP3   OH241000   4.771   7.466   0.991  0.2905 -0.5474 -0.3263
 5602TIP3    H141001   4.751   7.548   0.946  0.0131 -1.3574 -1.7594
 5602TIP3    H241002   4.859   7.443   0.962 -0.0220 -1.2492 -0.7566
 5603TIP3   OH241003   6.489   4.599   1.274 -0.3825  0.2077  0.0831
 5603TIP3    H141004   6.453   4.685   1.255  0.8149  0.6721 -0.1454
 5603TIP3    H241005   6.554   4.614   1.343 -0.4768 -0.5782  0.3550
 5604TIP3   OH241006   5.767   0.639   2.809  0.0200 -0.2183  0.2377
 5604TIP3    H141007   5.680   0.656   2.774 -0.6457  0.6619  2.1559
 5604TIP3    H241008   5.826   0.690   2.753 -0.7999 -0.0712 -0.5187
 5605TIP3   OH241009   3.014   0.581   3.470  0.0997  0.2941  0.2709
 5605TIP3    H141010   2.921   0.564   3.455  0.1154  0.8690 -0.5157
 5605TIP3    H241011   3.059   0.511   3.422  0.0859  0.3919  0.1149
 5606TIP3   OH241012   1.720   4.187   0.997  0.0482 -0.4946 -0.6948
 5606TIP3    H141013   1.632   4.215   1.021  0.3387 -0.2595  0.1572
 5606TIP3    H241014   1.714   4.092   0.991 -0.0129 -0.5885  0.5289
 5607TIP3   OH241015   4.445   7.657   0.689 -0.3123 -0.0775  0.1188
 5607TIP3    H141016   4.468   7.738   0.734  0.0790  0.6498 -1.3158
 5607TIP3    H241017   4.528   7.627   0.652 -0.0877 -2.1142  2.0583
 5608TIP3   OH241018   6.586   7.592   2.546 -0.2008 -0.8566 -0.2354
 5608TIP3    H141019   6.671   7.597   2.502  0.1833 -2.3506  0.2803
 5608TIP3    H241020   6.599   7.637   2.629 -0.3382  0.1678 -0.7583
 5609TIP3   OH241021   0.418   0.832   3.233 -0.3209 -0.6804  0.2992
 5609TIP3    H141022   0.503   0.824   3.276 -0.0199  0.7178  0.0058
 5609TIP3    H241023   0.354   0.813   3.302  0.1149  2.2873  1.6686
 5610TIP3   OH241024   0.717   2.404   0.600 -0.5662  0.5816  0.0186
 5610TIP3    H141025   0.782   2.339   0.573  0.1073  1.4029 -0.3893
 5610TIP3    H241026   0.633   2.359   0.593 -0.2595  0.2319 -1.8715
 5611TIP3   OH241027   3.075   5.570   2.096 -0.5666  0.3830 -0.4622
 5611TIP3    H141028   3.086   5.664   2.082 -3.1171  1.1052  1.4444
 5611TIP3    H241029   3.004   5.546   2.037  0.2718 -0.4440 -1.1547
 5612TIP3   OH241030   0.053   2.660   2.348 -0.4825  0.1367  0.0820
 5612TIP3    H141031   0.096   2.616   2.275  0.1377 -0.4901  0.8088
 5612TIP3    H241032  -0.038   2.631   2.342 -0.2206 -0.7240  0.1547
 5613TIP3   OH241033   7.515   0.326   0.815  0.2719  0.4611  0.0214
 5613TIP3    H141034   7.454   0.252   0.808  0.1725  0.4785  0.6497
 5613TIP3    H241035   7.507   0.371   0.731  0.2348 -0.1651 -0.3220
 5614TIP3   OH241036   1.671   7.323   2.671  0.4857 -0.5354 -0.0419
 5614TIP3    H141037   1.659   7.406   2.625  1.1137 -0.0619  0.6256
 5614TIP3    H241038   1.583   7.297   2.697  0.1411 -0.7299 -1.3588
 5615TIP3   OH241039   6.039   1.509   3.044 -0.1282 -0.3468 -0.2066
 5615TIP3    H141040   5.975   1.564   3.089 -0.3610 -2.1573  1.8900
 5615TIP3    H241041   5.988   1.465   2.975 -0.6926 -0.2808  0.1551
 5616TIP3   OH241042   6.795   6.957   1.282  0.0250  0.0779 -0.1485
 5616TIP3    H141043   6.850   6.916   1.349 -0.8778 -0.2228  0.4356
 5616TIP3    H241044   6.794   7.050   1.305  0.3820  0.1009 -0.2271
 5617TIP3   OH241045   4.437   2.470   2.076  0.3802 -0.5468 -0.5403
 5617TIP3    H141046   4.461   2.557   2.107  0.8333 -0.8368 -0.0490
 5617TIP3    H241047   4.518   2.419   2.085 -0.7836 -2.0910  3.0292
 5618TIP3   OH241048   7.479   5.191   2.599  0.6321 -0.4269 -0.4896
 5618TIP3    H141049   7.510   5.115   2.648 -0.7161 -0.4408  0.3809
 5618TIP3    H241050   7.390   5.169   2.574  0.9864 -0.0497 -2.2319
 5619TIP3   OH241051   1.195   3.264   2.585 -0.4799  0.5048 -0.0953
 5619TIP3    H141052   1.217   3.356   2.602  1.2771  0.1347 -0.1534
 5619TIP3    H241053   1.235   3.217   2.658 -0.8947 -0.2792 -0.3702
 5620TIP3   OH241054   3.943   4.949   1.190  0.0152  0.2387 -0.0942
 5620TIP3    H141055   3.936   4.881   1.124  1.6480 -0.4297  0.3857
 5620TIP3    H241056   3.946   4.902   1.273  0.5225  0.9262  0.2878
 5621TIP3   OH241057   1.750   0.835   0.837 -0.3417  0.2854  0.0018
 5621TIP3    H141058   1.722   0.920   0.803  2.9018  0.7430 -2.0176
 5621TIP3    H241059   1.706   0.771   0.782 -2.8437  0.5455  1.5634
 5622TIP3   OH241060   0.428   0.574   2.030 -0.1153 -0.0553 -0.1004
 5622TIP3    H141061   0.462   0.622   2.106  0.1019 -1.4013  0.6828
 5622TIP3    H241062   0.344   0.539   2.060 -0.0220 -0.6014 -0.4622
 5623TIP3   OH241063   0.222   5.327   2.187 -0.0524 -0.1667  0.1255
 5623TIP3    H141064   0.281   5.369   2.125  0.6310  3.0471  2.7196
 5623TIP3    H241065   0.262   5.242   2.205  0.8925 -0.2432 -2.0679
 5624TIP3   OH241066   5.504   5.884   2.510  0.2194 -0.0673  0.7635
 5624TIP3    H141067   5.574   5.937   2.471 -0.0765  0.2493  0.6554
 5624TIP3    H241068   5.441   5.871   2.439  1.7865 -3.3392 -0.2243
 5625TIP3   OH241069   4.538   0.486   1.003  0.2133 -0.0806 -0.1575
 5625TIP3    H141070   4.566   0.577   0.991 -1.9099  0.6083 -0.1667
 5625TIP3    H241071   4.574   0.462   1.088  1.1316  0.6097 -0.3258
 5626TIP3   OH241072   3.528   6.038   0.708 -0.1260 -0.2660 -0.0645
 5626TIP3    H141073   3.499   6.128   0.723 -0.4816 -0.3581 -0.1767
 5626TIP3    H241074   3.514   5.993   0.792 -1.0207 -0.4938 -0.3236
 5627TIP3   OH241075   1.404   2.853   0.471  0.0299 -0.0549 -0.0679
 5627TIP3    H141076   1.370   2.860   0.561 -2.3271 -0.3240 -0.8646
 5627TIP3    H241077   1.445   2.767   0.467 -2.8194 -1.5213 -0.0902
 5628TIP3   OH241078   4.213   4.464   0.651 -0.1040 -0.2436  0.1668
 5628TIP3    H141079   4.296   4.434   0.688 -0.5835  0.0252  1.5303
 5628TIP3    H241080   4.188   4.538   0.705 -0.5951  0.5152 -1.0594
 5629TIP3   OH241081   4.129   1.051   2.299  0.8848 -0.3862  0.4934
 5629TIP3    H141082   4.129   0.970   2.349  1.8555 -0.3911  0.5064
 5629TIP3    H241083   4.181   1.112   2.351 -1.0243  0.7286  1.2059
 5630TIP3   OH241084   0.066   2.642   1.681 -0.2293 -0.1254 -0.2712
 5630TIP3    H141085   0.114   2.564   1.652  1.0126  0.2569  0.6415
 5630TIP3    H241086  -0.026   2.619   1.673  0.0826 -0.8592 -2.2129
 5631TIP3   OH241087   4.697   1.322   3.142 -0.8921 -0.1401  0.2350
 5631TIP3    H141088   4.627   1.277   3.190 -0.2969 -0.1329  1.1253
 5631TIP3    H241089   4.776   1.307   3.194 -0.3951  0.6178 -0.2812
 5632TIP3   OH241090   5.996   2.577   1.921 -0.2677  0.2588  0.5305
 5632TIP3    H141091   5.908   2.609   1.899 -0.7558 -0.5418  1.2368
 5632TIP3    H241092   6.052   2.654   1.916 -0.8682  0.6409 -0.6597
 5633TIP3   OH241093   0.147   7.484   1.153  0.2406 -0.4443 -0.2827
 5633TIP3    H141094   0.158   7.541   1.229  1.4123 -0.8366 -0.1482
 5633TIP3    H241095   0.153   7.544   1.078  0.1730 -0.2126 -0.1042
 5634TIP3   OH241096   4.278   3.751   2.727 -0.3289  0.3458  0.3214
 5634TIP3    H141097   4.304   3.704   2.648  0.3209 -0.5694  1.0625
 5634TIP3    H241098   4.232   3.685   2.780  0.2659  0.6333  1.2108
 5635TIP3   OH241099   7.210   4.574   2.387  0.2729  0.5321 -0.0763
 5635TIP3    H141100   7.280   4.509   2.395  1.3677  1.6546 -0.3918
 5635TIP3    H241101   7.253   4.653   2.357 -1.1456  1.2521 -0.2979
 5636TIP3   OH241102   3.782   4.195   0.575  0.2042  0.5054  0.0431
 5636TIP3    H141103   3.778   4.264   0.641  1.5125  2.3305 -1.6679
 5636TIP3    H241104   3.862   4.213   0.526 -1.0548 -0.2851 -2.5170
 5637TIP3   OH241105   5.275   3.557   1.158 -0.2766 -0.3517  0.0408
 5637TIP3    H141106   5.189   3.582   1.190 -0.1600 -0.7714  0.6868
 5637TIP3    H241107   5.330   3.633   1.174 -0.2268 -0.5428  0.8229
 5638TIP3   OH241108   1.226   1.927   0.513 -0.5622  0.2712 -0.3280
 5638TIP3    H141109   1.157   1.891   0.457  1.4132 -0.3421 -2.5232
 5638TIP3    H241110   1.290   1.856   0.521  1.6112  1.9728 -1.5690
 5639TIP3   OH241111   2.290   4.770   2.358  0.6054  0.2112  0.0793
 5639TIP3    H141112   2.244   4.781   2.275 -1.3595  0.4338  1.1319
 5639TIP3    H241113   2.228   4.802   2.424  2.1745  0.2231  1.6202
 5640TIP3   OH241114   4.738   2.524   1.859  0.2978  0.3165  0.1846
 5640TIP3    H141115   4.741   2.449   1.918 -2.6935  0.6002  0.8603
 5640TIP3    H241116   4.700   2.489   1.778 -0.3276  0.9057  0.2164
 5641TIP3   OH241117   4.155   5.408   2.184  0.4419  0.3472  0.3208
 5641TIP3    H141118   4.210   5.481   2.156  1.1267 -0.4503 -0.4775
 5641TIP3    H241119   4.188   5.385   2.271 -0.1362  1.3289  0.8077
 5642TIP3   OH241120   2.973   4.901   1.553  0.2811 -0.1218 -0.1802
 5642TIP3    H141121   3.013   4.932   1.472  0.5687 -1.4997 -0.5910
 5642TIP3    H241122   2.879   4.911   1.540  0.3483  0.1046 -0.4924
 5643TIP3   OH241123   4.891   1.868   1.398 -0.4434 -0.5215  0.3740
 5643TIP3    H141124   4.920   1.779   1.415  0.8577 -0.0700  0.6245
 5643TIP3    H241125   4.972   1.918   1.385 -1.1187  0.7098  0.7202
 5644TIP3   OH241126   0.257   0.955   2.763 -0.5101 -0.2914 -0.1695
 5644TIP3    H141127   0.208   1.036   2.750 -1.1206 -0.9839 -2.7110
 5644TIP3    H241128   0.348   0.984   2.771 -0.7635  0.6933 -0.5946
 5645TIP3   OH241129   2.373   2.624   1.191 -0.2620 -0.0101  0.1864
 5645TIP3    H141130   2.310   2.655   1.255 -0.4426 -0.8057  0.4081
 5645TIP3    H241131   2.328   2.634   1.107 -0.0270  1.0252  0.1684
 5646TIP3   OH241132   5.229   7.065   3.605  0.3644  0.2984 -0.1545
 5646TIP3    H141133   5.293   7.083   3.536 -0.7550 -0.1002 -1.3440
 5646TIP3    H241134   5.267   6.992   3.655  1.2574  0.6866 -0.2466
 5647TIP3   OH241135   2.603   2.835   2.077 -0.2772 -0.5527 -0.2683
 5647TIP3    H141136   2.590   2.804   1.988  1.5442 -1.0869 -0.3927
 5647TIP3    H241137   2.690   2.803   2.101 -1.1963 -1.5026  2.1585
 5648TIP3   OH241138   4.415   7.125   1.393 -0.1432  0.0687  0.4485
 5648TIP3    H141139   4.478   7.165   1.333 -0.9971  0.4767 -0.2085
 5648TIP3    H241140   4.361   7.069   1.336 -2.1563  1.8727  0.4495
 5649TIP3   OH241141   6.208   1.642   2.019 -0.2241 -0.1077 -0.4938
 5649TIP3    H141142   6.114   1.623   2.027 -0.5246  1.5849  0.5211
 5649TIP3    H241143   6.211   1.733   1.990  1.1048  0.1644  0.4343
 5650TIP3   OH241144   2.996   6.636   1.362 -0.1504 -0.4375  0.1132
 5650TIP3    H141145   3.085   6.633   1.397 -0.0619 -0.4042 -0.1083
 5650TIP3    H241146   2.992   6.717   1.312 -0.0479 -0.8340 -0.5524
 5651TIP3   OH241147   4.375   2.379   1.780  0.1982 -0.1949 -0.2646
 5651TIP3    H141148   4.345   2.288   1.781  0.7077 -0.4356  2.6953
 5651TIP3    H241149   4.471   2.372   1.783  0.2225  0.3196  1.9878
 5652TIP3   OH241150   6.824   2.218   3.544  0.2573 -0.1317 -0.2126
 5652TIP3    H141151   6.823   2.230   3.449 -1.2977  1.9122  0.0000
 5652TIP3    H241152   6.912   2.245   3.571  0.1174  1.0518 -0.9030
 5653TIP3   OH241153   1.418   3.233   0.575  0.2811 -0.0101 -0.0841
 5653TIP3    H141154   1.346   3.249   0.513 -1.1617  0.2443  1.5742
 5653TIP3    H241155   1.376   3.191   0.650  2.0784 -0.8384  0.5027
 5654TIP3   OH241156   6.246   3.413   2.330 -0.5154 -0.3411 -0.2143
 5654TIP3    H141157   6.295   3.464   2.265  0.2260  1.2061  1.4858
 5654TIP3    H241158   6.161   3.456   2.333 -0.4865 -0.3002 -0.0158
 5655TIP3   OH241159   5.234   4.901   1.173 -0.5158 -0.2676 -0.1793
 5655TIP3    H141160   5.327   4.912   1.154 -0.4887  0.9080  0.4845
 5655TIP3    H241161   5.232   4.852   1.255 -0.4687 -0.2135 -0.1451
 5656TIP3   OH241162   7.182   6.766   1.155  0.0561 -0.1283  0.5026
 5656TIP3    H141163   7.140   6.680   1.154  2.9775 -1.7501  2.2723
 5656TIP3    H241164   7.255   6.757   1.093  1.0024  0.6850  1.4652
 5657TIP3   OH241165   6.127   4.455   1.082 -0.0666  0.1137  0.0588
 5657TIP3    H141166   6.086   4.438   1.166  0.1043  0.8759  0.2993
 5657TIP3    H241167   6.062   4.427   1.017  0.2948 -1.6837  0.4148
 5658TIP3   OH241168   6.781   2.181   3.243 -0.1481  0.1903 -0.1881
 5658TIP3    H141169   6.727   2.103   3.231 -0.4363  0.2664  0.5443
 5658TIP3    H241170   6.720   2.248   3.273 -0.0030  0.8695 -1.3409
 5659TIP3   OH241171   7.079   5.117   1.684 -0.0806 -0.3971  0.0237
 5659TIP3    H141172   7.017   5.065   1.735 -0.6628 -0.9402 -1.1791
 5659TIP3    H241173   7.136   5.052   1.642  0.5762  0.0458  0.2170
 5660TIP3   OH241174   1.683   1.090   0.697  0.2002  0.1397  0.1127
 5660TIP3    H141175   1.743   1.085   0.622 -0.7056  2.1447 -0.8178
 5660TIP3    H241176   1.660   1.183   0.704 -1.1895 -0.2697  1.7285
 5661TIP3   OH241177   5.627   5.088   1.873 -0.1590 -0.1523  0.5098
 5661TIP3    H141178   5.676   5.010   1.847  0.2760  0.4249 -0.4489
 5661TIP3    H241179   5.639   5.150   1.800 -0.7541  0.6934  1.1078
 5662TIP3   OH241180   0.882   5.422   1.575 -0.4379 -0.0761 -0.5144
 5662TIP3    H141181   0.850   5.335   1.553 -0.1781 -0.5109  0.7323
 5662TIP3    H241182   0.942   5.408   1.648  1.2316  0.9276 -1.6303
 5663TIP3   OH241183   1.143   0.711   0.753 -0.1650  0.5455 -0.4666
 5663TIP3    H141184   1.215   0.740   0.809 -0.1990 -0.8086  0.3148
 5663TIP3    H241185   1.106   0.793   0.718 -0.1309  1.4511  1.4670
 5664TIP3   OH241186   2.282   6.395   2.229  0.2644 -0.1272  0.1389
 5664TIP3    H141187   2.345   6.345   2.281  1.9079  1.6429 -0.0272
 5664TIP3    H241188   2.230   6.443   2.293 -1.0868 -1.7072  0.2834
 5665TIP3   OH241189   0.955   2.022   3.259  0.2243 -0.6419  0.5112
 5665TIP3    H141190   1.009   2.076   3.316  1.3628 -1.7601  0.5625
 5665TIP3    H241191   0.906   2.084   3.206 -1.3763  0.4439  3.0949
 5666TIP3   OH241192   0.654   3.835   1.747  0.1632  0.8344 -0.0808
 5666TIP3    H141193   0.685   3.796   1.665 -1.9365 -0.6033 -0.2678
 5666TIP3    H241194   0.628   3.924   1.722 -0.6607  0.3442 -1.0642
 5667TIP3   OH241195   5.539   7.504   2.092 -0.5964  0.0886  0.2461
 5667TIP3    H141196   5.527   7.598   2.108  0.2189  0.0985  0.8742
 5667TIP3    H241197   5.634   7.494   2.082 -0.6906 -0.6577  0.0783
 5668TIP3   OH241198   2.511   2.390   1.119  0.1637  0.6486  0.3348
 5668TIP3    H141199   2.458   2.468   1.104  0.5577  0.8242 -0.1693
 5668TIP3    H241200   2.454   2.331   1.168 -1.8695 -0.6435 -3.2266
 5669TIP3   OH241201   5.263   0.527   2.962 -0.3883  0.1417  0.1738
 5669TIP3    H141202   5.188   0.491   3.009  2.0531 -3.1946  1.9463
 5669TIP3    H241203   5.264   0.480   2.878  0.5559 -1.1236  0.8514
 5670TIP3   OH241204   2.108   5.381   1.449 -0.0096 -0.0150  0.0290
 5670TIP3    H141205   2.083   5.454   1.392  0.6313  1.5505  1.6390
 5670TIP3    H241206   2.026   5.353   1.489  0.0344  1.7975  1.5462
 5671TIP3   OH241207   6.050   3.954   1.763 -0.1560 -0.4463 -0.7569
 5671TIP3    H141208   5.972   3.900   1.772  0.9148 -1.9327  0.0641
 5671TIP3    H241209   6.105   3.906   1.701 -0.0204  0.7494 -1.5919
 5672TIP3   OH241210   7.484   0.914   0.899 -0.0858  0.2949 -0.0518
 5672TIP3    H141211   7.562   0.948   0.855 -0.1208  0.0616 -0.2994
 5672TIP3    H241212   7.431   0.876   0.829 -0.1621 -0.0436  0.1845
 5673TIP3   OH241213   6.709   0.927   1.617  0.5713  0.1379  0.0919
 5673TIP3    H141214   6.661   0.846   1.602  1.7459 -0.8976  1.5870
 5673TIP3    H241215   6.642   0.994   1.630 -0.4122 -0.6369 -0.8535
 5674TIP3   OH241216   5.234   6.371   1.715  0.6009 -0.5458 -0.2566
 5674TIP3    H141217   5.258   6.464   1.717  0.4641 -0.4016 -2.5205
 5674TIP3    H241218   5.150   6.370   1.668 -1.0982 -1.5702  2.5421
 5675TIP3   OH241219   3.574   1.952   1.376 -0.0510 -0.5329  0.4956
 5675TIP3    H141220   3.544   1.907   1.297 -1.1948  0.8661  0.0817
 5675TIP3    H241221   3.628   1.888   1.422 -0.2064 -1.7115 -0.9134
 5676TIP3   OH241222   5.172   7.087   3.241 -0.4633  0.3707 -0.2003
 5676TIP3    H141223   5.085   7.048   3.252  0.0044 -0.8422 -0.6108
 5676TIP3    H241224   5.224   7.018   3.200  0.7625  0.9988  0.2422
 5677TIP3   OH241225   6.820   1.020   3.096  0.4406 -0.4038  0.2481
 5677TIP3    H141226   6.728   1.036   3.117  0.2710 -1.6036  0.4501
 5677TIP3    H241227   6.868   1.081   3.153 -0.1885 -0.4622  0.8601
 5678TIP3   OH241228   6.300   3.111   1.305 -0.1087 -0.1195 -0.3341
 5678TIP3    H141229   6.292   3.016   1.291 -1.9746 -0.0142 -0.1859
 5678TIP3    H241230   6.235   3.150   1.247 -0.4290  0.9762  0.7188
 5679TIP3   OH241231   1.201   0.029   0.538 -0.9241  0.2142  0.0381
 5679TIP3    H141232   1.239   0.116   0.525 -0.9140  0.0281 -1.3706
 5679TIP3    H241233   1.276  -0.027   0.558 -0.9331  0.5231  0.9705
 5680TIP3   OH241234   1.244   4.126   0.868  0.0071  0.4116 -0.2809
 5680TIP3    H141235   1.176   4.146   0.933 -0.2064 -0.7169 -0.1269
 5680TIP3    H241236   1.204   4.148   0.784  0.0902  1.3812 -0.0757
 5681TIP3   OH241237   3.520   0.436   2.904  0.1058 -0.1181 -0.0164
 5681TIP3    H141238   3.576   0.445   2.828 -0.1777 -0.6963 -0.3022
 5681TIP3    H241239   3.524   0.343   2.926  0.0383  0.0079  0.5643
 5682TIP3   OH241240   0.672   0.751   1.642  0.2219  0.8836 -0.1771
 5682TIP3    H141241   0.691   0.711   1.727  0.5172  0.4056 -0.4653
 5682TIP3    H241242   0.584   0.720   1.620  0.3270  0.6425 -0.2570
 5683TIP3   OH241243   6.126   4.636   1.495  0.5786 -0.0168  0.4907
 5683TIP3    H141244   6.085   4.582   1.427 -0.5844 -0.4437  1.4896
 5683TIP3    H241245   6.203   4.585   1.523 -0.1857 -0.9050  1.0198
 5684TIP3   OH241246   2.685   4.976   2.269  0.1412 -0.8977  0.1552
 5684TIP3    H141247   2.707   5.068   2.280  0.5155 -1.1890  2.1226
 5684TIP3    H241248   2.592   4.976   2.246  0.6528  0.0345 -2.2864
 5685TIP3   OH241249   5.705   1.366   1.813 -0.1343  0.2439  0.0756
 5685TIP3    H141250   5.771   1.340   1.749  0.1871  1.4872 -0.1290
 5685TIP3    H241251   5.648   1.290   1.822  0.1266 -0.1330 -1.2801
 5686TIP3   OH241252   3.330   0.590   1.527 -0.1326 -0.2932  0.2509
 5686TIP3    H141253   3.264   0.635   1.475 -1.2255 -1.0057  0.9615
 5686TIP3    H241254   3.341   0.645   1.605  0.6963  0.2137 -0.2086
 5687TIP3   OH241255   6.885   0.932   2.708  0.5781 -0.0418  0.2327
 5687TIP3    H141256   6.935   1.014   2.705  1.5458 -0.4869  2.5695
 5687TIP3    H241257   6.885   0.906   2.800 -0.7221 -2.0775 -0.2665
 5688TIP3   OH241258   7.220   2.908   2.498  0.7402 -0.3474  0.0303
 5688TIP3    H141259   7.186   2.985   2.542 -0.4768 -0.1396 -1.1985
 5688TIP3    H241260   7.248   2.850   2.568 -2.6680 -0.7621  1.2341
 5689TIP3   OH241261   7.210   0.973   1.628  0.5999 -0.2592 -0.0528
 5689TIP3    H141262   7.143   1.025   1.583 -1.2211 -0.7847  1.9104
 5689TIP3    H241263   7.162   0.903   1.671  2.7958 -2.6924 -1.2261
 5690TIP3   OH241264   5.879   3.372   2.910  0.3754  0.0802 -0.6315
 5690TIP3    H141265   5.790   3.386   2.880 -0.8710 -0.8132  2.3066
 5690TIP3    H241266   5.897   3.280   2.891  0.9505  0.4148 -1.7885
 5691TIP3   OH241267   7.180   0.850   2.289  0.3058  0.0535  0.8496
 5691TIP3    H141268   7.104   0.832   2.234  1.9586  0.0403 -1.6001
 5691TIP3    H241269   7.235   0.771   2.280  1.0889  0.4810  1.7155
 5692TIP3   OH241270   6.910   0.533   0.892  0.2774 -0.0690  0.1782
 5692TIP3    H141271   6.866   0.538   0.807 -0.4717  0.5522  0.5934
 5692TIP3    H241272   6.856   0.472   0.943  0.1967  0.2784  0.5115
 5693TIP3   OH241273   1.781   6.576   1.984 -0.6232 -0.0006 -0.2959
 5693TIP3    H141274   1.821   6.493   2.011 -0.6769  0.1629  0.2950
 5693TIP3    H241275   1.816   6.592   1.896 -1.0098 -0.9080 -0.6266
 5694TIP3   OH241276   1.994   5.991   0.732  0.1198  0.7438  0.5318
 5694TIP3    H141277   1.922   5.930   0.747  1.3531 -0.3767  2.3053
 5694TIP3    H241278   1.979   6.025   0.644 -1.2411 -1.2828 -0.0870
 5695TIP3   OH241279   3.177   0.358   2.109  0.4249 -0.7059 -0.2636
 5695TIP3    H141280   3.101   0.369   2.167  2.3001 -0.4032  2.2866
 5695TIP3    H241281   3.212   0.446   2.097  1.0549 -0.9758 -0.4607
 5696TIP3   OH241282   5.899   7.413   2.789 -0.0699  0.7334  0.0575
 5696TIP3    H141283   5.834   7.452   2.731  0.6651 -0.3202 -1.5298
 5696TIP3    H241284   5.919   7.328   2.751  1.1893  0.4184  1.3002
 5697TIP3   OH241285   1.292   4.421   1.615  0.0686  0.1770 -0.2153
 5697TIP3    H141286   1.246   4.435   1.698  0.1060  0.0221 -0.1669
 5697TIP3    H241287   1.224   4.387   1.556 -0.8296  3.5548 -1.3214
 5698TIP3   OH241288   1.810   0.056   1.209 -0.2357  0.4681  0.0662
 5698TIP3    H141289   1.797  -0.011   1.141  2.0692 -0.0466  0.0532
 5698TIP3    H241290   1.723   0.095   1.220 -1.1638 -0.9441 -1.5782
 5699TIP3   OH241291   2.168   3.316   3.177 -0.6062 -0.5249  0.1301
 5699TIP3    H141292   2.135   3.339   3.090  0.1969  1.4400  0.2762
 5699TIP3    H241293   2.130   3.230   3.196 -2.3256 -0.1491 -1.3509
 5700TIP3   OH241294   0.734   0.259   2.292 -0.5751 -0.2589 -0.5083
 5700TIP3    H141295   0.673   0.186   2.297  0.1596 -0.7892  1.3897
 5700TIP3    H241296   0.819   0.219   2.274 -0.0304 -0.0066  1.2843
 5701TIP3   OH241297   6.551   1.500   2.737 -0.2802 -0.0769  0.0758
 5701TIP3    H141298   6.566   1.539   2.823 -0.5306  2.6920 -1.0628
 5701TIP3    H241299   6.563   1.571   2.675 -0.8362 -1.8184 -2.1782
 5702TIP3   OH241300   5.140   3.753   2.997  0.5086 -0.0109 -0.1110
 5702TIP3    H141301   5.222   3.728   3.038  0.7667 -1.6560 -1.4988
 5702TIP3    H241302   5.075   3.693   3.033  0.4272 -0.4067 -0.8945
 5703TIP3   OH241303   7.392   2.483   2.562  0.2175  0.2257 -0.6589
 5703TIP3    H141304   7.312   2.455   2.606  1.3947  0.3608  1.7417
 5703TIP3    H241305   7.431   2.402   2.529  0.7659 -0.3509  1.2564
 5704TIP3   OH241306   3.209   1.572   0.862 -0.2031 -0.2342 -0.1238
 5704TIP3    H141307   3.166   1.495   0.898  1.0511 -0.7242  0.3674
 5704TIP3    H241308   3.294   1.541   0.833  0.3630  0.9815  0.1676
 5705TIP3   OH241309   1.875   1.470   1.540  0.1011  0.4299  0.3093
 5705TIP3    H141310   1.935   1.538   1.508 -0.0001  1.3401  1.9385
 5705TIP3    H241311   1.857   1.495   1.631 -1.4969 -0.7108  0.3467
 5706TIP3   OH241312   0.710   1.714   2.664  0.0222 -0.1356 -0.4183
 5706TIP3    H141313   0.698   1.804   2.632  0.1829 -0.3811 -1.1840
 5706TIP3    H241314   0.650   1.707   2.738 -0.3486  0.4487 -0.6546
 5707TIP3   OH241315   4.560   7.236   0.790 -0.1545 -0.5413  0.2450
 5707TIP3    H141316   4.548   7.302   0.858 -0.1749  0.4197 -0.6542
 5707TIP3    H241317   4.472   7.216   0.759 -0.1760 -1.2532  0.7312
 5708TIP3   OH241318   1.828   6.740   2.737 -0.2326  0.5255 -0.5411
 5708TIP3    H141319   1.817   6.795   2.660 -0.9755  0.3956 -0.5414
 5708TIP3    H241320   1.862   6.799   2.805  2.0956  0.2794 -1.4181
 5709TIP3   OH241321   5.529   5.284   2.023 -0.1056  0.5973 -0.0309
 5709TIP3    H141322   5.530   5.198   1.982  0.4359  0.9244 -0.7456
 5709TIP3    H241323   5.527   5.345   1.949 -0.9202  1.1936  0.4703
 5710TIP3   OH241324   3.816   5.257   2.585 -1.1376  0.5193 -0.2894
 5710TIP3    H141325   3.728   5.224   2.567 -0.4377 -0.7333 -1.5722
 5710TIP3    H241326   3.808   5.303   2.668 -2.6475 -0.9852  0.4400
 5711TIP3   OH241327   5.135   0.436   1.015 -0.1256  0.4695 -0.3254
 5711TIP3    H141328   5.065   0.429   0.951  0.8974  0.4435 -1.4682
 5711TIP3    H241329   5.207   0.384   0.979  0.3353  0.1065  1.0435
 5712TIP3   OH241330   1.915   5.594   1.894 -0.1708 -0.6575  1.1519
 5712TIP3    H141331   1.956   5.601   1.808 -1.0606  1.8840  0.8356
 5712TIP3    H241332   1.827   5.562   1.877 -0.8862  1.3051  0.8389
 5713TIP3   OH241333   3.279   6.103   1.676  0.0796  0.3060 -0.1881
 5713TIP3    H141334   3.283   6.042   1.603  1.1533  1.2278 -0.9436
 5713TIP3    H241335   3.187   6.104   1.702 -0.1148 -0.8974 -0.7692
 5714TIP3   OH241336   7.307   3.418   0.773 -0.5411 -0.2047 -0.3459
 5714TIP3    H141337   7.363   3.347   0.744 -0.6993 -1.0209  1.2284
 5714TIP3    H241338   7.365   3.494   0.779 -0.2854 -0.2855 -1.6486
 5715TIP3   OH241339   5.883   4.173   0.919  0.2825 -0.1381  0.8710
 5715TIP3    H141340   5.803   4.190   0.969  0.7321  0.5786  1.3725
 5715TIP3    H241341   5.932   4.109   0.972  1.9045  2.4156  2.7113
 5716TIP3   OH241342   2.864   5.253   1.894  0.1257  0.4750 -0.3759
 5716TIP3    H141343   2.931   5.187   1.880 -0.0835 -0.3953  2.2858
 5716TIP3    H241344   2.788   5.205   1.925 -0.7148  1.7740 -0.3280
 5717TIP3   OH241345   5.263   5.234   0.773  0.5046 -0.4230  0.5613
 5717TIP3    H141346   5.315   5.160   0.743 -0.5657 -0.9536 -0.0462
 5717TIP3    H241347   5.311   5.311   0.743  2.2865 -0.7927  2.2623
 5718TIP3   OH241348   6.727   7.440   2.118  0.1999  0.1459 -0.3325
 5718TIP3    H141349   6.765   7.385   2.049  1.0015 -0.8268  0.8566
 5718TIP3    H241350   6.663   7.384   2.162 -1.0086  1.0587 -0.8441
 5719TIP3   OH241351   6.079   7.648   2.761 -0.2954 -0.4626 -0.1469
 5719TIP3    H141352   6.013   7.663   2.693 -1.5518 -1.0379  0.9063
 5719TIP3    H241353   6.049   7.570   2.807  0.6797 -0.2421  0.8951
 5720TIP3   OH241354   5.703   7.113   1.950  0.3136 -0.4222 -0.0239
 5720TIP3    H141355   5.621   7.087   1.909  1.3811 -1.5567 -1.5512
 5720TIP3    H241356   5.753   7.155   1.880  0.5611  1.5211  1.2131
 5721TIP3   OH241357   5.790   5.096   1.378 -0.2868 -0.3459  0.1175
 5721TIP3    H141358   5.776   5.016   1.429  0.1744  1.4513  3.3300
 5721TIP3    H241359   5.703   5.122   1.349 -0.5685 -1.4305 -0.0550
 5722TIP3   OH241360   6.214   2.801   2.577  0.6268  0.1420  0.3235
 5722TIP3    H141361   6.187   2.755   2.498  1.4203 -0.0458  0.1481
 5722TIP3    H241362   6.233   2.890   2.547  3.1443 -0.4899 -0.1951
 5723TIP3   OH241363   6.414   1.628   0.480  0.5306 -0.0566  0.0096
 5723TIP3    H141364   6.422   1.657   0.389  1.9607  1.3082  0.5250
 5723TIP3    H241365   6.469   1.688   0.529  1.6609 -2.1619  1.4892
 5724TIP3   OH241366   3.820   6.428   0.491 -0.1657  0.0523  0.1707
 5724TIP3    H141367   3.894   6.420   0.552 -0.8451  0.3558  1.0628
 5724TIP3    H241368   3.757   6.484   0.537  0.1657  2.0630 -1.6692
 5725TIP3   OH241369   3.409   4.647   1.995  0.0500 -0.8628 -0.3565
 5725TIP3    H141370   3.399   4.622   1.903 -0.4925  0.2927 -0.6256
 5725TIP3    H241371   3.343   4.716   2.008 -0.8352 -1.9558  1.2649
 5726TIP3   OH241372   6.353   2.211   1.966  0.0502 -0.1044 -0.1257
 5726TIP3    H141373   6.349   2.248   2.054  0.7488  1.3099 -0.6621
 5726TIP3    H241374   6.278   2.247   1.920 -0.9075 -1.6548  0.1587
 5727TIP3   OH241375   5.725   7.401   1.092 -0.5144  0.8430 -0.3722
 5727TIP3    H141376   5.736   7.325   1.149 -0.3376  1.3034  0.2216
 5727TIP3    H241377   5.813   7.436   1.081 -0.3793  0.0995 -1.8871
 5728TIP3   OH241378   6.038   0.636   3.574 -0.3268 -0.1699 -0.0082
 5728TIP3    H141379   6.084   0.608   3.495  0.9143  0.5984  0.4134
 5728TIP3    H241380   6.100   0.619   3.645 -1.4368 -0.8814  0.8269
 5729TIP3   OH241381   7.519   7.662   0.882 -0.3971  0.3698  0.3062
 5729TIP3    H141382   7.434   7.706   0.889 -0.1437  0.8246  0.5273
 5729TIP3    H241383   7.538   7.633   0.972 -1.4142 -1.8248 -0.1123
 5730TIP3   OH241384   6.326   4.370   1.321 -0.4224 -0.0101 -0.0910
 5730TIP3    H141385   6.384   4.446   1.320  0.3870 -0.6091 -0.9290
 5730TIP3    H241386   6.379   4.300   1.361 -0.2487 -0.7718 -1.5714
 5731TIP3   OH241387   0.935   2.798   1.018 -0.3371 -0.5250 -0.0895
 5731TIP3    H141388   0.979   2.834   0.941 -0.4478 -0.2007  0.0016
 5731TIP3    H241389   1.007   2.765   1.073 -0.3248 -2.6215 -1.2390
 5732TIP3   OH241390   6.792   4.697   2.472 -0.2474 -0.2383 -0.2423
 5732TIP3    H141391   6.782   4.790   2.490 -0.8697 -0.1344 -1.0598
 5732TIP3    H241392   6.727   4.654   2.527  1.4397 -0.4026  1.7426
 5733TIP3   OH241393   0.979   1.220   0.506 -0.1180 -0.1735  0.3679
 5733TIP3    H141394   0.925   1.299   0.514  0.2944  0.0168  1.4112
 5733TIP3    H241395   0.921   1.155   0.466 -0.5834  0.5368 -0.1299
 5734TIP3   OH241396   5.407   1.881   0.821  0.6638 -0.6403  0.1323
 5734TIP3    H141397   5.377   1.865   0.910  1.4418  0.6173  0.6647
 5734TIP3    H241398   5.493   1.923   0.832  1.5508 -1.9541 -1.2493
 5735TIP3   OH241399   3.522   3.563   0.753  0.6167 -0.4299 -0.2027
 5735TIP3    H141400   3.489   3.534   0.838 -0.8658 -0.8248 -0.8700
 5735TIP3    H241401   3.563   3.648   0.770  0.2054 -0.4365  0.8839
 5736TIP3   OH241402   1.487   7.487   3.208  0.3646 -0.2132 -0.3490
 5736TIP3    H141403   1.560   7.531   3.251 -0.0181 -0.0762  0.1741
 5736TIP3    H241404   1.444   7.555   3.156  1.3102 -0.5531 -1.6354
 5737TIP3   OH241405   3.239   3.592   3.009 -0.0066  0.1472  0.2817
 5737TIP3    H141406   3.182   3.637   2.946  0.2917  1.3717  0.8395
 5737TIP3    H241407   3.314   3.651   3.018 -1.1960  1.3709  3.7068
 5738TIP3   OH241408   6.477   2.965   1.817  0.4370  0.1400 -0.0080
 5738TIP3    H141409   6.477   3.056   1.845 -0.6796 -0.4506  2.1964
 5738TIP3    H241410   6.440   2.967   1.729 -2.3467  1.6107  1.0635
 5739TIP3   OH241411   5.405   6.777   1.361  0.1072  0.1581  0.2229
 5739TIP3    H141412   5.443   6.731   1.436 -0.6831  1.0250  1.1945
 5739TIP3    H241413   5.478   6.787   1.300  0.7879 -0.5067  0.8976
 5740TIP3   OH241414   3.276   5.315   1.566  0.0539  0.1395  0.0990
 5740TIP3    H141415   3.231   5.345   1.644 -0.8374  0.0518 -0.3663
 5740TIP3    H241416   3.234   5.231   1.545  0.4518  0.0421 -0.3240
 5741TIP3   OH241417   3.297   3.938   0.945  0.1567 -0.4651  0.3364
 5741TIP3    H141418   3.292   3.927   1.040 -2.1213 -0.0768  0.3091
 5741TIP3    H241419   3.214   3.979   0.921 -0.6672 -3.2641 -2.2089
 5742TIP3   OH241420   3.047   2.801   3.170  0.3262 -0.7571 -0.0174
 5742TIP3    H141421   3.037   2.706   3.173 -1.3123 -0.6907 -1.4917
 5742TIP3    H241422   2.963   2.832   3.136  1.3117  1.1180 -0.8696
 5743TIP3   OH241423   5.001   6.363   9.260  0.8350  0.9058 -0.1551
 5743TIP3    H141424   4.937   6.416   9.212 -1.3253  0.6818  2.3061
 5743TIP3    H241425   4.996   6.276   9.218 -0.1434  1.0125 -0.2768
 5744TIP3   OH241426   2.567   4.031   2.398  0.2893 -0.6510  0.5012
 5744TIP3    H141427   2.591   3.941   2.374  1.2227  0.3519 -2.8183
 5744TIP3    H241428   2.472   4.035   2.385  0.2359 -1.1370  0.7099
 5745TIP3   OH241429   1.789   6.262   1.039  0.2792 -0.4006 -0.4995
 5745TIP3    H141430   1.883   6.261   1.058  0.0400 -0.6359  0.7555
 5745TIP3    H241431   1.772   6.351   1.009  0.5668  0.2793  1.2165
 5746TIP3   OH241432   2.879   6.099   2.198 -0.0726 -0.2615 -0.3918
 5746TIP3    H141433   2.853   6.114   2.107  0.6333  1.5653 -0.3384
 5746TIP3    H241434   2.917   6.182   2.226 -0.6043 -0.6649  1.7032
 5747TIP3   OH241435   3.676   3.802   3.196 -0.2564 -0.1719  0.5404
 5747TIP3    H141436   3.683   3.711   3.224  0.3133  0.0037  0.9902
 5747TIP3    H241437   3.691   3.853   3.276 -0.0765  0.3238  0.1971
 5748TIP3   OH241438   2.879   6.801   1.754 -0.1558  0.0213 -0.2787
 5748TIP3    H141439   2.801   6.832   1.801  0.1106  2.5679 -1.3572
 5748TIP3    H241440   2.847   6.779   1.667 -0.1425 -1.8662  0.1617
 5749TIP3   OH241441   1.862   5.341   1.592 -0.1641  0.7026  0.1319
 5749TIP3    H141442   1.790   5.318   1.535  0.6218  0.1284 -0.6565
 5749TIP3    H241443   1.838   5.305   1.677 -0.2415 -0.5740 -0.4200
 5750TIP3   OH241444   5.245   0.429   1.286  0.0759 -0.1320  0.0129
 5750TIP3    H141445   5.283   0.510   1.254  0.2696  0.1104  0.8465
 5750TIP3    H241446   5.159   0.454   1.321  0.6868 -0.0363  1.5066
 5751TIP3   OH241447   5.283   3.344   0.616 -0.0576  0.7057 -0.0135
 5751TIP3    H141448   5.264   3.432   0.648  0.3307  0.5699  0.6028
 5751TIP3    H241449   5.202   3.295   0.629 -0.4284  1.0886 -0.8013
 5752TIP3   OH241450   3.309   0.795   1.747  0.2016 -0.1016 -0.2379
 5752TIP3    H141451   3.395   0.822   1.716  0.1509  1.4684  0.8838
 5752TIP3    H241452   3.325   0.711   1.791  1.3643  0.6337  0.8025
 5753TIP3   OH241453   4.993   3.576   1.153  0.6793  0.0062  0.1840
 5753TIP3    H141454   4.946   3.496   1.177  0.5886  0.2680  0.8991
 5753TIP3    H241455   4.925   3.642   1.140  0.8329  0.4660  1.5261
 5754TIP3   OH241456   6.772   1.412   3.101 -0.3307 -0.5839  0.3351
 5754TIP3    H141457   6.722   1.385   3.178  0.3723 -3.6475 -0.1414
 5754TIP3    H241458   6.855   1.365   3.109 -0.5922 -1.7648 -2.7072
 5755TIP3   OH241459   6.781   5.002   1.718 -0.5818  0.2743 -0.6244
 5755TIP3    H141460   6.784   4.979   1.625 -0.9020 -0.2109 -0.5162
 5755TIP3    H241461   6.708   4.952   1.753 -1.7313  1.9542 -0.5155
 5756TIP3   OH241462   2.137   4.713   0.470 -0.0232  0.5073 -1.1824
 5756TIP3    H141463   2.147   4.799   0.511  0.1712 -1.2572  3.0271
 5756TIP3    H241464   2.221   4.669   0.485 -1.0837 -1.3955 -0.3966
 5757TIP3   OH241465   3.184   6.139   0.694  0.3588  0.1730  0.6997
 5757TIP3    H141466   3.106   6.176   0.735  0.1622 -0.9520  1.3767
 5757TIP3    H241467   3.192   6.186   0.611 -2.3478 -1.1841 -0.4688
 5758TIP3   OH241468   5.192   4.094   0.638  0.4536 -0.1454 -0.3593
 5758TIP3    H141469   5.278   4.102   0.680  1.2848 -1.2689 -1.7558
 5758TIP3    H241470   5.202   4.141   0.555 -0.3889 -0.0295 -0.4005
 5759TIP3   OH241471   3.643   5.659   3.217 -0.0707  0.1839  0.2296
 5759TIP3    H141472   3.646   5.575   3.263  1.4865 -0.6724 -1.3395
 5759TIP3    H241473   3.683   5.642   3.132 -0.1820  2.4046 -0.3363
 5760TIP3   OH241474   2.024   7.572   1.312  0.2451 -0.0616  0.2196
 5760TIP3    H141475   1.957   7.640   1.304  0.2851  0.1972  1.7186
 5760TIP3    H241476   1.991   7.515   1.382  1.6501  0.1468  1.0802
 5761TIP3   OH241477   7.343   2.766   1.322 -0.1933 -0.0896  0.6196
 5761TIP3    H141478   7.275   2.830   1.301  0.4337  0.4381  0.1476
 5761TIP3    H241479   7.350   2.766   1.417 -0.3569  0.3739  0.6288
 5762TIP3   OH241480   1.623   3.645   1.543  0.4190  0.2566 -0.1202
 5762TIP3    H141481   1.557   3.708   1.572  0.6131  0.6677 -0.5506
 5762TIP3    H241482   1.574   3.565   1.525  0.2422  0.1157  0.9242
 5763TIP3   OH241483   4.907   7.032   2.922  0.1967 -0.7517 -0.0107
 5763TIP3    H141484   4.861   6.998   2.845 -0.2803 -1.2775  0.4980
 5763TIP3    H241485   4.997   7.047   2.891 -0.2988  0.2876 -1.0055
 5764TIP3   OH241486   1.711   4.774   1.795 -0.5210  0.8994 -0.4361
 5764TIP3    H141487   1.632   4.733   1.829  0.7031 -0.9141  0.4072
 5764TIP3    H241488   1.742   4.829   1.866  0.8945 -1.2672  0.7638
 5765TIP3   OH241489   3.192   1.776   2.486 -0.0878 -0.8543 -0.1988
 5765TIP3    H141490   3.189   1.681   2.484  0.2196 -0.8726  0.1425
 5765TIP3    H241491   3.103   1.803   2.509 -0.0905 -1.0729  0.0491
 5766TIP3   OH241492   7.201   0.502   2.528  0.2531 -0.3426 -0.1368
 5766TIP3    H141493   7.142   0.565   2.487  1.1363 -0.3732 -1.5299
 5766TIP3    H241494   7.177   0.418   2.489 -0.6435 -0.8332  1.4029
 5767TIP3   OH241495   5.121   6.040   3.043  0.2112  0.1884 -0.5132
 5767TIP3    H141496   5.148   6.121   3.086  0.3490  0.5682 -1.2974
 5767TIP3    H241497   5.083   5.987   3.113 -0.1017  1.0223 -0.0403
 5768TIP3   OH241498   0.644   4.674   1.000 -0.3287 -0.3217  0.5040
 5768TIP3    H141499   0.734   4.642   1.008 -0.0015  0.1677 -0.8411
 5768TIP3    H241500   0.651   4.769   1.014 -0.9743 -0.5152  2.4288
 5769TIP3   OH241501   0.059   1.018   3.579 -0.2202  0.1045 -0.5735
 5769TIP3    H141502   0.063   1.097   3.524 -0.0167  0.2597 -0.3358
 5769TIP3    H241503   0.142   1.018   3.627 -0.7800  0.4578  0.4172
 5770TIP3   OH241504   5.845   2.639   2.524 -0.6524  0.3412 -0.3497
 5770TIP3    H141505   5.788   2.564   2.542 -0.5760 -0.0833 -1.7259
 5770TIP3    H241506   5.859   2.681   2.609 -2.7061  0.2363  0.0765
 5771TIP3   OH241507   3.928   5.259   1.472 -0.4549  0.0482  0.1914
 5771TIP3    H141508   3.960   5.199   1.539  3.8967  1.1593 -0.5569
 5771TIP3    H241509   3.974   5.231   1.392 -1.5302  1.8366 -1.1248
 5772TIP3   OH241510   0.150   5.869   0.634  0.2843  0.8037  0.0666
 5772TIP3    H141511   0.183   5.949   0.594  1.4747  0.6855  0.7705
 5772TIP3    H241512   0.085   5.899   0.697 -0.2698  1.1072 -0.6294
 5773TIP3   OH241513   1.461   3.853   2.079 -0.3249  0.7833  0.6525
 5773TIP3    H141514   1.374   3.872   2.113 -0.0688  0.3601  1.5824
 5773TIP3    H241515   1.508   3.936   2.087 -1.0541  1.4098 -1.2217
 5774TIP3   OH241516   6.404   0.503   3.611  0.5456 -0.4173 -0.5256
 5774TIP3    H141517   6.489   0.480   3.574  0.1699 -1.1618 -0.9324
 5774TIP3    H241518   6.345   0.506   3.536  0.3541  0.8324 -0.3467
 5775TIP3   OH241519   0.318   0.846   1.956 -0.4404 -0.0988 -0.0071
 5775TIP3    H141520   0.354   0.781   2.016 -0.1397 -0.7425 -0.8605
 5775TIP3    H241521   0.298   0.796   1.876  0.5909  0.9932 -0.9863
 5776TIP3   OH241522   3.938   4.508   1.288 -0.4251 -0.0633  0.0472
 5776TIP3    H141523   3.953   4.461   1.370 -1.8500  0.5299  0.7035
 5776TIP3    H241524   3.843   4.521   1.286 -0.3541  0.3844 -1.4556
 5777TIP3   OH241525   2.897   6.907   0.555 -0.1799 -0.7268 -0.5016
 5777TIP3    H141526   2.857   6.820   0.565  0.1979 -0.9313 -0.7098
 5777TIP3    H241527   2.889   6.925   0.461 -1.7107  0.1883 -0.2262
 5778TIP3   OH241528   0.289   1.710   1.881  0.4427  0.3715 -0.5808
 5778TIP3    H141529   0.292   1.780   1.815  1.8610 -1.0998 -2.1612
 5778TIP3    H241530   0.218   1.653   1.852 -0.3207  0.8026  0.3766
 5779TIP3   OH241531   0.605   7.396   2.673  0.0896  0.1114 -0.0749
 5779TIP3    H141532   0.598   7.306   2.704 -1.3560 -0.6863 -2.4401
 5779TIP3    H241533   0.550   7.447   2.732 -0.7083 -0.9228  0.1009
 5780TIP3   OH241534   3.474   6.063   2.953  0.4723  0.2738  0.1296
 5780TIP3    H141535   3.425   6.033   2.877  0.4087  0.5522  0.0565
 5780TIP3    H241536   3.534   5.992   2.975 -0.1661 -0.1848  0.3932
 5781TIP3   OH241537   5.211   5.306   1.032  0.2373  0.2198 -0.5321
 5781TIP3    H141538   5.228   5.283   0.941  0.5257 -0.9491 -0.2034
 5781TIP3    H241539   5.286   5.360   1.058  0.1622  0.5426 -0.9749
 5782TIP3   OH241540   5.997   5.732   2.341 -0.2621 -0.5924  0.4942
 5782TIP3    H141541   5.928   5.681   2.298  1.0930 -3.3202  1.3318
 5782TIP3    H241542   6.017   5.803   2.279 -0.8035 -2.3021 -1.7555
 5783TIP3   OH241543   2.588   6.074   3.320 -0.2723 -0.1673 -0.3499
 5783TIP3    H141544   2.649   6.119   3.260  2.4634 -1.5651  1.1907
 5783TIP3    H241545   2.591   6.127   3.400  0.4409 -1.2592  0.3700
 5784TIP3   OH241546   7.019   6.457   1.810 -0.1730 -0.4345  0.0410
 5784TIP3    H141547   6.936   6.428   1.773 -0.7072 -0.1125  0.9657
 5784TIP3    H241548   7.065   6.376   1.834 -0.6539 -0.5882  0.4532
 5785TIP3   OH241549   5.583   0.689   2.618 -0.1651  0.3403  0.1140
 5785TIP3    H141550   5.534   0.642   2.550 -0.1888  0.4702  0.0415
 5785TIP3    H241551   5.527   0.764   2.640  0.4336  1.0162 -0.6383
 5786TIP3   OH241552   5.421   0.751   2.993  0.1493 -0.0674  0.3688
 5786TIP3    H141553   5.489   0.703   3.040  0.7095  1.5885  1.3056
 5786TIP3    H241554   5.357   0.684   2.969  1.7696 -1.5600  0.0235
 5787TIP3   OH241555   5.168   7.160   1.818 -0.3723  0.3257 -0.8850
 5787TIP3    H141556   5.230   7.232   1.808  0.4261 -0.1883  0.1053
 5787TIP3    H241557   5.104   7.172   1.748  1.2285  0.4804 -2.3866
 5788TIP3   OH241558   1.534   5.106   3.093 -0.3620  0.5735  0.5679
 5788TIP3    H141559   1.468   5.069   3.152 -0.5530 -0.5528 -0.3025
 5788TIP3    H241560   1.504   5.195   3.076 -1.3326  0.2818  0.6878
 5789TIP3   OH241561   3.479   3.956   0.742 -0.1986 -0.4436  0.0751
 5789TIP3    H141562   3.528   4.000   0.812 -1.1080 -0.6907  0.8855
 5789TIP3    H241563   3.393   3.939   0.780 -0.3346 -1.6412 -0.7191
 5790TIP3   OH241564   5.820   7.607   2.066 -0.0403 -0.4323  0.2304
 5790TIP3    H141565   5.915   7.609   2.074  0.0303  2.7327 -0.1836
 5790TIP3    H241566   5.803   7.625   1.973 -1.0618 -0.2264  0.4404
 5791TIP3   OH241567   3.503   4.212   2.011 -0.7655  0.0556  0.4996
 5791TIP3    H141568   3.529   4.166   2.091  1.2183  0.3982  0.0971
 5791TIP3    H241569   3.519   4.304   2.030 -0.4664  0.1588 -0.2082
 5792TIP3   OH241570   6.950   4.052   1.246  0.3978 -0.9935 -0.1018
 5792TIP3    H141571   7.037   4.014   1.262 -0.4176 -1.9576  2.5928
 5792TIP3    H241572   6.896   3.977   1.221 -0.1664 -0.7804  0.4712
 5793TIP3   OH241573   3.127   6.448   2.053 -0.9700 -0.2800 -0.2766
 5793TIP3    H141574   3.133   6.481   2.143 -0.8661 -1.6242  0.2477
 5793TIP3    H241575   3.176   6.511   2.001  2.3307 -1.4002  1.1804
 5794TIP3   OH241576   4.686   6.487   0.623  0.2430  0.0889 -0.0605
 5794TIP3    H141577   4.646   6.542   0.556  0.0102 -1.4918 -1.2840
 5794TIP3    H241578   4.629   6.496   0.699 -0.4353  0.6257 -0.6200
 5795TIP3   OH241579   1.006   3.979   1.451 -0.0331  0.4229 -0.3357
 5795TIP3    H141580   1.050   3.994   1.367 -0.1139  1.0071 -0.2816
 5795TIP3    H241581   0.914   3.969   1.429  0.1138 -0.8004 -0.4489
 5796TIP3   OH241582   5.242   1.300   3.592  0.0000 -0.4217 -0.2013
 5796TIP3    H141583   5.167   1.244   3.609  1.7566 -3.0416 -0.5171
 5796TIP3    H241584   5.291   1.254   3.523  1.7544  1.3169 -0.1941
 5797TIP3   OH241585   0.039   3.703   1.284  0.0775  0.1671  0.3739
 5797TIP3    H141586   0.125   3.744   1.285  0.0694  0.2754 -1.2778
 5797TIP3    H241587   0.057   3.609   1.285  0.1379  0.1673  2.1631
 5798TIP3   OH241588   6.936   2.292   2.167  0.0186  0.0000 -0.3673
 5798TIP3    H141589   6.992   2.362   2.202  0.4528  0.1899 -1.3817
 5798TIP3    H241590   6.922   2.233   2.241 -1.2302  1.6756  0.8025
 5799TIP3   OH241591   1.403   4.865   1.058  0.0920 -0.3629 -0.5431
 5799TIP3    H141592   1.420   4.776   1.026 -0.9634 -0.2098 -1.6323
 5799TIP3    H241593   1.373   4.913   0.981  0.1812  0.8233  0.1276
 5800TIP3   OH241594   2.346   4.513   2.347  0.0995 -0.1222  0.0188
 5800TIP3    H141595   2.297   4.486   2.425  1.0597 -1.4059  0.2249
 5800TIP3    H241596   2.380   4.599   2.369  0.0530 -0.3079  0.8919
 5801TIP3   OH241597   4.062   7.380   1.224 -0.2811  0.3917  0.2161
 5801TIP3    H141598   4.114   7.321   1.170 -1.7457 -1.4497  0.6879
 5801TIP3    H241599   4.104   7.379   1.310 -1.7958 -2.3339  1.0578
 5802TIP3   OH241600   1.527   7.419   2.064 -0.7039 -0.2317  0.3707
 5802TIP3    H141601   1.531   7.420   2.160 -0.2319 -0.7278  0.3610
 5802TIP3    H241602   1.617   7.437   2.036 -0.8475 -0.0488  0.0197
 5803TIP3   OH241603   3.113   7.102   2.664 -0.0228 -0.6197  0.2233
 5803TIP3    H141604   3.093   7.172   2.602  1.8654  2.1028  2.4383
 5803TIP3    H241605   3.054   7.117   2.738 -0.5645 -2.3040  0.1742
 5804TIP3   OH241606   1.953   4.242   0.580 -0.5639 -0.1033 -0.3263
 5804TIP3    H141607   1.985   4.332   0.572 -1.5526  0.1952 -1.0517
 5804TIP3    H241608   1.876   4.249   0.636  0.1486 -0.7131  0.7668
 5805TIP3   OH241609   1.060   7.303   1.856  0.3674 -0.0690 -0.3502
 5805TIP3    H141610   1.089   7.214   1.837 -0.7677 -0.9087  1.5923
 5805TIP3    H241611   1.075   7.314   1.950 -2.5957  0.5360  0.1545
 5806TIP3   OH241612   0.542   1.000   2.398 -0.1397 -0.1247  0.1172
 5806TIP3    H141613   0.477   1.069   2.407 -0.0580 -0.2661  2.3556
 5806TIP3    H241614   0.511   0.946   2.325 -0.9095  1.4808 -0.7841
 5807TIP3   OH241615   5.738   6.718   3.512 -0.0999 -0.3091  0.2847
 5807TIP3    H141616   5.679   6.729   3.438 -1.6689 -0.5807  1.4616
 5807TIP3    H241617   5.756   6.807   3.542  2.0787 -0.0425 -1.5084
 5808TIP3   OH241618   1.248   3.022   2.753  0.2056 -1.4263  0.1034
 5808TIP3    H141619   1.341   3.023   2.779  0.7535 -1.8882 -1.6747
 5808TIP3    H241620   1.201   3.013   2.835  1.8115 -2.5358  0.9790
 5809TIP3   OH241621   7.231   5.550   0.911 -0.1539 -0.7464 -0.9020
 5809TIP3    H141622   7.260   5.462   0.886 -0.2540 -0.5730 -1.6751
 5809TIP3    H241623   7.272   5.566   0.996  0.0036 -1.4726 -0.8337
 5810TIP3   OH241624   3.864   0.138   1.453 -0.3251 -0.0909 -0.4029
 5810TIP3    H141625   3.781   0.157   1.408 -1.0872  1.2169  1.4425
 5810TIP3    H241626   3.913   0.221   1.448  1.0759 -0.9336 -1.7514
 5811TIP3   OH241627   2.328   1.313   2.318  0.2062  0.1184 -0.4424
 5811TIP3    H141628   2.345   1.392   2.267 -1.4992  1.1547  0.5184
 5811TIP3    H241629   2.362   1.333   2.405  0.7435 -0.6432 -0.4678
 5812TIP3   OH241630   5.371   0.488   2.317 -0.1565  0.0442 -0.3231
 5812TIP3    H141631   5.311   0.416   2.297 -1.0662  0.9659 -1.0114
 5812TIP3    H241632   5.314   0.564   2.328  0.7572  0.5839  0.8420
 5813TIP3   OH241633   3.314   3.010   1.182  0.1889 -0.4934 -0.2116
 5813TIP3    H141634   3.222   2.983   1.186 -0.3279  0.9412 -1.3577
 5813TIP3    H241635   3.311   3.105   1.193  1.3258 -0.1782 -2.2022
 5814TIP3   OH241636   5.315   1.541   3.698  0.6522  0.1596  0.0479
 5814TIP3    H141637   5.409   1.530   3.679  1.4129  0.2943  3.1514
 5814TIP3    H241638   5.276   1.458   3.671  1.3078  0.6347 -2.6934
 5815TIP3   OH241639   7.050   6.502   1.162 -0.6701  0.3519 -0.2840
 5815TIP3    H141640   6.989   6.457   1.104  0.7159 -1.2830 -0.5267
 5815TIP3    H241641   7.030   6.468   1.249 -2.2962  2.3133  0.2022
 5816TIP3   OH241642   4.583   1.711   1.523 -0.1234  0.0233  0.2029
 5816TIP3    H141643   4.538   1.704   1.439  3.3767  1.6316 -2.0363
 5816TIP3    H241644   4.647   1.639   1.522  0.8734  0.8794  0.8547
 5817TIP3   OH241645   3.810   2.938   0.489 -0.2981 -0.1947  0.0548
 5817TIP3    H141646   3.807   3.033   0.477 -0.0517 -0.3064 -0.9766
 5817TIP3    H241647   3.882   2.924   0.551  1.0338  0.1697 -1.3544
 5818TIP3   OH241648   2.926   2.193   1.075  0.0194 -0.2815  0.4108
 5818TIP3    H141649   2.988   2.233   1.136  0.9128  0.2472 -0.7932
 5818TIP3    H241650   2.881   2.267   1.035  1.5696 -0.3857 -1.7134
 5819TIP3   OH241651   4.815   2.046   2.707 -0.5493  0.2041 -0.3284
 5819TIP3    H141652   4.735   2.004   2.677  0.0323  0.3157 -2.1671
 5819TIP3    H241653   4.828   2.013   2.796 -1.1021 -2.0820 -1.0348
 5820TIP3   OH241654   4.440   6.958   3.285  0.0502 -0.5099  0.0438
 5820TIP3    H141655   4.483   7.021   3.344  0.4426 -1.0745  0.3811
 5820TIP3    H241656   4.390   6.901   3.344 -0.3032 -0.5136 -0.2567
 5821TIP3   OH241657   7.247   3.703   1.199 -0.4134 -0.2040 -0.4254
 5821TIP3    H141658   7.298   3.650   1.260 -1.3472 -0.1449  0.4396
 5821TIP3    H241659   7.245   3.790   1.240 -3.3943 -0.8248  0.9570
 5822TIP3   OH241660   2.187   3.156   1.125  0.4784  0.8383  0.0526
 5822TIP3    H141661   2.183   3.060   1.131  0.7890  0.8106 -0.1514
 5822TIP3    H241662   2.123   3.178   1.057 -1.1560  0.9534  1.5592
 5823TIP3   OH241663   6.188   6.542   3.483  0.5115  0.5193  0.6092
 5823TIP3    H141664   6.195   6.612   3.547  1.4021  0.3171  0.7415
 5823TIP3    H241665   6.265   6.487   3.497  0.2634 -0.0251 -0.0435
 5824TIP3   OH241666   0.805   4.385   1.813  0.1976 -0.1721  0.3735
 5824TIP3    H141667   0.753   4.387   1.894 -0.1649 -0.2241  0.1433
 5824TIP3    H241668   0.857   4.305   1.821 -0.7058 -0.8194  0.0256
 5825TIP3   OH241669   2.990   4.174   2.215 -0.3953  0.2407  0.2597
 5825TIP3    H141670   2.925   4.244   2.222  0.5905  1.2771 -0.6586
 5825TIP3    H241671   3.052   4.204   2.148  1.2477 -0.5318  1.3529
 5826TIP3   OH241672   4.270   3.950   2.461  0.4445  0.0150  0.3077
 5826TIP3    H141673   4.241   3.994   2.541 -0.3266 -1.6161  0.9816
 5826TIP3    H241674   4.355   3.913   2.483 -0.1527 -1.1829  0.7118
 5827TIP3   OH241675   5.473   5.435   1.487 -0.0079 -0.6370 -0.2363
 5827TIP3    H141676   5.502   5.473   1.570 -0.7564  0.4732 -0.4601
 5827TIP3    H241677   5.431   5.352   1.512  2.2613 -1.7205  0.1879
 5828TIP3   OH241678   4.853   5.095   1.304 -0.1496  0.4336 -0.2300
 5828TIP3    H141679   4.930   5.120   1.253  0.3212  1.6433  1.0181
 5828TIP3    H241680   4.848   5.160   1.374 -0.8430 -1.0891  1.1964
 5829TIP3   OH241681   0.268   6.511   2.157 -0.2820 -0.0906 -0.3589
 5829TIP3    H141682   0.175   6.497   2.138 -0.1064 -2.4577  0.2062
 5829TIP3    H241683   0.270   6.591   2.209 -2.3226 -1.1472  1.5620
 5830TIP3   OH241684   6.668   3.512   0.752  0.3109  0.0647 -0.5055
 5830TIP3    H141685   6.759   3.539   0.757  0.3727 -0.3805  1.3488
 5830TIP3    H241686   6.666   3.447   0.681  1.6288 -0.6820  0.1096
 5831TIP3   OH241687   1.756   1.716   1.326  0.6270  0.6034  0.0254
 5831TIP3    H141688   1.751   1.805   1.291 -0.2292  0.6891  0.3288
 5831TIP3    H241689   1.846   1.688   1.309  1.4027  2.1301  1.3906
 5832TIP3   OH241690   4.271   0.330   2.507  0.0336  0.6509 -0.2098
 5832TIP3    H141691   4.316   0.283   2.437 -0.4855 -0.0735 -0.0808
 5832TIP3    H241692   4.321   0.410   2.519  1.2893 -0.1278 -0.0596
 5833TIP3   OH241693   6.831   2.819   2.112  0.5703 -0.1600 -1.1189
 5833TIP3    H141694   6.852   2.793   2.201  0.5816  1.1335 -0.7262
 5833TIP3    H241695   6.736   2.816   2.108  0.4784  1.2891 -0.5594
 5834TIP3   OH241696   3.467   0.934   0.842 -0.1595 -0.4067 -0.0129
 5834TIP3    H141697   3.449   0.841   0.831 -0.8374 -0.2092 -0.6189
 5834TIP3    H241698   3.394   0.978   0.798  0.2248  0.4098  0.1533
 5835TIP3   OH241699   6.735   5.097   2.195  0.7067  0.7535 -0.1389
 5835TIP3    H141700   6.751   5.131   2.283  3.1553  0.9207 -0.5888
 5835TIP3    H241701   6.720   5.003   2.209 -0.9803  1.1072  0.6176
 5836TIP3   OH241702   3.254   0.527   2.400 -0.0633 -0.4713 -0.3137
 5836TIP3    H141703   3.271   0.433   2.407 -0.8694 -0.6369 -0.5067
 5836TIP3    H241704   3.219   0.538   2.312  2.6895  0.4483 -1.3904
 5837TIP3   OH241705   1.034   2.294   1.849  0.1912  0.6372  0.1046
 5837TIP3    H141706   1.016   2.270   1.940 -2.5744 -0.0651 -0.5414
 5837TIP3    H241707   1.066   2.384   1.854  2.9749 -0.3353  1.9466
 5838TIP3   OH241708   1.188   5.012   1.397  0.2242  0.5899 -0.2866
 5838TIP3    H141709   1.235   5.062   1.463 -1.7356 -0.1168  1.7868
 5838TIP3    H241710   1.222   4.923   1.405  0.0302  0.5168 -0.2692
 5839TIP3   OH241711   4.252   6.423   2.134 -0.6399 -0.5830  1.0519
 5839TIP3    H141712   4.285   6.379   2.055 -0.0361 -2.5415  2.3409
 5839TIP3    H241713   4.159   6.404   2.135 -1.3364  2.1550 -0.8157
 5840TIP3   OH241714   1.946   4.878   2.709  0.2567  0.7856  0.1239
 5840TIP3    H141715   1.862   4.854   2.748  0.9235 -1.1504  0.4874
 5840TIP3    H241716   2.006   4.883   2.784  1.1245 -0.9950 -0.4087
 5841TIP3   OH241717   0.199   2.212   1.721  0.8978  0.3331  0.9019
 5841TIP3    H141718   0.289   2.181   1.726  0.9372  0.5822  1.9744
 5841TIP3    H241719   0.148   2.147   1.768  0.0962 -1.1725 -1.8343
 5842TIP3   OH241720   1.306   5.272   1.831 -0.6075 -0.2370 -0.1883
 5842TIP3    H141721   1.296   5.325   1.910 -0.6481  1.0954 -1.0402
 5842TIP3    H241722   1.349   5.192   1.860  0.0380  0.5391  1.0524
 5843TIP3   OH241723   5.809   1.345   0.963  0.7643  0.4903  0.1702
 5843TIP3    H141724   5.839   1.346   1.054  0.7843 -0.4951  0.1847
 5843TIP3    H241725   5.748   1.418   0.958  0.2627  0.1638  1.1514
 5844TIP3   OH241726   4.976   6.610   2.273 -0.1100  0.0372 -0.0375
 5844TIP3    H141727   4.993   6.694   2.314 -0.7218  0.9332 -1.5202
 5844TIP3    H241728   4.939   6.632   2.187 -0.4405 -1.7415 -0.4010
 5845TIP3   OH241729   1.914   1.634   0.656  0.1817  0.1451 -0.1915
 5845TIP3    H141730   1.990   1.685   0.684 -0.2230  0.1207  1.0432
 5845TIP3    H241731   1.909   1.648   0.562  1.4880  0.4499 -0.2372
 5846TIP3   OH241732   1.355   1.138   0.829 -0.3644  0.5064 -0.6424
 5846TIP3    H141733   1.441   1.150   0.869  0.2079  0.0523 -1.6889
 5846TIP3    H241734   1.328   1.226   0.804 -0.4150  0.7079  0.0989
 5847TIP3   OH241735   0.491   6.736   2.137  0.3190 -0.2203 -0.0938
 5847TIP3    H141736   0.466   6.675   2.068 -0.8277 -0.9066  0.9078
 5847TIP3    H241737   0.548   6.799   2.093 -0.5379 -0.5283 -1.7161
 5848TIP3   OH241738   1.296   7.568   2.071  0.1680  0.0564  0.1170
 5848TIP3    H141739   1.247   7.522   2.003 -0.0227 -1.2061  1.0731
 5848TIP3    H241740   1.387   7.538   2.058 -0.0642 -1.1773  1.1689
 5849TIP3   OH241741   7.596   1.360   0.624 -0.2264 -0.1952  0.3565
 5849TIP3    H141742   7.537   1.314   0.564 -0.2298  1.2100 -0.7743
 5849TIP3    H241743   7.585   1.315   0.708 -0.3248 -2.1383 -0.6342
 5850TIP3   OH241744   3.265   6.550   1.362  0.1194  0.1181  0.2655
 5850TIP3    H141745   3.233   6.460   1.368 -1.8365  0.8384  2.0013
 5850TIP3    H241746   3.252   6.575   1.271 -0.8301 -0.8750  0.1077
 5851TIP3   OH241747   2.401   4.924   1.408 -0.4862  0.4190  0.3710
 5851TIP3    H141748   2.380   4.980   1.333  1.9620  1.4416  0.3350
 5851TIP3    H241749   2.360   4.967   1.483  1.2448  2.3319  0.3236
 5852TIP3   OH241750   2.220   6.193   2.589  0.2608 -0.4352 -0.1029
 5852TIP3    H141751   2.173   6.138   2.527 -1.2050 -1.2751  1.6342
 5852TIP3    H241752   2.194   6.159   2.675 -0.1155  2.4881  1.0484
 5853TIP3   OH241753   2.238   5.790   3.067 -0.2551 -0.2169 -0.1340
 5853TIP3    H141754   2.320   5.799   3.114 -0.1755  1.6325 -0.5588
 5853TIP3    H241755   2.187   5.728   3.119  0.2020  0.9916  1.8379
 5854TIP3   OH241756   4.095   4.763   1.684 -0.3306  0.1314  0.0671
 5854TIP3    H141757   4.014   4.718   1.661  0.8168 -2.3248  0.3937
 5854TIP3    H241758   4.073   4.817   1.759 -2.2142  1.6786 -1.4909
 5855TIP3   OH241759   2.003   3.238   0.938 -0.6292  0.4634 -0.3625
 5855TIP3    H141760   1.930   3.193   0.897 -0.5310 -0.0238 -0.0134
 5855TIP3    H241761   2.010   3.321   0.890 -1.4010  0.5153 -0.3965
 5856TIP3   OH241762   3.179   6.506   2.594  0.1278  0.1522  0.4602
 5856TIP3    H141763   3.174   6.601   2.595  2.0996  0.3071  0.3636
 5856TIP3    H241764   3.114   6.478   2.658  1.4282  1.7318  2.6506
 5857TIP3   OH241765   3.254   6.379   1.634  0.2154  0.3957  0.2419
 5857TIP3    H141766   3.291   6.291   1.624 -0.5246  0.0558  0.4074
 5857TIP3    H241767   3.163   6.364   1.657 -0.7884  1.1731 -2.7912
 5858TIP3   OH241768   1.782   2.777   1.521 -0.2390  0.3779  0.4139
 5858TIP3    H141769   1.715   2.822   1.469  0.2868  0.3649 -0.2853
 5858TIP3    H241770   1.794   2.692   1.478 -0.2244  0.1235  0.9095
 5859TIP3   OH241771   3.656   5.100   0.795  0.1001 -0.2226  0.1509
 5859TIP3    H141772   3.587   5.050   0.840 -0.0532 -0.0132  0.1488
 5859TIP3    H241773   3.624   5.109   0.705 -0.1615  0.4152  0.3057
 5860TIP3   OH241774   5.638   2.260   0.902 -0.0032  0.3864  0.2882
 5860TIP3    H141775   5.647   2.165   0.907 -0.6889  0.3183  0.4370
 5860TIP3    H241776   5.726   2.292   0.882  0.1417 -0.3071 -0.2277
 5861TIP3   OH241777   4.802   4.353   1.995  0.7056  0.6622 -0.1181
 5861TIP3    H141778   4.787   4.286   1.929  2.6011  0.0306  0.0219
 5861TIP3    H241779   4.718   4.399   2.003 -0.0103 -0.2732 -1.7856
 5862TIP3   OH241780   4.961   0.417   3.500  0.1819 -0.4264  0.1070
 5862TIP3    H141781   5.010   0.498   3.509  0.8881 -0.6550 -1.3911
 5862TIP3    H241782   5.016   0.361   3.446 -0.7028 -1.5660  0.3415
 5863TIP3   OH241783   2.663   1.750   0.844 -0.2047 -0.2431  0.3875
 5863TIP3    H141784   2.650   1.843   0.824 -0.1150 -0.2055  0.4999
 5863TIP3    H241785   2.753   1.733   0.817 -0.3859 -0.4221 -0.0950
 5864TIP3   OH241786   2.004   0.233   3.487  0.1939 -0.1452  0.1933
 5864TIP3    H141787   1.942   0.230   3.415  1.4987 -1.0232 -0.9559
 5864TIP3    H241788   1.986   0.316   3.532 -2.4807 -0.8573  0.5940
 5865TIP3   OH241789   5.008   0.951   1.452  0.2912 -0.5429 -0.3624
 5865TIP3    H141790   5.017   1.038   1.413  1.0348 -0.6451 -0.4300
 5865TIP3    H241791   4.955   0.966   1.530 -2.2206 -0.5092 -1.9597
 5866TIP3   OH241792   2.504   4.367   2.575 -0.1921 -0.0385 -0.5500
 5866TIP3    H141793   2.423   4.316   2.584 -0.8353  0.9697 -0.5239
 5866TIP3    H241794   2.530   4.387   2.665 -0.7402  0.8956 -0.5849
 5867TIP3   OH241795   5.102   7.671   2.897 -0.2040  0.0191  0.4363
 5867TIP3    H141796   5.019   7.675   2.849  0.6583  1.1711 -1.0393
 5867TIP3    H241797   5.086   7.719   2.978 -0.6334  1.3774 -0.4269
 5868TIP3   OH241798   1.384   6.193   1.414  0.2878  0.2958  0.2336
 5868TIP3    H141799   1.421   6.281   1.419  0.9778 -0.0388  1.2476
 5868TIP3    H241800   1.456   6.135   1.437 -0.2618 -0.5270 -0.0490
 5869TIP3   OH241801   2.948   1.873   2.547  0.5009 -0.2240 -0.3849
 5869TIP3    H141802   2.917   1.952   2.502  0.0662 -0.4959 -0.5704
 5869TIP3    H241803   2.946   1.895   2.640  1.3777  0.3346 -0.4859
 5870TIP3   OH241804   6.087   2.103   1.787 -0.1137  0.1219 -0.2017
 5870TIP3    H141805   6.104   2.193   1.815  0.7011 -0.4387  1.1696
 5870TIP3    H241806   6.006   2.109   1.737 -1.3503  1.2737  1.8131
 5871TIP3   OH241807   5.074   1.339   1.639  0.1073  0.0421 -0.3468
 5871TIP3    H141808   5.078   1.264   1.698 -1.7516 -0.8663 -1.3018
 5871TIP3    H241809   5.070   1.415   1.697  0.5545 -0.6705  0.6532
 5872TIP3   OH241810   3.347   3.876   2.462 -0.3381 -0.0207 -0.4745
 5872TIP3    H141811   3.388   3.962   2.461 -2.4668  1.0570 -0.3134
 5872TIP3    H241812   3.391   3.828   2.392  1.4686  0.8859 -0.0102
 5873TIP3   OH241813   1.597   5.701   2.570 -0.2178 -0.5258  0.2385
 5873TIP3    H141814   1.507   5.731   2.581 -1.1424 -3.0324  0.0584
 5873TIP3    H241815   1.598   5.614   2.609  2.4893 -0.0703  1.4232
 5874TIP3   OH241816   6.192   0.944   2.301  0.4716 -0.3317 -0.1405
 5874TIP3    H141817   6.225   0.982   2.383 -2.8654 -1.8623  2.1873
 5874TIP3    H241818   6.125   1.006   2.272  1.3558 -0.0043 -1.5314
 5875TIP3   OH241819   3.707   1.762   1.544 -0.1614 -0.3340  0.5185
 5875TIP3    H141820   3.792   1.784   1.582 -0.0578  0.9051 -0.3473
 5875TIP3    H241821   3.724   1.689   1.486  0.3809  0.0922  0.1350
 5876TIP3   OH241822   0.579   0.383   0.654 -0.2789  0.0707  0.6160
 5876TIP3    H141823   0.587   0.334   0.736 -0.3213 -0.1036  0.5164
 5876TIP3    H241824   0.495   0.356   0.617 -1.3902  1.8846  1.6425
 5877TIP3   OH241825   1.111   3.663   1.138  0.4393  0.1249 -0.5268
 5877TIP3    H141826   1.179   3.702   1.193  1.4555 -0.5359 -1.2660
 5877TIP3    H241827   1.053   3.736   1.115 -1.2006  0.1059  2.9813
 5878TIP3   OH241828   3.667   0.028   1.830 -0.5884  0.3332 -0.1855
 5878TIP3    H141829   3.639  -0.053   1.786 -3.5969  1.3940 -0.4935
 5878TIP3    H241830   3.616   0.030   1.911 -0.2226  1.6834  0.0366
 5879TIP3   OH241831   7.177   0.237   2.435 -0.1311  0.5973  0.4791
 5879TIP3    H141832   7.087   0.204   2.437 -0.2003  0.6429 -0.7806
 5879TIP3    H241833   7.231   0.160   2.422 -0.2775  0.8595 -2.2497
 5880TIP3   OH241834   5.886   1.119   2.790  0.4940 -0.1537 -0.3718
 5880TIP3    H141835   5.852   1.030   2.797  1.2229 -0.5379 -1.3503
 5880TIP3    H241836   5.972   1.115   2.833  0.6725 -0.0219 -0.7068
 5881TIP3   OH241837   1.540   2.169   2.005 -0.1718 -0.2005  0.2154
 5881TIP3    H141838   1.553   2.250   1.955  0.5023 -0.5837 -0.2477
 5881TIP3    H241839   1.629   2.139   2.024 -0.4133 -0.0966  1.6060
 5882TIP3   OH241840   2.520   7.268   2.356 -0.5323 -0.3517  0.3193
 5882TIP3    H141841   2.533   7.332   2.426  0.3358 -0.0500 -0.1045
 5882TIP3    H241842   2.455   7.309   2.298 -0.3233 -0.0628  0.2901
 5883TIP3   OH241843   6.053   0.133   2.206  0.3181 -0.0597 -0.5077
 5883TIP3    H141844   6.108   0.198   2.163  1.4771 -0.5869  0.1386
 5883TIP3    H241845   5.990   0.184   2.256  1.7917  0.5931  0.7364
 5884TIP3   OH241846   1.838   0.534   2.873  0.0574 -0.0672 -0.3747
 5884TIP3    H141847   1.770   0.578   2.923  0.0543 -1.0477  0.5023
 5884TIP3    H241848   1.828   0.442   2.894  1.1719 -0.3098 -0.8286
 5885TIP3   OH241849   3.820   4.150   1.235  0.2173 -0.1373  0.3233
 5885TIP3    H141850   3.775   4.231   1.260 -1.7585 -0.8447 -0.7217
 5885TIP3    H241851   3.906   4.179   1.204 -1.6437  2.1568 -3.5761
 5886TIP3   OH241852   4.951   4.503   2.355 -0.0872 -0.1672 -0.1795
 5886TIP3    H141853   4.973   4.581   2.406 -0.0387  0.5844 -1.3119
 5886TIP3    H241854   4.856   4.507   2.345 -0.3820 -1.4400  1.5775
 5887TIP3   OH241855   2.111   0.871   1.734  0.6118 -0.2734  0.2682
 5887TIP3    H141856   2.125   0.886   1.640 -0.7165  0.4450  0.1672
 5887TIP3    H241857   2.180   0.921   1.776  1.2420 -0.6254 -0.3175
 5888TIP3   OH241858   1.088   5.858   0.316  0.1084 -0.3016 -0.2025
 5888TIP3    H141859   1.162   5.905   0.354 -0.5156  0.2866  0.3325
 5888TIP3    H241860   1.077   5.896   0.229 -0.3928  0.5850  0.2269
 5889TIP3   OH241861   3.325   1.882   1.657 -0.0901 -0.2044 -0.6416
 5889TIP3    H141862   3.262   1.877   1.585  1.7833 -1.5949 -2.3105
 5889TIP3    H241863   3.370   1.966   1.644  0.6350 -0.7016 -1.5177
 5890TIP3   OH241864   2.979   2.849   2.597 -0.2131 -0.4068 -0.2621
 5890TIP3    H141865   3.061   2.801   2.581  0.2955  0.3641 -0.0018
 5890TIP3    H241866   2.980   2.867   2.691  0.7851  2.1592 -0.6745
 5891TIP3   OH241867   4.996   3.404   2.327 -0.3209  0.0390  0.1253
 5891TIP3    H141868   4.969   3.468   2.261 -1.8289  0.3124  0.9600
 5891TIP3    H241869   5.010   3.456   2.406 -1.0402 -0.5778  0.6724
 5892TIP3   OH241870   2.952   7.410   0.599  0.0976 -0.4460 -0.2158
 5892TIP3    H141871   2.916   7.494   0.627  1.3729 -0.1539  0.6511
 5892TIP3    H241872   2.876   7.355   0.585 -0.7577  0.7872 -0.5898
 5893TIP3   OH241873   3.856   3.934   1.893 -0.0416 -0.1709  0.1806
 5893TIP3    H141874   3.800   3.898   1.961 -0.6234 -2.5317 -1.4409
 5893TIP3    H241875   3.930   3.873   1.887  0.8098  0.8607 -0.2560
 5894TIP3   OH241876   0.767   1.019   0.532  0.3424 -0.2051  0.6288
 5894TIP3    H141877   0.726   0.955   0.473 -0.7240  0.0608  1.0728
 5894TIP3    H241878   0.697   1.080   0.554  0.5591 -0.5862  2.5930
 5895TIP3   OH241879   0.344   6.253   3.000  0.0952  0.5992  0.0343
 5895TIP3    H141880   0.376   6.191   3.066 -1.7785 -0.0262  0.4342
 5895TIP3    H241881   0.361   6.211   2.916 -2.6392 -1.3520  0.3345
 5896TIP3   OH241882   6.240   1.981   1.033 -0.4913  0.9546  0.2661
 5896TIP3    H141883   6.258   1.901   1.082 -0.4350 -0.1291 -1.4459
 5896TIP3    H241884   6.308   2.042   1.062 -0.9055  0.6327  2.0595
 5897TIP3   OH241885   0.958   7.033   1.864 -0.3474 -0.7875  1.0227
 5897TIP3    H141886   0.970   7.034   1.959 -2.8639 -0.5853  1.4099
 5897TIP3    H241887   0.876   7.080   1.850  0.2714 -0.2861 -1.3326
 5898TIP3   OH241888   6.990   3.179   1.020  1.1247  0.2322  0.0930
 5898TIP3    H141889   6.964   3.167   1.111  1.1148 -0.3865  0.0166
 5898TIP3    H241890   6.908   3.198   0.974  1.1716  0.8376  0.2591
 5899TIP3   OH241891   2.826   1.505   3.405  0.6172 -0.1465 -0.4562
 5899TIP3    H141892   2.798   1.420   3.438  1.4088 -0.9931 -1.8720
 5899TIP3    H241893   2.794   1.568   3.470 -1.2880 -1.3718 -0.1450
 5900TIP3   OH241894   2.462   1.591   0.740  0.6711  0.0557  0.4313
 5900TIP3    H141895   2.479   1.583   0.646 -2.2385  1.0568 -0.2978
 5900TIP3    H241896   2.534   1.646   0.773  2.3685 -1.2395 -0.9274
 5901TIP3   OH241897   7.022   1.884   3.154  0.0229  0.0402  0.2290
 5901TIP3    H141898   6.989   1.910   3.068  0.6699 -0.5817 -0.2200
 5901TIP3    H241899   7.090   1.948   3.174  0.8198 -0.5954 -0.3578
 5902TIP3   OH241900   4.322   0.637   2.916  0.9034 -0.2217  0.0110
 5902TIP3    H141901   4.273   0.629   2.998  1.9084  1.0247  0.7752
 5902TIP3    H241902   4.389   0.703   2.934  1.7647 -0.6080 -1.5293
 5903TIP3   OH241903   0.690   3.321   1.428  0.8952  0.0935 -0.1487
 5903TIP3    H141904   0.661   3.252   1.368  1.4251  0.3501 -0.7101
 5903TIP3    H241905   0.744   3.379   1.374  0.0397  1.2383  0.1947
 5904TIP3   OH241906   5.363   3.312   3.213  0.5321 -0.1135 -0.2241
 5904TIP3    H141907   5.375   3.256   3.290 -0.1980 -0.9829 -0.7256
 5904TIP3    H241908   5.270   3.334   3.213  0.4485 -0.4136 -1.0438
 5905TIP3   OH241909   6.298   0.111   2.708 -0.2275 -0.1523  0.4676
 5905TIP3    H141910   6.224   0.057   2.736  0.6016 -0.7577  1.5745
 5905TIP3    H241911   6.299   0.104   2.613 -1.3625 -0.4233  0.4595
 5906TIP3   OH241912   4.804   6.959   1.954  0.0760 -0.1418  0.4499
 5906TIP3    H141913   4.749   6.958   1.876  1.7055  0.2071 -0.7728
 5906TIP3    H241914   4.798   7.049   1.987 -0.0994 -0.1063  0.3201
 5907TIP3   OH241915   1.659   3.067   2.746 -0.1590  0.0826 -0.5253
 5907TIP3    H141916   1.620   2.998   2.692 -0.5470 -0.8278  0.8585
 5907TIP3    H241917   1.712   3.118   2.685 -2.3772  0.5161 -2.2322
 5908TIP3   OH241918   0.586   5.530   2.023 -0.3809  0.7028 -0.6521
 5908TIP3    H141919   0.570   5.624   2.030  0.1070  0.7754 -0.4472
 5908TIP3    H241920   0.500   5.492   2.002 -0.4798  1.2425 -1.2312
 5909TIP3   OH241921   3.520   2.350   1.313  0.2824  0.2480  0.7563
 5909TIP3    H141922   3.431   2.331   1.342  0.1194  1.6739  1.2347
 5909TIP3    H241923   3.516   2.437   1.275  1.3535  0.0805  0.2213
 5910TIP3   OH241924   0.815   5.424   1.302 -0.2235 -0.4237  0.0249
 5910TIP3    H141925   0.835   5.448   1.392  1.3345 -0.6514 -0.2347
 5910TIP3    H241926   0.830   5.503   1.251 -0.4811 -0.4645 -0.1165
 5911TIP3   OH241927   5.926   1.822   2.716 -0.2514  0.0442  0.2533
 5911TIP3    H141928   5.988   1.892   2.698  0.2785  0.5426  3.4507
 5911TIP3    H241929   5.979   1.742   2.718 -0.2560  0.0342  0.0238
 5912TIP3   OH241930   6.530   5.234   1.443 -0.5977  0.1414 -0.3446
 5912TIP3    H141931   6.512   5.185   1.363  0.4730 -0.8382 -0.0210
 5912TIP3    H241932   6.481   5.187   1.511 -3.2415  2.2033 -0.6933
 5913TIP3   OH241933   1.950   0.191   1.420 -0.0701  0.0284  0.4712
 5913TIP3    H141934   1.897   0.148   1.486 -1.2092 -0.4554 -0.7284
 5913TIP3    H241935   1.907   0.171   1.337  1.5276  0.3072 -0.4699
 5914TIP3   OH241936   1.343   7.049   0.517  0.5771  0.3870  0.1441
 5914TIP3    H141937   1.297   7.041   0.434  0.3343 -0.9461  0.3875
 5914TIP3    H241938   1.275   7.062   0.582  0.2334 -3.3233  0.7534
 5915TIP3   OH241939   0.566   6.623   1.569 -0.1268 -0.2593 -0.2824
 5915TIP3    H141940   0.591   6.715   1.561  0.2535 -0.4195 -1.0807
 5915TIP3    H241941   0.472   6.622   1.550 -0.4246  0.1269  1.0656
 5916TIP3   OH241942   2.134   7.219   1.603 -0.1587  0.0826  0.3634
 5916TIP3    H141943   2.220   7.213   1.561  0.0637  1.7843  0.4759
 5916TIP3    H241944   2.102   7.129   1.606  2.1231 -0.7658  1.3715
 5917TIP3   OH241945   3.715   3.800   2.070  0.7436 -0.7522  0.1892
 5917TIP3    H141946   3.623   3.778   2.058  0.6844 -0.3715 -0.0681
 5917TIP3    H241947   3.733   3.780   2.162 -0.0494  0.7936  0.7181
 5918TIP3   OH241948   4.994   0.118   0.644 -0.2465 -0.6499  0.0439
 5918TIP3    H141949   5.007   0.107   0.550  1.4015 -0.4470  0.2285
 5918TIP3    H241950   5.067   0.072   0.685 -1.1666 -1.1062  1.2614
 5919TIP3   OH241951   0.134   0.476   1.553 -0.1012  0.2918 -0.0366
 5919TIP3    H141952   0.039   0.484   1.545 -0.1268 -0.4815 -0.6142
 5919TIP3    H241953   0.146   0.411   1.623 -0.0431 -0.9930 -1.2022
 5920TIP3   OH241954   3.244   3.676   1.451 -0.0610  0.5572  0.2298
 5920TIP3    H141955   3.198   3.595   1.429  0.1868  0.1727  1.0912
 5920TIP3    H241956   3.331   3.648   1.479  0.1917  1.1646  0.0823
 5921TIP3   OH241957   0.800   3.242   2.226  0.7757  0.2942 -0.2930
 5921TIP3    H141958   0.866   3.250   2.295 -0.0477  1.9662  0.3692
 5921TIP3    H241959   0.720   3.278   2.265 -0.3058 -0.8321 -1.3800
 5922TIP3   OH241960   1.811   0.012   2.436  0.0137  0.2667  0.0437
 5922TIP3    H141961   1.885  -0.045   2.459  2.4643  1.1440 -4.4470
 5922TIP3    H241962   1.832   0.096   2.478  1.3138  0.3290 -0.6757
 5923TIP3   OH241963   4.671   3.362   1.560 -0.1479 -0.0440  0.3016
 5923TIP3    H141964   4.606   3.298   1.532  0.4102 -0.7290  0.5557
 5923TIP3    H241965   4.751   3.311   1.572 -0.0724  0.4327  2.0088
 5924TIP3   OH241966   6.894   0.376   0.394  0.0676  0.5607  0.3935
 5924TIP3    H141967   6.820   0.352   0.449 -1.3003  1.2631 -1.0320
 5924TIP3    H241968   6.867   0.352   0.305  1.7395  0.4484 -0.1277
 5925TIP3   OH241969   6.971   6.058   1.535 -0.3419 -0.6085  0.1182
 5925TIP3    H141970   6.990   6.014   1.452  1.1552 -2.1139  1.2148
 5925TIP3    H241971   6.876   6.072   1.532 -0.1761  0.7614 -2.4610
 5926TIP3   OH241972   2.072   2.484   2.624 -0.1655  0.2364 -0.7949
 5926TIP3    H141973   2.076   2.396   2.662 -0.8498  0.4847 -0.1350
 5926TIP3    H241974   2.047   2.469   2.533  1.4257 -0.3572 -1.1666
 5927TIP3   OH241975   5.530   5.241   2.737  0.2310 -0.2962  0.2816
 5927TIP3    H141976   5.598   5.285   2.686  0.2540  0.0081  0.5747
 5927TIP3    H241977   5.531   5.151   2.704  0.5424 -0.2097  0.0456
 5928TIP3   OH241978   5.523   1.796   3.155 -0.1181 -0.4867 -0.4524
 5928TIP3    H141979   5.529   1.708   3.117  0.6299 -0.3765 -0.6123
 5928TIP3    H241980   5.553   1.786   3.245 -2.0956 -0.7879  0.2161
 5929TIP3   OH241981   3.764   1.420   3.407 -0.0930 -0.2113 -0.3376
 5929TIP3    H141982   3.853   1.446   3.430  0.0793  0.5423 -1.7241
 5929TIP3    H241983   3.770   1.392   3.316 -1.6413  1.9552 -1.1859
 5930TIP3   OH241984   0.527   4.207   0.746  0.6087  0.0287  0.4576
 5930TIP3    H141985   0.434   4.209   0.724  0.9292  1.2826 -0.9798
 5930TIP3    H241986   0.544   4.294   0.784  1.1869 -0.1951  0.7119
 5931TIP3   OH241987   0.144   5.728   1.525  0.1755  0.5288 -0.1865
 5931TIP3    H141988   0.208   5.700   1.460 -0.7516 -0.5160 -0.6809
 5931TIP3    H241989   0.059   5.721   1.481 -0.8174 -2.9527  1.8730
 5932TIP3   OH241990   6.504   5.898   0.857  0.0711 -0.3675 -0.2811
 5932TIP3    H141991   6.506   5.973   0.798 -0.2691 -1.4963 -1.7940
 5932TIP3    H241992   6.411   5.880   0.871  0.1417  0.0653  0.8772
 5933TIP3   OH241993   1.661   1.829   0.576 -0.5011 -0.2252 -0.3508
 5933TIP3    H141994   1.673   1.830   0.671 -0.2299  0.4596 -0.3851
 5933TIP3    H241995   1.694   1.915   0.547 -0.0355 -0.6559 -1.1268
 5934TIP3   OH241996   0.704   6.324   2.153  0.1884  0.0376 -0.0893
 5934TIP3    H141997   0.745   6.407   2.131  0.9440 -0.5380 -0.9330
 5934TIP3    H241998   0.694   6.279   2.069 -1.9636  0.0354  0.1045
 5935TIP3   OH241999   2.797   5.832   0.849  0.1521 -0.1679  0.4441
 5935TIP3    H142000   2.862   5.902   0.860  1.5085 -1.5860  1.8908
 5935TIP3    H242001   2.812   5.800   0.759 -0.2833  1.1630 -0.1264
 5936TIP3   OH242002   4.159   6.927   0.678  0.0545  0.0185  0.0577
 5936TIP3    H142003   4.202   6.907   0.594  0.4489  0.5286  0.1357
 5936TIP3    H242004   4.127   6.842   0.709  1.4334 -0.4556  0.2263
 5937TIP3   OH242005   7.620   2.973   1.051 -0.1785 -0.6146  0.0519
 5937TIP3    H142006   7.550   2.972   0.986 -0.6500 -0.2672  0.5422
 5937TIP3    H242007   7.690   2.922   1.012 -0.2258  0.0762 -0.9860
 5938TIP3   OH242008   3.996   1.062   1.301  0.0299 -0.3592 -0.1877
 5938TIP3    H142009   3.916   1.113   1.287  0.0803 -0.8786 -2.6632
 5938TIP3    H242010   4.061   1.127   1.328 -1.2052  0.0335  2.1705
 5939TIP3   OH242011   0.448   0.928   2.163  0.5508 -0.4202  0.1297
 5939TIP3    H142012   0.533   0.894   2.134  0.5532  0.4578 -0.9715
 5939TIP3    H242013   0.394   0.930   2.084  0.2175  1.1008  0.3587
 5940TIP3   OH242014   5.227   0.924   2.874 -0.4961 -0.2619 -0.3808
 5940TIP3    H142015   5.288   0.893   2.941 -1.0533  0.0724  0.2904
 5940TIP3    H242016   5.144   0.882   2.895 -0.4519 -0.9340 -1.4544
 5941TIP3   OH242017   0.656   2.601   2.546 -0.3359  0.4077 -0.2776
 5941TIP3    H142018   0.740   2.560   2.527 -0.6216 -0.3512  0.0607
 5941TIP3    H242019   0.656   2.681   2.493  0.5858  0.4121 -0.2884
 5942TIP3   OH242020   6.939   0.102   1.485 -0.1258  0.5758 -0.3011
 5942TIP3    H142021   6.896   0.113   1.400  1.3500 -0.3279 -1.2127
 5942TIP3    H242022   6.924   0.184   1.531 -2.6273  0.3876 -0.6216
 5943TIP3   OH242023   6.499   6.166   0.792 -0.0525  0.3993 -0.2689
 5943TIP3    H142024   6.545   6.234   0.841 -0.2000  0.8131 -0.6912
 5943TIP3    H242025   6.407   6.189   0.800 -0.1732 -0.2754  0.3481
 5944TIP3   OH242026   7.324   7.242   2.162  0.6174 -0.7279  0.4234
 5944TIP3    H142027   7.388   7.216   2.229 -0.0350  0.2560  1.4528
 5944TIP3    H242028   7.324   7.168   2.101  2.2951 -1.0176  0.6997
 5945TIP3   OH242029   0.415   2.580   2.860 -0.4101 -0.2598 -0.0039
 5945TIP3    H142030   0.338   2.626   2.894  0.5877  1.0711  0.5663
 5945TIP3    H242031   0.406   2.586   2.765 -0.3470  1.1070  0.0535
 5946TIP3   OH242032   2.171   1.842   1.958  0.0349  0.0942 -0.0493
 5946TIP3    H142033   2.075   1.835   1.953 -0.1715  0.1387  2.6564
 5946TIP3    H242034   2.188   1.887   2.041  2.4243 -0.0413 -0.3967
 5947TIP3   OH242035   2.063   6.232   1.114 -0.6414 -0.2368 -0.1379
 5947TIP3    H142036   2.096   6.193   1.033 -0.2440  0.6712 -0.4216
 5947TIP3    H242037   2.070   6.162   1.178  2.8726  0.1159  0.0965
 5948TIP3   OH242038   1.498   3.519   2.416 -0.2710  0.6214  0.0135
 5948TIP3    H142039   1.434   3.590   2.404 -2.1212 -0.8604  0.5368
 5948TIP3    H242040   1.451   3.440   2.388  1.9967 -0.3379 -1.3258
 5949TIP3   OH242041   5.256   7.426   1.081  0.1477 -0.0990  0.4548
 5949TIP3    H142042   5.263   7.466   1.168 -2.9686 -1.2385  1.3489
 5949TIP3    H242043   5.275   7.333   1.096  0.6217 -0.1370 -0.3216
 5950TIP3   OH242044   1.768   7.660   2.815  0.1862  0.5911  0.7823
 5950TIP3    H142045   1.840   7.622   2.764 -1.8588 -0.8721 -1.2257
 5950TIP3    H242046   1.759   7.602   2.891 -0.0302 -0.3458  0.0655
 5951TIP3   OH242047   6.458   4.215   1.497 -0.4589  0.3086  0.4709
 5951TIP3    H142048   6.426   4.125   1.502  1.3027 -0.2972  1.6653
 5951TIP3    H242049   6.527   4.220   1.563  1.5612  1.6463 -1.5848
 5952TIP3   OH242050   7.044   7.318   1.415  0.3709  0.3715  0.0683
 5952TIP3    H142051   7.117   7.290   1.360 -1.1793 -1.6363 -1.1309
 5952TIP3    H242052   6.989   7.371   1.357 -0.9340 -1.2011 -0.2030
 5953TIP3   OH242053   7.110   0.160   2.049 -0.1857  0.2319 -0.6842
 5953TIP3    H142054   7.030   0.204   2.021 -1.0989 -0.3148  0.9079
 5953TIP3    H242055   7.079   0.079   2.090  1.2402 -0.3266 -0.6552
 5954TIP3   OH242056   6.263   2.581   0.748 -0.5994 -0.2190 -0.0783
 5954TIP3    H142057   6.307   2.502   0.720 -0.5144 -0.4777  0.7680
 5954TIP3    H242058   6.330   2.649   0.744  0.0303 -0.6879  1.6012
 5955TIP3   OH242059   5.089   7.444   3.429  0.1924  0.6375 -0.1285
 5955TIP3    H142060   5.015   7.409   3.478  0.3006 -1.2668 -1.2188
 5955TIP3    H242061   5.053   7.519   3.382 -1.1581 -0.3930 -0.8161
 5956TIP3   OH242062   7.028   1.434   8.094  0.0371  0.2023 -0.1708
 5956TIP3    H142063   7.107   1.424   8.148  0.0319  0.9402 -0.0122
 5956TIP3    H242064   6.968   1.485   8.149 -0.0665  0.7294 -0.7628
 5957TIP3   OH242065   3.479   5.036   1.850 -0.2091  0.1694  0.1270
 5957TIP3    H142066   3.512   5.126   1.856  0.2474 -0.0369  0.7356
 5957TIP3    H242067   3.473   5.007   1.941 -0.5468 -0.3510 -0.0610
 5958TIP3   OH242068   2.354   1.094   0.891 -0.1035 -0.0256 -0.0299
 5958TIP3    H142069   2.303   1.060   0.817 -0.3629  1.5264 -0.6037
 5958TIP3    H242070   2.430   1.135   0.851  0.3489 -0.1724  0.6601
 5959TIP3   OH242071   5.115   2.292   0.816 -0.2551 -0.0077  0.0617
 5959TIP3    H142072   5.146   2.202   0.824  1.2023  0.0949 -3.1401
 5959TIP3    H242073   5.036   2.287   0.763 -0.0378  0.6132 -0.3373
 5960TIP3   OH242074   0.875   5.963   2.682 -0.2966 -0.1834  0.3926
 5960TIP3    H142075   0.860   6.004   2.767 -2.7631 -0.5161  0.1843
 5960TIP3    H242076   0.938   6.021   2.638 -0.9016  1.3611  1.4886
 5961TIP3   OH242077   2.841   6.777   0.826 -0.0509 -0.0889  0.0722
 5961TIP3    H142078   2.920   6.828   0.842  0.3855 -0.7548  0.0891
 5961TIP3    H242079   2.791   6.783   0.908 -0.4466  1.0534 -0.2345
 5962TIP3   OH242080   2.332   7.314   2.587 -0.7406  0.6223 -0.0389
 5962TIP3    H142081   2.384   7.302   2.666  0.3887 -0.9986 -0.9833
 5962TIP3    H242082   2.314   7.408   2.584  0.4473  0.9218  1.3565
 5963TIP3   OH242083   3.797   5.953   1.829 -0.1756 -0.0036 -0.3441
 5963TIP3    H142084   3.716   5.943   1.779 -0.6112 -0.4910  0.4355
 5963TIP3    H242085   3.772   6.011   1.902  0.0583 -0.5273  0.1558
 5964TIP3   OH242086   2.724   3.037   2.349 -0.0347  1.1995  0.2147
 5964TIP3    H142087   2.765   3.079   2.425  1.3396  0.7996 -0.2695
 5964TIP3    H242088   2.660   2.977   2.386  1.6797 -0.1445  1.1818
 5965TIP3   OH242089   4.116   5.914   0.451 -0.2782 -0.3116  1.1518
 5965TIP3    H142090   4.023   5.888   0.452 -0.2615 -0.5509 -0.5224
 5965TIP3    H242091   4.146   5.891   0.363  1.1063  0.7301  1.3207
 5966TIP3   OH242092   0.928   2.481   2.446 -0.6506 -0.6567  0.7295
 5966TIP3    H142093   0.975   2.553   2.489 -0.5969  0.2232 -0.7310
 5966TIP3    H242094   0.997   2.420   2.420 -0.0973  0.9603 -2.0336
 5967TIP3   OH242095   2.060   5.112   1.543 -0.3207 -0.2445  0.2542
 5967TIP3    H142096   2.141   5.141   1.500 -0.4726  0.2784  0.3159
 5967TIP3    H242097   2.037   5.185   1.601 -0.1091 -0.9424  1.2403
 5968TIP3   OH242098   4.425   1.723   2.071  0.5069  0.3643 -0.2487
 5968TIP3    H142099   4.478   1.730   1.992 -0.5555 -1.5223 -1.2154
 5968TIP3    H242100   4.354   1.663   2.047 -0.7416  0.9637  1.6787
 5969TIP3   OH242101   6.132   0.274   3.482 -0.0535 -0.4795 -0.4125
 5969TIP3    H142102   6.085   0.219   3.545  0.2789  1.6975  1.8904
 5969TIP3    H242103   6.136   0.221   3.402 -1.8187 -2.7879  0.9058
 5970TIP3   OH242104   5.087   7.679   3.210 -0.1210 -0.0901  0.4362
 5970TIP3    H142105   5.178   7.686   3.180 -0.3512 -1.9389 -0.8957
 5970TIP3    H242106   5.042   7.752   3.168  0.9125  1.5602  2.0520
 5971TIP3   OH242107   4.381   1.429   3.653  0.0182  0.3985 -0.1410
 5971TIP3    H142108   4.369   1.518   3.685  0.1165  0.2534  0.2964
 5971TIP3    H242109   4.294   1.388   3.660  0.5308 -0.4141  2.3123
 5972TIP3   OH242110   3.145   6.785   2.561 -0.3655 -0.0385  0.2944
 5972TIP3    H142111   3.098   6.814   2.639 -0.9707 -0.5741  0.1322
 5972TIP3    H242112   3.166   6.866   2.514 -0.6582  0.2339  0.6279
 5973TIP3   OH242113   0.706   0.987   2.621  1.0096 -0.5676  0.0288
 5973TIP3    H142114   0.661   1.070   2.603  0.5993 -0.8482 -0.2675
 5973TIP3    H242115   0.679   0.930   2.549  2.8338 -0.3679 -0.8688
 5974TIP3   OH242116   5.893   0.236   2.679 -0.1509  0.2817 -0.1110
 5974TIP3    H142117   5.967   0.236   2.618  0.4268  0.4714  0.5799
 5974TIP3    H242118   5.817   0.261   2.625  0.0726 -0.9771 -1.0583
 5975TIP3   OH242119   7.405   7.108   2.848 -0.2615 -0.3425  0.3233
 5975TIP3    H142120   7.496   7.102   2.817 -0.0251  0.6755  0.7599
 5975TIP3    H242121   7.394   7.031   2.904  1.0596  0.6300  2.0245
 5976TIP3   OH242122   0.775   6.015   1.388  0.1953  0.3176 -0.8258
 5976TIP3    H142123   0.781   6.110   1.380  2.0261  0.1677 -1.8697
 5976TIP3    H242124   0.765   5.984   1.298  0.7792 -0.5173 -0.6175
 5977TIP3   OH242125   3.136   6.606   2.300  0.3477 -0.0556  0.0723
 5977TIP3    H142126   3.224   6.642   2.289  0.1983  0.2342 -0.2122
 5977TIP3    H242127   3.117   6.614   2.393 -0.0166  1.4086 -0.1021
 5978TIP3   OH242128   6.664   7.144   2.342  0.3508 -0.3575 -0.0340
 5978TIP3    H142129   6.726   7.073   2.327 -1.8038 -3.0681  2.6305
 5978TIP3    H242130   6.578   7.104   2.323 -0.8882  1.8743  0.5781
 5979TIP3   OH242131   1.823   5.638   3.304 -0.2511 -0.7009  0.0616
 5979TIP3    H142132   1.733   5.605   3.298 -0.1145 -1.1593  0.4401
 5979TIP3    H242133   1.817   5.711   3.366 -0.8064  0.9600 -1.8303
 5980TIP3   OH242134   4.359   5.601   2.235 -0.3539  0.2877 -0.0207
 5980TIP3    H142135   4.435   5.655   2.214  0.3109 -0.6425 -0.1203
 5980TIP3    H242136   4.345   5.614   2.329  0.7855 -0.5381  0.2943
 5981TIP3   OH242137   7.666   0.114   1.966  0.0080  0.1193 -0.0873
 5981TIP3    H142138   7.646   0.074   1.882  0.8836 -0.8341  0.1493
 5981TIP3    H242139   7.613   0.066   2.029  1.2366 -0.8608  0.2283
 5982TIP3   OH242140   6.122   4.142   1.106  0.1434 -0.2240  0.5036
 5982TIP3    H142141   6.100   4.100   1.189 -2.3402  0.7109  0.3862
 5982TIP3    H242142   6.116   4.071   1.042  0.6567 -0.6451  0.9061
 5983TIP3   OH242143   3.826   1.541   2.944 -0.1636  0.4831 -0.0090
 5983TIP3    H142144   3.830   1.552   2.849 -1.3162 -0.6760 -0.2205
 5983TIP3    H242145   3.809   1.629   2.978  1.2558  1.0920 -0.7663
 5984TIP3   OH242146   2.431   5.011   2.165  0.1011 -0.2212  0.4168
 5984TIP3    H142147   2.409   5.021   2.258 -0.0286 -1.3001  0.5135
 5984TIP3    H242148   2.348   4.987   2.123  0.0959  0.5550 -0.0379
 5985TIP3   OH242149   4.686   5.966   2.953  0.1139 -0.1955 -0.3014
 5985TIP3    H142150   4.652   6.028   3.018 -0.4112 -0.2491 -0.5165
 5985TIP3    H242151   4.780   5.980   2.953  0.0397  0.3217 -0.0562
 5986TIP3   OH242152   5.211   7.308   2.284 -0.0208  0.0761 -0.6026
 5986TIP3    H142153   5.226   7.247   2.212  1.5711 -0.4634  0.1423
 5986TIP3    H242154   5.125   7.285   2.318  0.2680 -1.3151 -0.7722
 5987TIP3   OH242155   0.085   1.321   2.460 -0.1740 -0.1776  0.3982
 5987TIP3    H142156   0.002   1.370   2.458 -1.8368 -2.7449  1.1702
 5987TIP3    H242157   0.127   1.349   2.541 -2.0376 -1.3162  1.8568
 5988TIP3   OH242158   5.557   2.089   1.356 -0.2265  0.9849 -0.1274
 5988TIP3    H142159   5.575   2.059   1.446 -0.9433  0.2062 -0.2261
 5988TIP3    H242160   5.581   2.014   1.301 -0.4095  1.2212 -0.5297
 5989TIP3   OH242161   5.123   7.603   2.461 -0.9554 -0.4566 -0.2003
 5989TIP3    H142162   5.074   7.624   2.382  1.8579 -1.1428 -2.2661
 5989TIP3    H242163   5.172   7.683   2.481  0.0766 -0.9895 -0.5323
 5990TIP3   OH242164   4.907   5.309   1.473  0.5451  0.0178 -0.1543
 5990TIP3    H142165   4.819   5.308   1.511  0.7371  1.3915  0.3854
 5990TIP3    H242166   4.963   5.346   1.542  1.9463 -2.6729  0.2708
 5991TIP3   OH242167   2.321   4.690   3.286  0.1989  0.0213  0.1150
 5991TIP3    H142168   2.393   4.719   3.230 -1.1648  0.4354 -1.4993
 5991TIP3    H242169   2.321   4.595   3.276  1.2233 -0.0964  1.0520
 5992TIP3   OH242170   4.153   2.646   0.806  0.3819 -0.6588 -0.0808
 5992TIP3    H142171   4.238   2.673   0.840  0.7063  0.0466 -1.4155
 5992TIP3    H242172   4.089   2.699   0.853  0.8279  0.3346 -0.5848
 5993TIP3   OH242173   0.170   5.279   1.680  0.2825 -0.3566  0.4480
 5993TIP3    H142174   0.132   5.324   1.605 -0.1843 -0.5314  0.5775
 5993TIP3    H242175   0.095   5.251   1.732  0.6004  0.7878  1.6007
 5994TIP3   OH242176   2.264   6.711   2.675  0.2163  0.0110 -0.4235
 5994TIP3    H142177   2.225   6.625   2.660  2.4838 -1.0738 -0.3916
 5994TIP3    H242178   2.231   6.765   2.603 -0.3645 -1.1896 -1.0819
 5995TIP3   OH242179   5.389   6.636   0.654  0.0486 -0.3926 -0.6248
 5995TIP3    H142180   5.359   6.567   0.714 -0.7034  1.0430  0.7141
 5995TIP3    H242181   5.339   6.621   0.574 -2.6976  0.5402  0.7775
 5996TIP3   OH242182   4.580   5.437   2.775 -0.3282 -0.4015 -0.2097
 5996TIP3    H142183   4.617   5.433   2.687 -1.6068 -0.4351 -0.7750
 5996TIP3    H242184   4.504   5.494   2.766  0.3385  0.7470  1.1985
 5997TIP3   OH242185   7.496   0.953   1.161  0.2984  0.3018 -0.5788
 5997TIP3    H142186   7.557   1.023   1.184  1.2249 -0.4375 -0.6868
 5997TIP3    H242187   7.495   0.953   1.065  0.4519  0.0433 -0.5806
 5998TIP3   OH242188   5.484   4.498   1.618 -0.1632 -0.0238  0.6159
 5998TIP3    H142189   5.550   4.429   1.620  0.6010  0.3619 -3.2909
 5998TIP3    H242190   5.407   4.456   1.580 -0.0162  0.9527 -0.8520
 5999TIP3   OH242191   5.762   4.484   1.365 -0.2257  0.1131  0.0904
 5999TIP3    H142192   5.857   4.478   1.370 -0.2724 -0.2951  0.6450
 5999TIP3    H242193   5.731   4.431   1.439 -0.9102 -1.0808 -0.9991
 6000TIP3   OH242194   1.657   0.525   1.027 -0.5115  0.3727  0.5513
 6000TIP3    H142195   1.570   0.528   1.066 -0.1178  0.3791  1.4638
 6000TIP3    H242196   1.705   0.596   1.071 -0.5428  1.5229 -1.1841
 6001TIP3   OH242197   5.764   4.767   0.790 -0.0016 -0.3818 -0.2190
 6001TIP3    H142198   5.842   4.794   0.837  0.4118 -0.5168 -0.8136
 6001TIP3    H242199   5.773   4.673   0.779 -0.5802 -0.5008  0.3018
 6002TIP3   OH242200   0.143   1.332   1.266  0.0195 -0.2831 -0.4758
 6002TIP3    H142201   0.109   1.344   1.355 -3.3827  0.1953 -1.6788
 6002TIP3    H242202   0.150   1.421   1.231 -0.1057 -0.5287 -1.1388
 6003TIP3   OH242203   6.262   0.503   0.994  0.2005  0.0165 -0.4561
 6003TIP3    H142204   6.171   0.486   0.972 -0.1218  0.9897  0.0603
 6003TIP3    H242205   6.259   0.578   1.053  1.3775  0.4241 -0.8772
 6004TIP3   OH242206   6.758   1.603   1.628 -0.0332 -0.3949 -0.1080
 6004TIP3    H142207   6.774   1.514   1.659 -0.5292 -0.1041  1.0512
 6004TIP3    H242208   6.831   1.654   1.664  0.6672 -0.4467 -1.4022
 6005TIP3   OH242209   4.759   0.863   3.223  0.0659 -0.4374 -0.0333
 6005TIP3    H142210   4.710   0.865   3.305 -2.7288  0.3462 -1.5916
 6005TIP3    H242211   4.807   0.780   3.225 -0.6150 -0.8279  1.9816
 6006TIP3   OH242212   5.836   0.801   3.644 -0.1995 -0.2325 -0.4964
 6006TIP3    H142213   5.817   0.793   3.738 -3.3300  0.9150 -0.9010
 6006TIP3    H242214   5.901   0.733   3.627  1.1128  0.0913  2.6361
 6007TIP3   OH242215   1.096   6.243   0.687 -0.3465  0.3821  0.2100
 6007TIP3    H142216   1.126   6.191   0.761 -0.1470 -0.2442 -0.3042
 6007TIP3    H242217   1.063   6.324   0.727 -1.2308 -0.3682  1.0783
 6008TIP3   OH242218   0.251   2.284   1.246  0.1132  0.1980  0.2837
 6008TIP3    H142219   0.327   2.308   1.192 -0.9045  1.1989 -0.7533
 6008TIP3    H242220   0.287   2.278   1.334  1.9945 -2.2823 -0.5346
 6009TIP3   OH242221   6.112   3.276   0.613  0.5498  0.0750 -0.5422
 6009TIP3    H142222   6.091   3.306   0.702 -0.8436 -1.5995 -0.2425
 6009TIP3    H242223   6.041   3.216   0.591  1.7321 -0.8137 -2.1606
 6010TIP3   OH242224   3.120   6.575   1.036  0.4081  0.5505  0.0930
 6010TIP3    H142225   3.116   6.660   1.080  2.0143  0.6054  0.1809
 6010TIP3    H242226   3.120   6.596   0.942 -2.9645  0.4357 -0.0568
 6011TIP3   OH242227   4.297   7.177   0.676  0.5010 -0.0910  0.2800
 6011TIP3    H142228   4.214   7.201   0.635  1.3971 -1.8239 -2.8908
 6011TIP3    H242229   4.286   7.085   0.700  1.7768 -0.7257 -1.3179
 6012TIP3   OH242230   3.837   7.545   1.463 -0.4863  0.2149 -0.0349
 6012TIP3    H142231   3.844   7.640   1.460  0.9581  0.2996  2.6936
 6012TIP3    H242232   3.751   7.526   1.425 -0.6499  2.5320 -1.0057
 6013TIP3   OH242233   1.824   2.108   0.693 -0.2104  0.0214 -0.3929
 6013TIP3    H142234   1.874   2.030   0.717  0.0846  0.1359 -0.6313
 6013TIP3    H242235   1.745   2.104   0.748  0.6389  0.5043  0.9257
 6014TIP3   OH242236   0.744   3.595   1.959  1.1507 -0.3884 -0.3480
 6014TIP3    H142237   0.747   3.586   1.864 -1.6545  1.4777 -0.7382
 6014TIP3    H242238   0.795   3.674   1.977 -0.4598  0.7666 -0.6685
 6015TIP3   OH242239   0.256   2.165   2.442  0.8152  0.3481  0.3870
 6015TIP3    H142240   0.219   2.188   2.357 -0.7243  0.8131  1.1674
 6015TIP3    H242241   0.230   2.074   2.456  0.0394  0.6444  0.8929
 6016TIP3   OH242242   4.144   3.252   1.451  0.7339  0.7617  0.1387
 6016TIP3    H142243   4.159   3.196   1.527 -1.4300  0.7735  0.6329
 6016TIP3    H242244   4.144   3.192   1.377  1.1857  0.5152  0.3322
 6017TIP3   OH242245   4.564   3.973   1.530  0.1746 -0.4776  0.0391
 6017TIP3    H142246   4.656   3.948   1.534  0.9443  2.0755  0.4589
 6017TIP3    H242247   4.520   3.913   1.589  1.9177 -0.4977  1.4052
 6018TIP3   OH242248   2.948   0.812   0.773  0.1082  0.3571 -0.6251
 6018TIP3    H142249   2.860   0.774   0.777  0.4933 -0.7461 -1.9136
 6018TIP3    H242250   2.941   0.893   0.824 -1.7135  0.4400 -0.9279
 6019TIP3   OH242251   3.274   2.353   0.806  0.0239  0.4231  0.0579
 6019TIP3    H142252   3.288   2.428   0.747  1.5509  0.3276  0.2586
 6019TIP3    H242253   3.316   2.279   0.761 -0.5816 -0.0979  0.3321
 6020TIP3   OH242254   6.675   3.030   3.277  0.4341 -0.3848 -0.0402
 6020TIP3    H142255   6.591   3.007   3.236 -0.5799  0.3892  1.5279
 6020TIP3    H242256   6.740   3.006   3.211 -1.0605 -0.1093 -1.7084
 6021TIP3   OH242257   7.021   5.616   3.154 -0.1642 -0.5100 -0.2001
 6021TIP3    H142258   6.955   5.662   3.103  0.5445 -1.4389 -2.0225
 6021TIP3    H242259   7.104   5.650   3.122  0.2960 -0.1318  1.3206
 6022TIP3   OH242260   4.050   0.757   2.022  0.4067  0.4471 -0.1859
 6022TIP3    H142261   4.067   0.672   1.981  1.9387  1.2453 -1.3096
 6022TIP3    H242262   3.954   0.766   2.020  0.3286 -0.4457 -1.7204
 6023TIP3   OH242263   2.098   4.424   2.448  0.5263  0.4226  0.2547
 6023TIP3    H142264   2.058   4.452   2.365  1.2670  0.3657 -0.1317
 6023TIP3    H242265   2.070   4.489   2.511 -0.1749  0.3836 -0.0076
 6024TIP3   OH242266   6.023   6.360   1.698  0.9120 -0.0075  0.2943
 6024TIP3    H142267   5.937   6.390   1.727  1.6663  1.9458  0.6385
 6024TIP3    H242268   6.059   6.314   1.774  0.8169  0.6010  0.7148
 6025TIP3   OH242269   5.492   1.738   2.825 -0.0063 -0.1965  0.0325
 6025TIP3    H142270   5.559   1.701   2.768 -0.1057  1.0639 -0.9502
 6025TIP3    H242271   5.496   1.685   2.905  0.2624 -1.9049 -1.0561
 6026TIP3   OH242272   1.629   0.317   1.227  0.0348  0.0270  0.3802
 6026TIP3    H142273   1.704   0.356   1.271  0.5141  0.4550 -0.7629
 6026TIP3    H242274   1.641   0.340   1.135 -1.9286  0.8293  0.2651
 6027TIP3   OH242275   5.628   3.296   1.017  0.1214 -0.6528 -0.5254
 6027TIP3    H142276   5.697   3.272   0.954 -0.8798 -1.0858 -1.4928
 6027TIP3    H242277   5.612   3.215   1.066  0.8782 -0.3238  0.2814
 6028TIP3   OH242278   0.166   1.994   1.158  0.2397  0.1478 -0.6351
 6028TIP3    H142279   0.087   2.013   1.208 -0.6917  0.6755 -2.2567
 6028TIP3    H242280   0.222   2.070   1.172 -0.4921  0.8232 -1.2815
 6029TIP3   OH242281   6.116   4.034   2.906  0.3661 -0.0368 -0.2693
 6029TIP3    H142282   6.029   4.006   2.878  0.2057  0.7725 -0.5938
 6029TIP3    H242283   6.167   3.953   2.909 -0.4529 -0.5532  0.1475
 6030TIP3   OH242284   3.503   2.109   1.646  0.0623 -0.1180 -0.2743
 6030TIP3    H142285   3.513   2.153   1.731 -1.0797 -0.2707 -0.0543
 6030TIP3    H242286   3.545   2.169   1.584 -1.5483  1.3708  0.0060
 6031TIP3   OH242287   5.447   4.406   2.240  0.1116  0.4756  0.7512
 6031TIP3    H142288   5.422   4.411   2.332 -0.4245  0.3606  0.6168
 6031TIP3    H242289   5.406   4.483   2.200 -1.1060 -0.3807  0.2848
 6032TIP3   OH242290   7.496   6.071   2.334 -0.5798  0.2293 -0.0347
 6032TIP3    H142291   7.406   6.103   2.329  0.4939  3.4162 -1.3273
 6032TIP3    H242292   7.518   6.073   2.427 -1.7167 -0.3522  0.2692
 6033TIP3   OH242293   3.748   1.161   1.283 -0.1555  0.0378  0.3247
 6033TIP3    H142294   3.705   1.086   1.241 -1.1027  1.4949 -1.4062
 6033TIP3    H242295   3.688   1.187   1.353  0.2363 -0.8491  1.0180
 6034TIP3   OH242296   5.619   3.298   1.742 -0.3337 -0.0108  0.0020
 6034TIP3    H142297   5.536   3.346   1.742 -1.9568 -2.5637  1.3332
 6034TIP3    H242298   5.596   3.210   1.710  1.4104 -1.3655  2.1599
 6035TIP3   OH242299   3.289   5.408   2.149  0.1739 -0.5657 -0.4035
 6035TIP3    H142300   3.196   5.420   2.132  0.5110  0.2775 -1.8676
 6035TIP3    H242301   3.317   5.491   2.189  0.2004 -1.0134  0.5227
 6036TIP3   OH242302   3.183   0.065   2.226 -0.1931  0.6813  0.2043
 6036TIP3    H142303   3.151  -0.002   2.286 -0.9337  1.8614  1.1783
 6036TIP3    H242304   3.143   0.044   2.142  2.2897 -2.0877 -0.4726
 6037TIP3   OH242305   3.618   2.407   0.729 -0.5141 -0.0322 -0.3561
 6037TIP3    H142306   3.677   2.401   0.804  1.3430  0.2768 -1.7419
 6037TIP3    H242307   3.615   2.500   0.707 -0.7548 -0.1606 -0.8965
 6038TIP3   OH242308   1.211   3.971   2.323  0.7145 -0.3650 -0.4461
 6038TIP3    H142309   1.148   3.979   2.251  0.1997 -0.5596 -0.0230
 6038TIP3    H242310   1.286   4.024   2.296  0.0260  0.5542 -0.5776
 6039TIP3   OH242311   4.035   6.393   0.664 -0.1728  0.1412  0.1726
 6039TIP3    H142312   4.001   6.380   0.753 -3.4440 -1.9312 -1.1747
 6039TIP3    H242313   4.107   6.330   0.656  0.2321  0.4308  1.3657
 6040TIP3   OH242314   1.352   1.738   0.835 -0.2060  0.6096 -0.3097
 6040TIP3    H142315   1.346   1.643   0.840 -0.5678  0.6926  2.5135
 6040TIP3    H242316   1.440   1.759   0.867 -0.4351  1.2581 -0.0795
 6041TIP3   OH242317   4.998   1.085   3.184 -0.1712  0.0961  0.1219
 6041TIP3    H142318   5.016   1.004   3.135 -3.0260 -0.3533 -0.3459
 6041TIP3    H242319   5.031   1.155   3.128 -2.4626 -0.4727 -2.1319
 6042TIP3   OH242320   4.333   6.601   1.458 -0.0222  0.3364  0.2117
 6042TIP3    H142321   4.256   6.544   1.452 -0.2565  0.4916  1.4626
 6042TIP3    H242322   4.298   6.685   1.488  0.4300  0.9089 -0.8379
 6043TIP3   OH242323   5.930   0.806   2.671 -0.0950 -0.3952 -0.3068
 6043TIP3    H142324   5.981   0.786   2.593  1.4251  0.3540  0.4317
 6043TIP3    H242325   5.996   0.835   2.735 -1.1521 -1.9385  1.5897
 6044TIP3   OH242326   7.668   6.198   0.576  0.1160 -0.0501 -0.1811
 6044TIP3    H142327   7.698   6.243   0.497  0.8777 -1.1835 -0.5672
 6044TIP3    H242328   7.573   6.200   0.570  0.1579 -0.0723 -1.1138
 6045TIP3   OH242329   6.471   6.960   2.094  0.1695 -0.0534 -0.0025
 6045TIP3    H142330   6.406   6.933   2.029  0.5296 -0.2857 -0.2695
 6045TIP3    H242331   6.447   6.911   2.173 -1.1574  1.3214  0.4982
 6046TIP3   OH242332   3.707   7.321   2.545 -0.5789  0.1943  0.2797
 6046TIP3    H142333   3.654   7.323   2.624  0.3999  0.5889  0.9429
 6046TIP3    H242334   3.765   7.397   2.553  1.0838 -1.0315  0.2793
 6047TIP3   OH242335   3.763   5.690   0.837 -0.2432 -0.0585 -0.4140
 6047TIP3    H142336   3.680   5.717   0.876  0.2550 -0.3873  0.9184
 6047TIP3    H242337   3.806   5.772   0.812 -0.5028  0.1654 -0.1235
 6048TIP3   OH242338   7.371   6.426   2.299  0.1824 -0.3815  0.1296
 6048TIP3    H142339   7.438   6.357   2.296  0.4049 -0.2219  0.9688
 6048TIP3    H242340   7.288   6.379   2.306  0.2036 -0.5818 -0.9053
 6049TIP3   OH242341   7.458   5.027   0.785 -0.9933  0.3732 -0.1342
 6049TIP3    H142342   7.502   4.961   0.731  0.7739 -0.7745  2.5160
 6049TIP3    H242343   7.529   5.079   0.822 -2.1462  1.2475  0.9406
 6050TIP3   OH242344   4.902   5.878   1.074 -0.0944  0.2173  0.1974
 6050TIP3    H142345   4.908   5.794   1.030 -1.6878 -0.6980  1.6091
 6050TIP3    H242346   4.862   5.859   1.159  0.6676  2.2276  1.0900
 6051TIP3   OH242347   0.217   4.065   2.064  0.3055  0.1760 -0.0193
 6051TIP3    H142348   0.168   4.037   2.141  0.3685  0.7891  0.2558
 6051TIP3    H242349   0.221   3.988   2.008  0.5459 -0.3762  0.7371
 6052TIP3   OH242350   1.743   3.822   0.435  0.0816  0.1386  0.5658
 6052TIP3    H142351   1.795   3.857   0.507  0.5752  0.3022  0.1373
 6052TIP3    H242352   1.808   3.797   0.369 -0.3490 -0.2428  0.2815
 6053TIP3   OH242353   5.269   2.541   0.792 -0.2304  0.6797 -0.1404
 6053TIP3    H142354   5.229   2.456   0.810 -0.7280  1.1309  0.9653
 6053TIP3    H242355   5.362   2.521   0.780  0.2007  0.2953  3.0883
 6054TIP3   OH242356   4.080   3.004   1.879  0.6330  0.0127  0.4777
 6054TIP3    H142357   4.162   2.996   1.927  0.0353 -0.0195  1.5127
 6054TIP3    H242358   4.030   2.927   1.904  0.7947 -0.6884 -1.2052
 6055TIP3   OH242359   6.111   4.829   0.805 -0.2690 -0.0785 -0.0318
 6055TIP3    H142360   6.146   4.747   0.771  0.2275  0.1809 -0.1544
 6055TIP3    H242361   6.160   4.897   0.760 -0.5612  0.2852  0.1920
 6056TIP3   OH242362   0.342   2.838   2.011 -0.3550  0.2929  0.2798
 6056TIP3    H142363   0.426   2.798   1.987 -0.5299  0.8417 -1.3313
 6056TIP3    H242364   0.367   2.908   2.072  0.4058  0.5903 -0.3442
 6057TIP3   OH242365   5.969   2.285   0.467  0.0017  0.1409 -0.4863
 6057TIP3    H142366   6.014   2.253   0.545  0.4747  1.8054 -0.0292
 6057TIP3    H242367   5.973   2.381   0.475  0.1750  0.3563 -2.6170
 6058TIP3   OH242368   2.877   3.008   1.357  0.6029  0.2247  0.0611
 6058TIP3    H142369   2.917   2.923   1.336  2.1478  0.8916  0.1143
 6058TIP3    H242370   2.847   2.998   1.447  0.8111 -0.2522  0.0829
 6059TIP3   OH242371   4.304   0.962   1.510  0.2960 -0.1813  0.2326
 6059TIP3    H142372   4.329   1.053   1.530  0.2750  0.4532 -2.3094
 6059TIP3    H242373   4.382   0.911   1.531  1.0492  0.7365 -0.2515
 6060TIP3   OH242374   5.146   5.612   0.792  0.3967  0.3439  0.4837
 6060TIP3    H142375   5.197   5.590   0.714 -1.5021 -2.4037 -0.1421
 6060TIP3    H242376   5.137   5.529   0.838 -1.4916  1.2049  1.7863
 6061TIP3   OH242377   4.145   3.026   1.312 -0.2933  0.2461 -0.5427
 6061TIP3    H142378   4.205   3.037   1.238 -0.3130  0.5811 -0.5108
 6061TIP3    H242379   4.061   3.003   1.272  0.1991 -1.7913 -0.5241
 6062TIP3   OH242380   0.337   6.593   1.062  0.1495 -0.3971 -0.1633
 6062TIP3    H142381   0.257   6.625   1.020 -0.0497 -0.3866  0.2214
 6062TIP3    H242382   0.307   6.548   1.140  0.5865  0.6263  0.6274
 6063TIP3   OH242383   7.146   2.335   2.869 -0.2020 -0.1797 -0.4335
 6063TIP3    H142384   7.092   2.306   2.942  0.7782  0.6678  0.6655
 6063TIP3    H242385   7.144   2.431   2.874  1.9691 -0.1093  0.1264
 6064TIP3   OH242386   5.712   0.896   1.684 -0.1260 -0.2356  0.0820
 6064TIP3    H142387   5.781   0.962   1.673 -0.6326  0.1511 -0.9853
 6064TIP3    H242388   5.649   0.937   1.744 -1.0648  0.8344 -1.5363
 6065TIP3   OH242389   3.463   3.274   3.186  0.4621 -0.3451 -0.1454
 6065TIP3    H142390   3.531   3.240   3.244  0.7219  0.6283  0.1302
 6065TIP3    H242391   3.417   3.340   3.238  1.1475  1.0588 -1.2632
 6066TIP3   OH242392   2.970   4.450   2.514  0.3055  0.1760 -0.1171
 6066TIP3    H142393   2.985   4.525   2.572 -2.5133 -0.0716  1.0690
 6066TIP3    H242394   2.878   4.457   2.488  0.8808 -0.9925 -2.8307
 6067TIP3   OH242395   4.460   2.778   3.139  0.5430 -0.0268  0.3780
 6067TIP3    H142396   4.506   2.829   3.205  0.0418 -0.7304  1.2907
 6067TIP3    H242397   4.418   2.707   3.188  0.4110 -0.7397 -0.7319
 6068TIP3   OH242398   1.976   4.449   1.476 -0.2893 -0.3738 -0.1547
 6068TIP3    H142399   1.953   4.471   1.386  0.3208  0.4683 -0.1154
 6068TIP3    H242400   2.050   4.389   1.468  0.1314  0.1525 -0.2023
 6069TIP3   OH242401   5.409   5.699   1.643 -0.4227  0.1063 -0.0659
 6069TIP3    H142402   5.479   5.644   1.678 -0.5583 -2.0224 -2.8407
 6069TIP3    H242403   5.329   5.663   1.682 -0.2761  0.2670  0.3921
 6070TIP3   OH242404   3.938   6.375   0.938  0.0686 -0.3653  0.5688
 6070TIP3    H142405   3.949   6.383   1.033 -1.5248 -1.4009  0.8763
 6070TIP3    H242406   3.954   6.282   0.920 -1.0230 -0.4607  0.0332
 6071TIP3   OH242407   2.153   6.608   1.148 -0.3221  0.3634  0.0351
 6071TIP3    H142408   2.246   6.592   1.136  0.0715  1.2799  1.5425
 6071TIP3    H242409   2.142   6.702   1.129 -0.9089  0.2912  0.0006
 6072TIP3   OH242410   4.768   7.679   0.799  0.8133  0.0699  0.1658
 6072TIP3    H142411   4.844   7.723   0.761  0.8126  0.0159  0.1018
 6072TIP3    H242412   4.752   7.604   0.742  0.4851  0.2903 -0.0373
 6073TIP3   OH242413   2.800   5.277   0.707  0.3594 -0.2297  0.0958
 6073TIP3    H142414   2.727   5.338   0.717  0.0691 -0.2071 -1.7961
 6073TIP3    H242415   2.806   5.232   0.792 -0.6803  1.0275  0.8668
 6074TIP3   OH242416   4.374   6.218   1.991 -0.0015  0.3197  0.2190
 6074TIP3    H142417   4.409   6.246   1.906  0.6022 -0.0477  0.3406
 6074TIP3    H242418   4.345   6.128   1.976  0.0051  0.2912  0.3807
 6075TIP3   OH242419   7.593   1.378   1.514 -0.1600  0.0560 -0.0639
 6075TIP3    H142420   7.562   1.344   1.430  0.0025  0.2371 -0.1991
 6075TIP3    H242421   7.516   1.375   1.571 -0.4721  0.6322 -0.4386
 6076TIP3   OH242422   7.153   0.432   2.962 -0.1002 -0.0714 -0.1870
 6076TIP3    H142423   7.211   0.357   2.977  1.0607  0.5965 -1.1832
 6076TIP3    H242424   7.076   0.413   3.015  0.6406 -1.4283  0.4638
 6077TIP3   OH242425   5.724   4.293   3.301 -0.6010  0.0387  0.5445
 6077TIP3    H142426   5.640   4.301   3.255 -0.4940 -0.2828  0.2844
 6077TIP3    H242427   5.751   4.203   3.284  0.5097  0.5742 -0.6114
 6078TIP3   OH242428   3.241   0.417   0.927  0.2300 -0.5999  0.2330
 6078TIP3    H142429   3.187   0.414   0.849 -0.3985 -1.7416  0.6749
 6078TIP3    H242430   3.322   0.372   0.902  0.8964  0.8954 -0.3577
 6079TIP3   OH242431   7.510   3.688   2.417 -0.1233  0.8225 -0.2021
 6079TIP3    H142432   7.492   3.775   2.452 -0.9740  0.3900  0.4709
 6079TIP3    H242433   7.513   3.631   2.494  2.8765  0.6112 -0.3786
 6080TIP3   OH242434   1.185   0.833   1.609 -0.0142  0.0796 -0.5699
 6080TIP3    H142435   1.096   0.799   1.601 -0.4717  0.6548  1.4112
 6080TIP3    H242436   1.199   0.884   1.529 -1.7287  0.5387 -0.6113
 6081TIP3   OH242437   0.411   3.856   2.575  0.5795  0.4976 -0.0600
 6081TIP3    H142438   0.487   3.861   2.632  0.4984 -0.0286  0.1079
 6081TIP3    H242439   0.446   3.868   2.486  1.0085 -0.6807 -0.0722
 6082TIP3   OH242440   4.583   5.987   0.773 -0.4496 -0.0014  0.1749
 6082TIP3    H142441   4.526   6.030   0.837 -0.3151 -1.3898  1.2729
 6082TIP3    H242442   4.535   5.909   0.747 -0.5674  0.6225 -1.5854
 6083TIP3   OH242443   4.915   2.304   2.442  0.3940 -0.1357 -1.0672
 6083TIP3    H142444   4.956   2.219   2.458  2.1477  0.6264 -1.1911
 6083TIP3    H242445   4.943   2.329   2.354 -1.0125  0.0948 -1.4693
 6084TIP3   OH242446   4.402   3.169   1.694 -0.1551 -0.2101 -0.1665
 6084TIP3    H142447   4.447   3.148   1.776 -3.0909 -2.0199  1.1589
 6084TIP3    H242448   4.457   3.132   1.625  0.6970 -1.7666  1.2821
 6085TIP3   OH242449   7.469   5.142   1.627 -0.5336  0.3677  0.3438
 6085TIP3    H142450   7.522   5.063   1.612 -1.2177  0.1222 -0.9572
 6085TIP3    H242451   7.379   5.113   1.611 -0.6978  1.6661 -1.3862
 6086TIP3   OH242452   5.874   7.206   2.591 -0.0304 -0.1191 -0.1643
 6086TIP3    H142453   5.781   7.227   2.594 -0.1456 -0.5769 -0.3620
 6086TIP3    H242454   5.877   7.111   2.603  0.3612 -0.2066 -0.9114
 6087TIP3   OH242455   0.920   4.915   2.734  0.2522 -0.1192  0.0234
 6087TIP3    H142456   0.906   4.841   2.674  0.0623  0.4250 -0.6207
 6087TIP3    H242457   0.852   4.977   2.711  2.0543  1.4641 -1.3922
 6088TIP3   OH242458   1.863   5.814   2.073 -0.3381  0.0306  0.3451
 6088TIP3    H142459   1.916   5.751   2.024 -1.3097 -0.5185 -0.0430
 6088TIP3    H242460   1.921   5.848   2.140  1.3393  1.4789 -1.7058
 6089TIP3   OH242461   1.219   6.835   1.073  0.1827 -0.7898 -0.0028
 6089TIP3    H142462   1.218   6.756   1.127  0.0040 -1.2973 -0.7315
 6089TIP3    H242463   1.172   6.900   1.125 -0.7944 -1.5324  0.0860
 6090TIP3   OH242464   2.735   0.467   0.681 -0.4951  0.1750 -0.6701
 6090TIP3    H142465   2.782   0.519   0.616 -1.6490  0.6228 -1.1725
 6090TIP3    H242466   2.803   0.417   0.726  0.6296  1.9314 -0.3303
 6091TIP3   OH242467   5.069   6.125   2.588 -0.1507  0.0590  0.4055
 6091TIP3    H142468   5.028   6.153   2.670 -0.3010  0.4092  0.2097
 6091TIP3    H242469   5.095   6.034   2.604 -0.2217  0.1130  0.8257
 6092TIP3   OH242470   6.092   1.513   1.306  0.4219 -0.3736  0.5897
 6092TIP3    H142471   6.168   1.463   1.275 -0.5332 -2.3942  1.3392
 6092TIP3    H242472   6.019   1.483   1.251 -0.5418 -1.3007  2.2668
 6093TIP3   OH242473   7.471   1.291   2.171 -0.3849 -0.1263  0.1641
 6093TIP3    H142474   7.530   1.234   2.220 -1.2634 -0.8176  0.4540
 6093TIP3    H242475   7.385   1.278   2.213 -1.0747 -0.4058 -1.2615
 6094TIP3   OH242476   7.674   3.832   0.461  0.5057 -0.0730 -0.3728
 6094TIP3    H142477   7.688   3.750   0.508 -1.2923  0.1938  0.7055
 6094TIP3    H242478   7.664   3.806   0.370  0.8496 -0.9476 -0.1723
 6095TIP3   OH242479   0.861   4.169   2.027 -0.2037 -0.3341  1.1248
 6095TIP3    H142480   0.774   4.129   2.026 -1.7467  2.6332 -1.0187
 6095TIP3    H242481   0.857   4.233   2.099 -0.2202  0.5050  0.3995
 6096TIP3   OH242482   1.031   2.817   1.492 -0.0067 -0.0367 -0.0613
 6096TIP3    H142483   0.966   2.810   1.422  0.1229  1.4859 -0.3678
 6096TIP3    H242484   0.980   2.829   1.572 -0.1214 -0.5322 -0.0535
 6097TIP3   OH242485   4.837   7.051   1.023  0.0486 -0.0835  0.0218
 6097TIP3    H142486   4.860   6.972   0.975 -1.3003  0.3310 -1.4149
 6097TIP3    H242487   4.881   7.122   0.974 -0.0951  0.2127  0.3176
 6098TIP3   OH242488   4.336   3.140   2.053 -0.0744 -0.1927 -1.0210
 6098TIP3    H142489   4.346   3.128   2.148 -1.0131 -1.3326 -1.0282
 6098TIP3    H242490   4.286   3.221   2.044  0.3463  0.1223 -0.5611
 6099TIP3   OH242491   0.391   0.518   1.476 -0.1302 -0.4002  0.4353
 6099TIP3    H142492   0.423   0.435   1.511 -1.0269 -2.6171 -3.4232
 6099TIP3    H242493   0.303   0.527   1.512  0.0873 -0.9453  1.1275
 6100TIP3   OH242494   3.113   3.535   1.189 -0.0847 -0.0987  0.5805
 6100TIP3    H142495   3.099   3.617   1.143 -0.8034 -0.7341 -0.3891
 6100TIP3    H242496   3.069   3.547   1.273  2.9223  1.7898  2.0164
 6101TIP3   OH242497   1.577   6.098   2.175 -0.1400  0.1352 -0.2796
 6101TIP3    H142498   1.628   6.066   2.249 -2.1442  0.3055  1.2573
 6101TIP3    H242499   1.567   6.021   2.118 -2.0718 -1.2420  1.7304
 6102TIP3   OH242500   3.251   5.217   2.578 -0.4763  0.2548  0.3289
 6102TIP3    H142501   3.186   5.183   2.517  0.2462 -0.4093 -0.0876
 6102TIP3    H242502   3.256   5.151   2.648  1.1012 -0.6788 -0.5987
 6103TIP3   OH242503   5.757   1.067   0.899  0.2775 -0.2036  0.5871
 6103TIP3    H142504   5.797   1.145   0.939 -0.8661  0.1628  1.0432
 6103TIP3    H242505   5.728   1.097   0.813 -1.1735  0.2162  1.1889
 6104TIP3   OH242506   7.474   2.636   2.351 -0.2511 -0.1869 -0.1625
 6104TIP3    H142507   7.426   2.598   2.424 -0.7977 -2.0314 -1.4159
 6104TIP3    H242508   7.406   2.663   2.289  0.2288  0.4822 -0.4099
 6105TIP3   OH242509   7.108   3.241   1.887  0.5173  0.0255 -0.1420
 6105TIP3    H142510   7.076   3.240   1.977 -1.4704  3.5997 -0.6049
 6105TIP3    H242511   7.203   3.244   1.895  0.4094 -0.5613  1.7748
 6106TIP3   OH242512   0.387   1.898   1.700  0.6967 -0.2310 -0.5261
 6106TIP3    H142513   0.464   1.923   1.751 -0.1128  2.0323 -0.3378
 6106TIP3    H242514   0.415   1.909   1.609 -0.0164  3.0046 -0.4791
 6107TIP3   OH242515   1.910   6.457   2.745  0.4222  0.1634  0.1417
 6107TIP3    H142516   1.996   6.484   2.712 -0.0732 -0.2061 -1.5934
 6107TIP3    H242517   1.862   6.539   2.757  0.4467  0.2928 -0.5986
 6108TIP3   OH242518   6.899   0.139   2.496 -0.1346  0.3563 -0.1580
 6108TIP3    H142519   6.851   0.166   2.417  2.5512  1.1339 -1.6393
 6108TIP3    H242520   6.882   0.208   2.560 -0.2840  1.0571 -0.9432
 6109TIP3   OH242521   0.603   5.837   2.622  0.6917 -0.6347 -0.8164
 6109TIP3    H142522   0.690   5.866   2.647 -0.0744  0.7271  0.4072
 6109TIP3    H242523   0.560   5.915   2.586 -0.1483 -1.1803 -1.0359
 6110TIP3   OH242524   2.103   0.315   2.635  0.8306 -0.0088  0.1221
 6110TIP3    H142525   2.112   0.344   2.545  0.3545 -1.6913 -0.5031
 6110TIP3    H242526   2.176   0.254   2.649  0.4105 -0.4241  0.5813
 6111TIP3   OH242527   7.660   4.808   2.368 -0.5187  0.6029 -0.0048
 6111TIP3    H142528   7.718   4.874   2.408  0.2715  0.0527 -0.2070
 6111TIP3    H242529   7.583   4.857   2.340 -0.5429  1.2131  1.0580
 6112TIP3   OH242530   2.769   7.113   1.810  0.2404 -0.8090 -0.1279
 6112TIP3    H142531   2.679   7.097   1.783 -0.3418  1.1829  0.4469
 6112TIP3    H242532   2.764   7.128   1.904  0.7866  1.5507 -0.4139
 6113TIP3   OH242533   7.246   3.054   2.251  0.0193  0.1621 -0.1547
 6113TIP3    H142534   7.234   2.990   2.322  1.0510 -0.3717 -0.4317
 6113TIP3    H242535   7.278   3.001   2.177 -0.3935  0.8096 -0.8050
 6114TIP3   OH242536   6.893   7.050   1.598  0.3542  0.0871  0.1879
 6114TIP3    H142537   6.837   7.128   1.604  0.2256 -0.0616  1.0553
 6114TIP3    H242538   6.849   6.984   1.652  0.1618 -0.7870 -1.0124
 6115TIP3   OH242539   3.511   3.563   1.425  0.6141 -0.5153 -0.7868
 6115TIP3    H142540   3.595   3.535   1.459 -0.1537  0.1362  1.8506
 6115TIP3    H242541   3.461   3.482   1.414  0.3723 -0.6770  1.2083
 6116TIP3   OH242542   3.295   4.599   1.483 -0.0083  0.6149  0.2715
 6116TIP3    H142543   3.208   4.578   1.450  0.1945  1.5193 -0.9050
 6116TIP3    H242544   3.282   4.619   1.575 -0.9301  0.0423  0.2723
 6117TIP3   OH242545   4.506   6.934   2.018  0.3273 -0.1091 -0.4105
 6117TIP3    H142546   4.453   6.854   2.023  0.1461 -0.0138 -0.8316
 6117TIP3    H242547   4.549   6.930   1.933  1.6462 -0.5883  0.2528
 6118TIP3   OH242548   3.078   2.112   2.246 -0.7302  0.5833  0.3190
 6118TIP3    H142549   3.021   2.101   2.322  0.3503 -0.3458  1.0382
 6118TIP3    H242550   3.065   2.032   2.194 -0.6958  0.7425  0.0642
 6119TIP3   OH242551   3.099   2.853   1.728 -0.9165 -0.2661  0.0852
 6119TIP3    H142552   3.055   2.914   1.788 -0.9323  0.7255 -0.8923
 6119TIP3    H242553   3.073   2.883   1.641 -2.2925 -2.7334 -0.4184
 6120TIP3   OH242554   3.670   5.079   1.150 -0.4584  0.2612  0.1331
 6120TIP3    H142555   3.601   5.013   1.142  0.4481 -0.5823 -1.1159
 6120TIP3    H242556   3.752   5.030   1.143  0.3287  1.1567  2.1830
 6121TIP3   OH242557   5.442   0.933   1.854  0.0628  0.0662 -0.1941
 6121TIP3    H142558   5.430   1.017   1.808 -1.2872  0.8891  1.5409
 6121TIP3    H242559   5.465   0.958   1.943 -0.9066 -1.3726  0.4932
 6122TIP3   OH242560   2.616   5.917   2.934  0.8240  0.2758 -0.6865
 6122TIP3    H142561   2.579   5.998   2.970  1.1911 -0.1325  0.6867
 6122TIP3    H242562   2.711   5.932   2.935  1.0204 -0.7515  1.1967
 6123TIP3   OH242563   0.404   0.779   2.967  0.0898 -0.2605  0.0926
 6123TIP3    H142564   0.495   0.797   2.943 -0.0078  0.5143  0.2803
 6123TIP3    H242565   0.400   0.797   3.060 -0.1933 -0.5604  0.1379
 6124TIP3   OH242566   5.947   0.434   2.856  0.0270 -0.0133 -0.3380
 6124TIP3    H142567   5.920   0.364   2.798  1.6460 -0.2908 -0.8051
 6124TIP3    H242568   5.872   0.494   2.858 -1.4131 -1.7212  0.1110
 6125TIP3   OH242569   1.550   2.490   2.217  0.4673 -0.5259  0.1260
 6125TIP3    H142570   1.551   2.507   2.311  0.3363 -0.4350  0.1120
 6125TIP3    H242571   1.642   2.500   2.190  0.5159 -0.6179  0.2540
 6126TIP3   OH242572   3.629   1.648   1.808 -0.5212  0.1515 -0.2527
 6126TIP3    H142573   3.593   1.721   1.858 -2.0236  1.3581 -2.9175
 6126TIP3    H242574   3.619   1.673   1.717  2.3699 -1.8012 -1.2761
 6127TIP3   OH242575   2.707   4.858   1.327 -0.1545  0.0001  0.2242
 6127TIP3    H142576   2.661   4.774   1.327  1.1770 -0.7497  0.1148
 6127TIP3    H242577   2.651   4.915   1.379 -0.3683 -1.3612  1.5604
 6128TIP3   OH242578   5.842   2.489   1.350 -0.0735  0.0419  0.2011
 6128TIP3    H142579   5.928   2.476   1.391  1.3889 -1.0972 -2.9551
 6128TIP3    H242580   5.794   2.409   1.370 -0.4315  0.6172  1.8448
 6129TIP3   OH242581   1.925   2.294   0.521 -0.3445  0.2104  0.1259
 6129TIP3    H142582   1.893   2.382   0.541  2.2060  1.1630  0.3189
 6129TIP3    H242583   1.886   2.239   0.589 -2.5584  0.9805 -0.4095
 6130TIP3   OH242584   6.214   5.882   0.918  0.4577 -0.6890  0.2962
 6130TIP3    H142585   6.159   5.951   0.880 -1.8883 -1.7807  1.4644
 6130TIP3    H242586   6.238   5.915   1.004 -0.7674 -1.2951  0.9053
 6131TIP3   OH242587   3.224   4.235   0.814  0.4104 -0.4529  0.3357
 6131TIP3    H142588   3.253   4.277   0.895 -1.9733  1.0384  0.5277
 6131TIP3    H242589   3.146   4.185   0.839 -0.1239 -0.3089 -0.9353
 6132TIP3   OH242590   4.788   3.225   0.581 -0.1847 -0.5126  0.0155
 6132TIP3    H142591   4.742   3.299   0.622  0.7029 -0.5973  1.2036
 6132TIP3    H242592   4.743   3.213   0.497 -0.1936  1.5505 -0.3418
 6133TIP3   OH242593   5.631   2.305   2.041  0.0177 -0.3277 -0.2053
 6133TIP3    H142594   5.590   2.239   2.097  0.2454 -0.8331 -0.6337
 6133TIP3    H242595   5.689   2.353   2.101 -1.0302  0.2611  0.3594
 6134TIP3   OH242596   6.025   0.792   3.020  0.5889  0.2525  0.2161
 6134TIP3    H142597   5.950   0.845   2.993  0.7864  0.8532  0.8272
 6134TIP3    H242598   6.087   0.799   2.948  1.2129  2.0389  0.8577
 6135TIP3   OH242599   5.279   5.286   2.932 -0.3919 -0.2179  0.5430
 6135TIP3    H142600   5.316   5.234   3.003 -0.5519  0.0233  0.8031
 6135TIP3    H242601   5.304   5.239   2.852 -1.0530 -1.0155  0.8020
 6136TIP3   OH242602   1.939   3.539   3.132  0.3453  0.0385  0.5570
 6136TIP3    H142603   1.989   3.492   3.066 -0.2342  0.4753 -0.2059
 6136TIP3    H242604   1.852   3.500   3.129  0.1234  0.5292  0.5799
 6137TIP3   OH242605   5.490   6.831   0.851 -0.3002  0.0889 -0.2119
 6137TIP3    H142606   5.435   6.909   0.843  2.5624  2.3438  0.5364
 6137TIP3    H242607   5.445   6.765   0.797 -2.1593  2.6438 -2.0560
 6138TIP3   OH242608   4.862   1.088   1.679  0.3936  0.4602 -0.1381
 6138TIP3    H142609   4.928   1.090   1.748  2.8592  2.1261 -2.3748
 6138TIP3    H242610   4.816   1.172   1.687  0.7939  0.7268 -0.5961
 6139TIP3   OH242611   2.606   4.033   3.256  0.5219 -0.6855 -0.3495
 6139TIP3    H142612   2.661   4.020   3.333 -0.2419  3.7490  1.2679
 6139TIP3    H242613   2.662   4.081   3.195  0.4617 -2.2838 -1.7134
 6140TIP3   OH242614   0.404   6.828   1.736 -0.4481 -0.0509 -0.0870
 6140TIP3    H142615   0.354   6.801   1.660 -2.2413 -2.9830  1.9176
 6140TIP3    H242616   0.353   6.899   1.775  0.5054  1.4989 -1.5046
 6141TIP3   OH242617   6.219   5.503   1.811  0.0812 -0.7661 -0.4108
 6141TIP3    H142618   6.232   5.460   1.727  1.6769 -0.3793 -0.3961
 6141TIP3    H242619   6.282   5.575   1.811 -0.4116 -0.3137  0.8105
 6142TIP3   OH242620   3.169   2.347   1.144  0.4902  0.2620  0.1856
 6142TIP3    H142621   3.243   2.288   1.126  0.9481  0.7365  0.4742
 6142TIP3    H242622   3.144   2.380   1.058  1.7119  1.3819  0.2191
 6143TIP3   OH242623   0.495   6.869   2.526  0.0269  0.2427  0.2114
 6143TIP3    H142624   0.577   6.909   2.497  0.0720 -0.2922 -0.4243
 6143TIP3    H242625   0.523   6.792   2.576 -0.0855  0.0424 -0.0332
 6144TIP3   OH242626   4.219   2.092   4.021  0.4054  0.0443  0.0907
 6144TIP3    H142627   4.205   2.058   3.933  1.8000  1.3104 -0.6599
 6144TIP3    H242628   4.208   2.016   4.078 -0.2683 -0.8472 -1.1936
 6145TIP3   OH242629   5.549   3.384   2.639  0.1084 -0.4947 -0.6844
 6145TIP3    H142630   5.604   3.428   2.704  0.6187 -2.9123  0.6370
 6145TIP3    H242631   5.598   3.391   2.558  1.0385 -0.2262 -0.1172
 6146TIP3   OH242632   5.160   5.356   2.003  0.0425 -0.5085  0.2760
 6146TIP3    H142633   5.202   5.290   2.059  2.4462 -1.8643 -2.8294
 6146TIP3    H242634   5.231   5.412   1.974 -1.1763  0.4248 -1.0453
 6147TIP3   OH242635   2.978   7.067   3.374 -0.5411  0.4351 -0.6194
 6147TIP3    H142636   2.957   7.159   3.364  0.5250  0.6282 -1.1878
 6147TIP3    H242637   3.047   7.065   3.440 -1.2342 -0.0469  0.1012
 6148TIP3   OH242638   7.627   1.558   3.263 -0.7497  0.1596 -0.0058
 6148TIP3    H142639   7.698   1.529   3.319 -1.2215 -0.3895  0.3188
 6148TIP3    H242640   7.655   1.535   3.174  0.0516  1.1456 -0.0173
 6149TIP3   OH242641   1.447   7.110   1.374  0.7064 -0.0654  0.1092
 6149TIP3    H142642   1.533   7.132   1.408  0.2751  0.6920  0.7203
 6149TIP3    H242643   1.417   7.038   1.429  1.0545 -0.5224 -0.2848
 6150TIP3   OH242644   1.256   0.214   1.240 -0.2342 -0.2477  0.4721
 6150TIP3    H142645   1.300   0.158   1.304  0.1825 -0.5820 -0.1070
 6150TIP3    H242646   1.252   0.300   1.283  0.4112 -0.3703  0.7815
 6151TIP3   OH242647   6.806   2.869   3.428  0.1490 -0.0740  0.0029
 6151TIP3    H142648   6.888   2.916   3.446 -0.2253  0.3035  0.7458
 6151TIP3    H242649   6.749   2.933   3.387 -0.4023  0.1775  1.1212
 6152TIP3   OH242650   1.075   0.130   1.073  0.1773  0.4475  0.1532
 6152TIP3    H142651   1.027   0.109   1.154 -1.0164  3.1078  0.2258
 6152TIP3    H242652   1.160   0.161   1.103  0.8462 -1.2986  0.1811
 6153TIP3   OH242653   0.903   5.703   2.545 -0.2183 -0.0834 -0.7774
 6153TIP3    H142654   0.874   5.782   2.592  0.1751  0.3877 -1.3033
 6153TIP3    H242655   0.969   5.736   2.483  0.3922 -0.9217 -0.5800
 6154TIP3   OH242656   2.308   1.343   1.046  0.1806 -0.0396 -0.1892
 6154TIP3    H142657   2.213   1.339   1.045  0.0991  1.3598 -0.1171
 6154TIP3    H242658   2.337   1.258   1.013 -1.0763 -1.0099  1.1063
 6155TIP3   OH242659   2.937   4.395   0.902 -0.0606 -0.9646  0.0640
 6155TIP3    H142660   2.977   4.426   0.983  0.1282 -0.9294 -0.0422
 6155TIP3    H242661   2.866   4.457   0.885  1.1220  0.1847 -0.8370
 6156TIP3   OH242662   4.305   4.088   0.656  0.0468 -0.2325 -0.2237
 6156TIP3    H142663   4.298   4.091   0.751  0.1049  1.0969 -0.2460
 6156TIP3    H242664   4.237   4.147   0.624  0.5049 -0.0977 -0.9832
 6157TIP3   OH242665   5.033   6.545   1.368  0.6145 -0.3121  0.0214
 6157TIP3    H142666   4.951   6.583   1.401  0.0286 -0.6596 -1.0131
 6157TIP3    H242667   5.086   6.621   1.345  0.4033 -0.0909  0.2525
 6158TIP3   OH242668   1.005   5.979   1.844  0.0325 -0.5351 -0.2675
 6158TIP3    H142669   1.002   6.073   1.828 -1.3598 -0.2499  1.3820
 6158TIP3    H242670   0.916   5.949   1.828 -0.2393 -1.0434  1.8492
 6159TIP3   OH242671   3.617   1.032   1.954  0.1069  0.3661 -0.1432
 6159TIP3    H142672   3.658   1.103   1.905  2.5379 -1.0081 -0.2564
 6159TIP3    H242673   3.616   0.958   1.894 -1.4895 -0.0043  0.2888
 6160TIP3   OH242674   1.742   3.527   1.149 -0.7895 -0.3980  0.3739
 6160TIP3    H142675   1.734   3.614   1.187  1.5167 -0.6942  1.7310
 6160TIP3    H242676   1.754   3.542   1.055 -1.7282  0.6290  0.3979
 6161TIP3   OH242677   4.953   0.752   1.245  0.3372  0.7935 -0.5977
 6161TIP3    H142678   4.955   0.661   1.274 -1.6330  0.8812 -0.0500
 6161TIP3    H242679   4.988   0.801   1.320 -1.0639  0.6764  0.1727
 6162TIP3   OH242680   3.507   4.211   1.726 -0.8593 -0.5671  0.0121
 6162TIP3    H142681   3.582   4.270   1.717  0.1553 -2.0417 -2.3101
 6162TIP3    H242682   3.487   4.212   1.819  0.4714  1.7373  0.3659
 6163TIP3   OH242683   5.394   3.437   1.736 -0.1844  0.2833 -0.1640
 6163TIP3    H142684   5.317   3.380   1.737 -0.4588  0.6091 -1.1321
 6163TIP3    H242685   5.360   3.522   1.707  0.0832  1.1824  1.9493
 6164TIP3   OH242686   6.169   1.161   0.627 -0.0004 -0.0242  0.0974
 6164TIP3    H142687   6.108   1.218   0.674  0.2147  0.5662 -0.3303
 6164TIP3    H242688   6.249   1.214   0.619  0.3185 -0.5182  0.0036
 6165TIP3   OH242689   1.395   2.796   2.357  0.2241  0.3037  0.1017
 6165TIP3    H142690   1.304   2.823   2.369  0.6337  1.2759  1.2498
 6165TIP3    H242691   1.392   2.701   2.361 -0.7308  0.3300  0.2835
 6166TIP3   OH242692   5.588   6.971   2.821 -0.2583 -0.2555  0.4754
 6166TIP3    H142693   5.571   6.902   2.885  1.2059 -0.1940  0.9573
 6166TIP3    H242694   5.514   7.031   2.830 -0.0990 -0.2690  2.1085
 6167TIP3   OH242695   7.276   1.805   1.159 -0.2742 -0.2089 -0.1100
 6167TIP3    H142696   7.323   1.736   1.206 -1.0846 -0.8228 -0.1711
 6167TIP3    H242697   7.192   1.811   1.203 -0.5338  0.1511 -0.6371
 6168TIP3   OH242698   0.208   0.688   2.537  0.0415 -0.0132  0.8158
 6168TIP3    H142699   0.235   0.599   2.512 -0.7878 -0.4980  1.5808
 6168TIP3    H242700   0.112   0.687   2.528  0.0354  0.8537  0.6914
 6169TIP3   OH242701   7.143   3.968   9.395 -0.3860 -0.4349  0.2329
 6169TIP3    H142702   7.183   4.032   9.336  0.6937 -1.3846 -0.0836
 6169TIP3    H242703   7.158   4.004   9.482 -3.0562  1.6096  0.0057
 6170TIP3   OH242704   6.783   3.379   1.843  0.0509  0.2791 -0.1750
 6170TIP3    H142705   6.852   3.348   1.784  1.3071  1.4112  0.6337
 6170TIP3    H242706   6.724   3.430   1.788  1.2734  1.4283 -0.4664
 6171TIP3   OH242707   5.079   5.956   2.062 -0.1818  0.4469  0.3394
 6171TIP3    H142708   4.992   5.987   2.088  0.6101  2.9726  0.2029
 6171TIP3    H242709   5.106   6.016   1.992  0.7003 -1.8093 -1.3785
 6172TIP3   OH242710   2.268   4.727   3.547 -0.0427  0.0817 -0.1677
 6172TIP3    H142711   2.342   4.786   3.563  0.6249 -0.9689  0.7310
 6172TIP3    H242712   2.270   4.712   3.453  0.6721  0.3437 -0.1996
 6173TIP3   OH242713   5.393   2.573   3.249  0.4590 -0.1641  0.1405
 6173TIP3    H142714   5.338   2.606   3.320  1.1543  0.5799  0.3492
 6173TIP3    H242715   5.340   2.506   3.207 -0.0077 -0.5577  1.3076
 6174TIP3   OH242716   7.539   7.147   0.681  0.0274 -0.1676 -0.1288
 6174TIP3    H142717   7.586   7.069   0.651  0.8510  0.0264  0.6011
 6174TIP3    H242718   7.576   7.219   0.630 -0.5177 -0.2100 -0.5882
 6175TIP3   OH242719   7.087   0.446   2.218 -0.4292  0.5819  0.2480
 6175TIP3    H142720   6.996   0.477   2.214 -0.2820  0.9219 -0.6529
 6175TIP3    H242721   7.084   0.372   2.280 -1.7254 -0.7681 -1.3216
 6176TIP3   OH242722   1.846   3.893   2.380 -0.3050  0.2509  0.1434
 6176TIP3    H142723   1.852   3.941   2.298 -0.3842  2.6820  1.4731
 6176TIP3    H242724   1.910   3.822   2.371  0.3364  1.0101 -1.6512
 6177TIP3   OH242725   6.298   2.471   1.094 -0.0531 -0.2333  0.4301
 6177TIP3    H142726   6.302   2.409   1.167  1.4450  1.2734  1.7079
 6177TIP3    H242727   6.279   2.416   1.018  0.3558 -2.1453  1.6226
 6178TIP3   OH242728   0.717   0.610   2.441 -0.2098  0.5993 -0.3452
 6178TIP3    H142729   0.805   0.645   2.427 -0.2138  0.6337 -0.2854
 6178TIP3    H242730   0.719   0.575   2.531 -0.2737  0.6494 -0.3242
 6179TIP3   OH242731   7.407   3.930   0.938  0.2520  0.0350 -0.3151
 6179TIP3    H142732   7.312   3.923   0.949  0.0813  1.0838 -0.9396
 6179TIP3    H242733   7.437   3.974   1.018  0.3093 -0.8630  0.1693
 6180TIP3   OH242734   2.961   6.933   3.027 -0.0555 -0.5638 -0.6357
 6180TIP3    H142735   2.895   6.973   3.083  0.3558  0.8727 -1.1362
 6180TIP3    H242736   3.029   7.000   3.017  1.5791 -2.0385 -0.0093
 6181TIP3   OH242737   5.246   5.635   1.402 -0.0665 -0.2557  0.1645
 6181TIP3    H142738   5.175   5.572   1.393 -0.2097 -0.0576 -0.1032
 6181TIP3    H242739   5.308   5.592   1.461  0.2356 -1.0082 -0.6632
 6182TIP3   OH242740   2.158   4.310   1.884  0.0402 -0.4216  0.5517
 6182TIP3    H142741   2.123   4.398   1.871  2.4886  0.6415  0.6690
 6182TIP3    H242742   2.251   4.317   1.860  0.3919 -2.8815  0.9401
 6183TIP3   OH242743   0.258   6.089   0.499  0.2527  0.0588 -0.3310
 6183TIP3    H142744   0.308   6.169   0.516  1.2369 -0.4010 -0.9673
 6183TIP3    H242745   0.302   6.049   0.424  0.2003 -1.4222  0.3877
 6184TIP3   OH242746   1.612   1.017   3.560  0.2929  0.6757 -0.0810
 6184TIP3    H142747   1.519   1.012   3.584  0.5411 -0.5600  0.6793
 6184TIP3    H242748   1.631   0.932   3.520  1.3469  0.5367  0.6921
 6185TIP3   OH242749   2.886   2.583   2.573 -0.5346 -0.5374  0.6922
 6185TIP3    H142750   2.908   2.575   2.480 -0.0376 -1.3966  0.8729
 6185TIP3    H242751   2.859   2.674   2.584  0.6207 -0.0898 -0.0408
 6186TIP3   OH242752   4.092   1.546   1.214 -0.1287  0.1989  0.6631
 6186TIP3    H142753   4.083   1.641   1.212  1.3877  0.3509 -0.0527
 6186TIP3    H242754   4.142   1.528   1.294  0.8662  0.1486  0.0480
 6187TIP3   OH242755   5.071   1.351   3.222  0.1216 -0.6151  1.1242
 6187TIP3    H142756   4.983   1.374   3.250 -0.1919 -1.8901  1.2112
 6187TIP3    H242757   5.127   1.371   3.297  0.0955  1.2348  0.7009
 6188TIP3   OH242758   6.345   2.261   1.278 -0.3983 -0.6337  0.1238
 6188TIP3    H142759   6.427   2.211   1.270  0.0067 -0.1667  1.1389
 6188TIP3    H242760   6.278   2.195   1.295  0.0631 -0.8711  1.0507
 6189TIP3   OH242761   5.913   0.472   0.737 -0.5321 -0.2255 -0.5774
 6189TIP3    H142762   5.876   0.518   0.662 -1.3386  1.0353  0.5627
 6189TIP3    H242763   5.961   0.399   0.698  1.0187  1.6839 -2.4683
 6190TIP3   OH242764   3.528   3.073   3.026 -0.2661 -0.2813  0.0399
 6190TIP3    H142765   3.489   3.141   3.081  0.2390  0.7890 -0.8974
 6190TIP3    H242766   3.458   3.009   3.015 -0.2187 -0.8489  2.3735
 6191TIP3   OH242767   5.405   0.667   0.876 -0.0526  0.2731  0.1662
 6191TIP3    H142768   5.349   0.618   0.936 -2.3183  4.3926  1.8277
 6191TIP3    H242769   5.490   0.672   0.921 -0.7753  0.6382  1.5323
 6192TIP3   OH242770   2.528   0.607   2.508  0.3379  0.1545 -0.3893
 6192TIP3    H142771   2.462   0.674   2.491  0.8582  0.9631  0.5761
 6192TIP3    H242772   2.497   0.529   2.463 -2.7455 -0.3670  2.2757
 6193TIP3   OH242773   4.559   3.120   1.904 -0.1289 -0.5269  0.7872
 6193TIP3    H142774   4.628   3.074   1.952 -0.2142 -0.5443  0.8951
 6193TIP3    H242775   4.484   3.117   1.963  0.0885  0.4565  1.1435
 6194TIP3   OH242776   7.079   3.820   1.630 -0.2256  0.2522 -0.2603
 6194TIP3    H142777   7.087   3.772   1.548  0.5100 -1.0219  0.5107
 6194TIP3    H242778   7.012   3.773   1.680  1.1854 -0.6342  0.8936
 6195TIP3   OH242779   4.588   0.752   3.498 -0.6036 -0.4033 -0.4450
 6195TIP3    H142780   4.649   0.766   3.571  0.4109  2.1261 -1.6524
 6195TIP3    H242781   4.606   0.663   3.468  1.4736 -0.2613  0.1900
 6196TIP3   OH242782   2.055   7.117   1.010 -0.6933 -0.2194  0.1038
 6196TIP3    H142783   2.048   7.188   1.074  2.5343 -1.0941  1.6317
 6196TIP3    H242784   2.072   7.161   0.927 -1.9103  0.8530  0.3898
 6197TIP3   OH242785   5.977   5.602   1.140  0.3192  0.4215  0.0874
 6197TIP3    H142786   5.896   5.556   1.118  0.9130 -0.8267  0.4287
 6197TIP3    H242787   5.995   5.657   1.063 -0.2105 -0.2016 -0.4947
 6198TIP3   OH242788   5.532   2.889   2.652  0.9613  0.1046 -0.7222
 6198TIP3    H142789   5.606   2.919   2.601 -0.0372  2.1092 -1.0800
 6198TIP3    H242790   5.568   2.873   2.739  1.6712  2.0641 -0.6033
 6199TIP3   OH242791   6.678   7.206   1.643 -0.7100  0.6779 -0.4881
 6199TIP3    H142792   6.635   7.179   1.724 -1.0080  1.9290 -0.2051
 6199TIP3    H242793   6.677   7.302   1.646  0.2650  0.7412 -1.4496
 6200TIP3   OH242794   3.022   2.074   1.863  0.7051  0.5215  0.1601
 6200TIP3    H142795   2.978   2.028   1.791  0.7927 -0.2554  0.5839
 6200TIP3    H242796   2.997   2.024   1.941 -0.1025  1.8741  0.7946
 6201TIP3   OH242797   5.735   3.925   2.265  0.2669 -0.2187  0.1607
 6201TIP3    H142798   5.706   3.862   2.199 -0.9654 -0.1470  0.6104
 6201TIP3    H242799   5.662   3.985   2.276  1.1441  0.8699  0.2829
 6202TIP3   OH242800   2.988   4.922   1.978  0.5199  0.3679 -0.2312
 6202TIP3    H142801   2.989   4.982   1.904 -0.3194  1.2083  0.4186
 6202TIP3    H242802   2.895   4.908   1.996  0.7128  0.1325  0.6174
 6203TIP3   OH242803   5.787   6.381   2.864  0.2764  0.1449 -0.3496
 6203TIP3    H142804   5.701   6.360   2.900 -0.2279  2.0527 -0.3545
 6203TIP3    H242805   5.838   6.410   2.940  0.2382  1.0460 -0.6587
 6204TIP3   OH242806   6.924   6.674   2.913  0.1670 -0.5344 -0.7183
 6204TIP3    H142807   6.993   6.724   2.956 -0.1320 -2.1688  1.8466
 6204TIP3    H242808   6.969   6.604   2.866  0.3657 -0.0842 -1.2095
 6205TIP3   OH242809   2.769   1.952   1.430  0.1572 -0.0623 -0.0576
 6205TIP3    H142810   2.863   1.953   1.447  0.5132 -0.5886 -1.8611
 6205TIP3    H242811   2.730   1.977   1.514  1.9218  1.1755  0.4568
 6206TIP3   OH242812   5.992   4.793   2.425 -0.3718 -0.0005  0.3957
 6206TIP3    H142813   6.046   4.716   2.442 -1.9235 -0.8932  1.5133
 6206TIP3    H242814   6.044   4.866   2.460  1.4625 -0.3525 -1.3592
 6207TIP3   OH242815   1.543   1.654   2.326  0.1683  0.4646 -0.4016
 6207TIP3    H142816   1.533   1.577   2.382 -0.5338  0.4745 -0.5084
 6207TIP3    H242817   1.462   1.657   2.275  0.2875  1.1480 -0.5568
 6208TIP3   OH242818   6.158   2.689   1.429  0.0168  0.3270  0.3500
 6208TIP3    H142819   6.074   2.713   1.390  0.6072  0.9995 -0.5653
 6208TIP3    H242820   6.156   2.593   1.433 -0.5867  0.3120 -0.1413
 6209TIP3   OH242821   3.951   6.611   2.752 -0.0841  0.0590 -0.5804
 6209TIP3    H142822   3.908   6.552   2.690 -0.6725  0.9585 -1.0629
 6209TIP3    H242823   4.038   6.627   2.713 -0.8944  1.6169 -1.9099
 6210TIP3   OH242824   5.247   2.656   1.984  0.1144  0.0158  0.2550
 6210TIP3    H142825   5.205   2.741   1.972  1.6359  0.8110  0.3010
 6210TIP3    H242826   5.258   2.648   2.079 -0.5945 -0.5447  0.3017
 6211TIP3   OH242827   7.267   4.947   1.543 -0.2382  0.4028  0.1322
 6211TIP3    H142828   7.336   4.897   1.501  0.1513  0.8001  0.2978
 6211TIP3    H242829   7.186   4.899   1.522  0.2468 -1.0909  1.4705
 6212TIP3   OH242830   6.628   3.141   2.170 -0.3269 -0.1559 -0.4384
 6212TIP3    H142831   6.597   3.138   2.261  0.2549  0.4109 -0.2074
 6212TIP3    H242832   6.602   3.228   2.139  2.2981  0.9977  0.2702
 6213TIP3   OH242833   2.784   6.145   2.578 -0.4191  0.5953  0.5236
 6213TIP3    H142834   2.799   6.214   2.514 -0.4755 -0.1547 -0.3069
 6213TIP3    H242835   2.863   6.145   2.631  0.3006  0.1759 -0.5307
 6214TIP3   OH242836   4.515   5.552   1.692 -0.5242 -0.0077  0.2150
 6214TIP3    H142837   4.481   5.544   1.782 -2.5938  2.1487 -0.2785
 6214TIP3    H242838   4.579   5.622   1.697  0.1774 -0.6284  0.1693
 6215TIP3   OH242839   6.328   1.764   0.846 -0.1402  0.1740 -0.3249
 6215TIP3    H142840   6.295   1.796   0.929  1.4017 -0.7013  0.6730
 6215TIP3    H242841   6.269   1.693   0.822  0.2416 -0.5488  0.7928
 6216TIP3   OH242842   3.903   2.867   1.500 -0.0863 -0.4391  0.4902
 6216TIP3    H142843   3.826   2.824   1.462  0.5347 -1.9962  0.9168
 6216TIP3    H242844   3.905   2.837   1.591 -0.2170  1.3766  1.1334
 6217TIP3   OH242845   5.079   6.259   0.961  0.3163  0.4969 -0.0993
 6217TIP3    H142846   5.117   6.175   0.986  1.5230  0.7394 -1.0196
 6217TIP3    H242847   5.078   6.311   1.042  1.0929  0.1556  0.1349
 6218TIP3   OH242848   5.528   2.953   0.867 -0.1529 -0.3736  0.2540
 6218TIP3    H142849   5.452   3.007   0.844  1.2693  2.0962  1.0480
 6218TIP3    H242850   5.499   2.901   0.941 -1.6619 -0.9700 -0.7120
 6219TIP3   OH242851   2.418   0.274   1.770  0.0133  0.6577 -0.0103
 6219TIP3    H142852   2.433   0.302   1.860  2.2898 -1.7749  0.4868
 6219TIP3    H242853   2.446   0.183   1.767 -0.4979  0.4720 -3.0707
 6220TIP3   OH242854   3.864   5.709   1.509  0.4231  0.1514 -0.2203
 6220TIP3    H142855   3.868   5.631   1.454  1.0499 -0.6525  0.9378
 6220TIP3    H242856   3.890   5.679   1.596 -1.1766  1.2435  0.6941
 6221TIP3   OH242857   1.979   3.392   2.052  0.1584 -0.6580 -0.0152
 6221TIP3    H142858   2.060   3.383   2.102  0.2348 -0.5159 -0.1134
 6221TIP3    H242859   1.935   3.308   2.062 -0.6118 -0.0958  1.6537
 6222TIP3   OH242860   6.819   5.264   1.848  0.1347  0.0793  0.0450
 6222TIP3    H142861   6.869   5.252   1.929 -3.0902  0.2168  2.2385
 6222TIP3    H242862   6.812   5.176   1.811 -0.9168 -0.5545  1.6427
 6223TIP3   OH242863   5.203   1.869   3.204  0.0591  0.1003 -0.4936
 6223TIP3    H142864   5.229   1.952   3.243 -0.3516 -0.6671  1.5540
 6223TIP3    H242865   5.280   1.838   3.157  1.1952  0.2505  1.2169
 6224TIP3   OH242866   5.028   1.811   2.027  0.2314  0.2632  0.8284
 6224TIP3    H142867   5.039   1.888   1.971 -0.1202  0.2470  0.7324
 6224TIP3    H242868   4.999   1.742   1.968 -1.2310  0.5348  1.1885
 6225TIP3   OH242869   3.811   1.333   3.152  0.0335  0.1113 -0.1505
 6225TIP3    H142870   3.812   1.408   3.092  1.1618 -0.6341 -1.1172
 6225TIP3    H242871   3.761   1.266   3.105  2.0090 -0.9236 -0.8945
 6226TIP3   OH242872   6.356   0.145   2.218  0.1060  0.2781  0.7478
 6226TIP3    H142873   6.433   0.090   2.202  0.5937  0.6272  1.8081
 6226TIP3    H242874   6.335   0.182   2.133  1.1093  0.1698  0.4391
 6227TIP3   OH242875   6.503   5.155   0.757 -0.6545  0.3040 -0.2744
 6227TIP3    H142876   6.580   5.198   0.719 -0.6283 -0.6309 -1.3331
 6227TIP3    H242877   6.502   5.185   0.848  1.7310 -0.6787  0.1662
 6228TIP3   OH242878   4.186   5.075   1.000  0.1284 -0.2036  0.5848
 6228TIP3    H142879   4.229   5.025   0.931  0.0410  0.9498 -0.3297
 6228TIP3    H242880   4.093   5.050   0.993  0.1410 -0.1912  0.3759
 6229TIP3   OH242881   3.027   7.378   0.939  0.0137 -0.2330 -0.4046
 6229TIP3    H142882   3.058   7.445   1.000  1.3432  0.3820 -1.7111
 6229TIP3    H242883   3.097   7.369   0.874 -2.4405  1.2304 -3.5142
 6230TIP3   OH242884   5.445   7.336   3.619  0.5023  0.4255 -0.5611
 6230TIP3    H142885   5.354   7.343   3.649  0.6559  1.6580 -0.3394
 6230TIP3    H242886   5.452   7.248   3.583  0.5931 -1.7141  4.0379
 6231TIP3   OH242887   6.789   1.777   2.299 -0.3673 -0.3081 -0.4987
 6231TIP3    H142888   6.806   1.746   2.210  1.7093  1.7445 -0.9159
 6231TIP3    H242889   6.752   1.865   2.287  2.0845  0.9634  0.5983
 6232TIP3   OH242890   1.641   1.031   1.740 -0.3239 -0.0489 -0.4871
 6232TIP3    H142891   1.554   1.029   1.780  0.2487 -1.9620  0.8115
 6232TIP3    H242892   1.693   1.085   1.799 -0.1005 -0.7723 -0.0091
 6233TIP3   OH242893   2.368   1.547   3.243  0.2612 -0.8483 -0.0145
 6233TIP3    H142894   2.278   1.518   3.251 -0.0367 -0.2269 -0.9736
 6233TIP3    H242895   2.416   1.497   3.309 -0.7357 -1.3588  0.3298
 6234TIP3   OH242896   6.113   3.560   2.905  0.6103  0.0054 -0.3165
 6234TIP3    H142897   6.032   3.520   2.937  0.4123 -0.1889 -1.0250
 6234TIP3    H242898   6.088   3.604   2.824  1.2608 -0.2952 -0.6942
 6235TIP3   OH242899   0.868   2.413   1.250  0.1102 -0.4305 -0.2484
 6235TIP3    H142900   0.824   2.438   1.331  0.8193 -0.1312  0.0572
 6235TIP3    H242901   0.922   2.337   1.275 -0.8246 -1.3064 -0.8041
 6236TIP3   OH242902   6.611   0.735   1.012  0.1647 -0.4284 -0.3517
 6236TIP3    H142903   6.554   0.672   0.968  1.6701 -1.4367 -0.9604
 6236TIP3    H242904   6.579   0.739   1.101 -2.9251  1.5897 -1.4022
 6237TIP3   OH242905   5.452   0.105   1.442 -0.1893 -0.1116 -0.3417
 6237TIP3    H142906   5.476   0.173   1.378 -1.7632 -0.8725 -1.7943
 6237TIP3    H242907   5.377   0.142   1.488  0.3597  0.0411  0.4469
 6238TIP3   OH242908   5.555   3.368   2.049 -0.6258  0.1136 -0.2988
 6238TIP3    H142909   5.543   3.278   2.021 -1.4445  0.1102  0.0429
 6238TIP3    H242910   5.607   3.408   1.979  0.6308 -0.8667  0.0157
 6239TIP3   OH242911   0.864   5.002   1.589  0.5767 -0.4950  0.4389
 6239TIP3    H142912   0.942   5.043   1.626 -0.7251  2.0322  0.6100
 6239TIP3    H242913   0.880   5.003   1.494  1.1452 -0.8864  0.5261
 6240TIP3   OH242914   5.569   6.951   0.566 -0.0684 -0.0888 -0.3767
 6240TIP3    H142915   5.652   6.940   0.612 -0.5127 -1.2521  0.1722
 6240TIP3    H242916   5.530   6.864   0.566 -0.3400 -0.0108 -2.4993
 6241TIP3   OH242917   5.062   7.507   0.919 -0.1010 -0.5022  0.3381
 6241TIP3    H142918   5.129   7.474   0.979  0.4109  0.3858  0.2618
 6241TIP3    H242919   5.108   7.568   0.862 -0.6458 -1.0665 -0.7588
 6242TIP3   OH242920   3.497   3.605   2.572  0.8132  0.0852 -0.4760
 6242TIP3    H142921   3.450   3.609   2.488  0.0212 -0.0665 -0.0534
 6242TIP3    H242922   3.497   3.512   2.595  1.5258  0.0571 -0.5757
 6243TIP3   OH242923   5.164   4.842   2.260 -0.3267  0.7598 -0.6002
 6243TIP3    H142924   5.234   4.844   2.195 -1.6058 -1.1213 -2.1871
 6243TIP3    H242925   5.085   4.821   2.209 -2.1155  2.8611  1.0753
 6244TIP3   OH242926   4.530   2.270   3.611 -0.6244 -0.2008  0.3363
 6244TIP3    H142927   4.474   2.206   3.567  0.0599 -1.2268  0.9236
 6244TIP3    H242928   4.480   2.295   3.690 -0.6118 -0.4873  0.4339
 6245TIP3   OH242929   2.866   6.385   2.118 -0.1225 -0.0758 -0.4998
 6245TIP3    H142930   2.816   6.416   2.043  0.0197 -0.5488 -0.7945
 6245TIP3    H242931   2.955   6.417   2.102  0.5981 -2.5569 -2.0225
 6246TIP3   OH242932   2.763   2.592   1.728 -0.0382  0.0655 -0.4162
 6246TIP3    H142933   2.743   2.663   1.667 -0.8353 -0.8800 -1.2679
 6246TIP3    H242934   2.720   2.619   1.810 -0.2629  0.5941 -0.7009
 6247TIP3   OH242935   2.474   3.997   1.943  0.0169  0.0903 -0.1606
 6247TIP3    H142936   2.448   3.959   2.026  1.3072  0.4252  0.4161
 6247TIP3    H242937   2.397   3.987   1.887 -0.9619  0.1187  1.1460
 6248TIP3   OH242938   3.760   1.056   2.551  0.3714  0.3324  0.3738
 6248TIP3    H142939   3.831   1.113   2.583  0.6459  0.5066 -0.5221
 6248TIP3    H242940   3.717   1.108   2.483 -0.7567  0.3041  1.0491
 6249TIP3   OH242941   0.181   4.900   1.400 -0.0875 -0.2444 -0.2646
 6249TIP3    H142942   0.217   4.947   1.475  1.3552 -0.0138 -1.0602
 6249TIP3    H242943   0.226   4.938   1.324 -0.5407 -1.3706 -1.1223
 6250TIP3   OH242944   2.129   3.401   1.242  0.4139 -0.4486  0.0044
 6250TIP3    H142945   2.145   3.318   1.198 -0.4379 -0.4089 -0.4025
 6250TIP3    H242946   2.152   3.385   1.333  2.4518 -0.4618 -0.4562
 6251TIP3   OH242947   2.058   3.068   3.204  0.1473  0.0673  0.5765
 6251TIP3    H142948   1.977   3.091   3.157  1.1202 -0.3000 -1.4017
 6251TIP3    H242949   2.049   2.974   3.221 -0.0223  0.1132  0.7443
 6252TIP3   OH242950   1.543   2.491   1.315 -0.2930 -0.6662 -0.0954
 6252TIP3    H142951   1.620   2.525   1.269 -0.3093 -0.4060  0.0694
 6252TIP3    H242952   1.536   2.400   1.286 -0.5577 -0.3815 -0.9477
 6253TIP3   OH242953   6.742   0.151   3.587  0.5769 -0.6139 -0.3318
 6253TIP3    H142954   6.797   0.206   3.643  0.6660 -0.6442 -0.3883
 6253TIP3    H242955   6.789   0.148   3.504  0.4951 -0.6505 -0.3767
 6254TIP3   OH242956   7.221   2.002   2.713 -0.0450 -0.5207 -0.3417
 6254TIP3    H142957   7.287   2.063   2.744  1.2047 -0.5628 -2.6885
 6254TIP3    H242958   7.235   1.997   2.619 -0.2453 -4.2052 -0.3394
 6255TIP3   OH242959   4.979   1.777   3.080  0.1053  0.4877  0.3474
 6255TIP3    H142960   5.047   1.787   3.146  0.8486  1.3997 -0.5408
 6255TIP3    H242961   5.026   1.763   2.998 -0.7241  2.1628 -0.4561
 6256TIP3   OH242962   5.462   1.238   2.040 -0.2261 -0.1398  0.5510
 6256TIP3    H142963   5.536   1.179   2.050 -0.0373  0.2592  1.6286
 6256TIP3    H242964   5.403   1.216   2.112 -0.7733  0.0976  0.1863
 6257TIP3   OH242965   3.107   1.638   2.131  0.1644 -0.1140  0.0708
 6257TIP3    H142966   3.101   1.622   2.226 -0.0898 -0.7112 -0.0419
 6257TIP3    H242967   3.189   1.598   2.105  0.0470 -0.2940 -0.0261
 6258TIP3   OH242968   5.492   4.899   1.501  0.3012 -0.0529 -0.2821
 6258TIP3    H142969   5.564   4.908   1.564 -0.3805  0.3445  0.4543
 6258TIP3    H242970   5.490   4.984   1.455  0.7859 -0.3361 -0.8456
 6259TIP3   OH242971   1.591   1.717   3.206  0.4490  0.2668  0.2219
 6259TIP3    H142972   1.509   1.726   3.253  0.1023  0.3502 -0.3946
 6259TIP3    H242973   1.593   1.790   3.144  0.2766 -0.5703 -0.8167
 6260TIP3   OH242974   4.049   6.340   1.457  0.3742  0.3267 -0.7683
 6260TIP3    H142975   3.975   6.313   1.510  1.3270  0.4938  0.6963
 6260TIP3    H242976   4.046   6.436   1.458  1.1839  0.3572  0.1727
 6261TIP3   OH242977   0.036   5.429   1.480 -0.4993  0.0352  0.4412
 6261TIP3    H142978  -0.043   5.377   1.463 -1.6638  1.9045 -0.1044
 6261TIP3    H242979   0.092   5.412   1.405 -0.5891 -0.8916  0.5679
 6262TIP3   OH242980   4.744   2.992   1.710 -0.1093  0.0374  0.0517
 6262TIP3    H142981   4.665   2.997   1.763  0.0832  3.0312  0.1837
 6262TIP3    H242982   4.815   3.016   1.770  0.0165  4.5023 -1.5217
 6263TIP3   OH242983   4.934   0.770   2.053 -0.7925  0.3164  0.1860
 6263TIP3    H142984   4.852   0.819   2.049 -1.3491 -0.6208 -0.2047
 6263TIP3    H242985   4.912   0.682   2.022  0.6342  0.4006 -1.2543
 6264TIP3   OH242986   2.700   4.876   1.659 -0.0466 -0.2677 -0.3633
 6264TIP3    H142987   2.682   4.782   1.652  0.2011 -0.3253 -0.2624
 6264TIP3    H242988   2.721   4.890   1.751 -1.4473  0.1498 -0.0828
 6265TIP3   OH242989   7.287   6.729   3.341 -0.0191  0.6501  0.4150
 6265TIP3    H142990   7.238   6.663   3.391 -1.9998  1.2281 -0.6613
 6265TIP3    H242991   7.227   6.754   3.271  2.0874  0.9627 -1.3580
 6266TIP3   OH242992   5.567   0.656   2.286 -0.7309 -0.0482  0.5925
 6266TIP3    H142993   5.498   0.593   2.306 -2.6413  1.5780 -0.5610
 6266TIP3    H242994   5.546   0.687   2.198  0.8236  1.3754  0.6773
 6267TIP3   OH242995   6.352   5.935   1.149 -0.2569 -0.0145  0.5232
 6267TIP3    H142996   6.342   6.024   1.182 -0.1446 -0.0194  0.5719
 6267TIP3    H242997   6.427   5.899   1.197  0.8114  0.4501 -0.7310
 6268TIP3   OH242998   2.741   0.131   2.154  0.5683  0.1735  0.6602
 6268TIP3    H142999   2.661   0.181   2.139  1.1579  1.1464  0.6738
 6268TIP3    H243000   2.772   0.162   2.240  0.4943 -0.8368  1.0591
 6269TIP3   OH243001   4.534   2.566   2.526  0.1140  0.7139  0.0065
 6269TIP3    H143002   4.559   2.475   2.508  1.4828  1.0300  0.2293
 6269TIP3    H243003   4.617   2.613   2.532 -0.6124  2.3534 -1.9478
 6270TIP3   OH243004   6.885   6.433   1.409  0.7651 -1.0290  0.2590
 6270TIP3    H143005   6.826   6.365   1.377 -1.3178 -0.0204  1.7339
 6270TIP3    H243006   6.827   6.499   1.447  2.8265  0.4602  0.9933
 6271TIP3   OH243007   4.845   6.238   3.060  0.0745  0.0805 -0.2863
 6271TIP3    H143008   4.904   6.242   3.136 -0.6106 -0.7290  0.3109
 6271TIP3    H243009   4.764   6.202   3.095 -0.0658 -0.8797 -1.5324
 6272TIP3   OH243010   7.013   1.674   0.757  0.1924 -0.0053  0.4285
 6272TIP3    H143011   7.075   1.611   0.793  1.3824  0.0567 -1.3486
 6272TIP3    H243012   7.058   1.758   0.762  1.1145 -0.2024 -2.4697
 6273TIP3   OH243013   4.972   5.842   2.828 -0.0275 -0.1020  0.5923
 6273TIP3    H143014   5.059   5.854   2.790 -0.1436 -2.1203 -0.4948
 6273TIP3    H243015   4.981   5.766   2.885 -1.4207 -1.4992 -0.9514
 6274TIP3   OH243016   6.933   1.508   1.239 -0.0587  0.3528  0.2069
 6274TIP3    H143017   6.995   1.505   1.312 -0.0827 -0.2819  0.2082
 6274TIP3    H243018   6.849   1.529   1.280 -0.1072 -0.1860  0.3900
 6275TIP3   OH243019   1.168   0.714   1.233  0.4478 -0.0074  0.1037
 6275TIP3    H143020   1.083   0.716   1.188  0.8558 -0.3753 -0.7050
 6275TIP3    H243021   1.173   0.798   1.278  0.5461  0.8995 -1.5317
 6276TIP3   OH243022   3.624   7.347   0.658  0.3025  0.4384 -0.0805
 6276TIP3    H143023   3.637   7.394   0.576 -0.2014 -0.7689 -0.8740
 6276TIP3    H243024   3.593   7.414   0.719 -1.2236  1.0122 -1.4197
 6277TIP3   OH243025   3.941   4.723   1.051  0.0701 -0.5476 -0.5246
 6277TIP3    H143026   3.999   4.653   1.081 -0.0651 -0.3995  0.1034
 6277TIP3    H243027   3.853   4.692   1.072  0.0863  0.5216  1.3668
 6278TIP3   OH243028   3.440   7.174   1.575  0.1951 -0.0472  0.5665
 6278TIP3    H143029   3.512   7.119   1.543  1.3158  1.1396  0.9593
 6278TIP3    H243030   3.377   7.112   1.612  1.0012 -1.1150  0.2041
 6279TIP3   OH243031   7.616   4.620   1.250 -0.1498 -0.2233  0.2281
 6279TIP3    H143032   7.656   4.600   1.335  0.5771  0.9467  0.1828
 6279TIP3    H243033   7.540   4.674   1.271 -0.0853 -0.0993  0.1388
 6280TIP3   OH243034   5.731   1.645   2.719  0.4614 -0.3282 -0.1407
 6280TIP3    H143035   5.784   1.721   2.694  0.2252 -0.7535 -2.0283
 6280TIP3    H243036   5.795   1.575   2.735  0.5568 -0.4181 -0.8960
 6281TIP3   OH243037   5.688   2.741   0.792  0.3344 -0.1757 -0.1122
 6281TIP3    H143038   5.651   2.661   0.754 -0.2758  0.3548 -0.6735
 6281TIP3    H243039   5.614   2.802   0.795  1.0627  0.7759 -0.8510
 6282TIP3   OH243040   0.738   3.018   0.990  1.2629 -0.4999  0.8958
 6282TIP3    H143041   0.806   2.951   0.998  0.8915 -1.3571 -1.9699
 6282TIP3    H243042   0.686   2.990   0.914 -0.0157  2.1072  0.7063
 6283TIP3   OH243043   0.309   1.690   2.154  0.0736  0.3684  0.4059
 6283TIP3    H143044   0.314   1.705   2.060  1.6958  0.9713  0.5696
 6283TIP3    H243045   0.316   1.777   2.193 -0.7789  0.1447  1.1001
 6284TIP3   OH243046   1.135   2.551   1.892 -0.3752  0.2467  0.2550
 6284TIP3    H143047   1.226   2.542   1.920 -1.0025 -0.4761  2.1673
 6284TIP3    H243048   1.120   2.646   1.891 -0.0184  0.3335  1.4005
 6285TIP3   OH243049   1.910   4.759   3.256  0.5152  0.3769 -0.1083
 6285TIP3    H143050   1.860   4.841   3.248  2.2004  1.5687  0.9256
 6285TIP3    H243051   1.847   4.696   3.290 -1.7146  0.2830 -3.8020
 6286TIP3   OH243052   6.328   3.152   0.723 -0.0462  0.1081  0.1548
 6286TIP3    H143053   6.255   3.197   0.682  0.8644  0.2881 -1.3661
 6286TIP3    H243054   6.292   3.115   0.803 -1.7765  0.2360 -0.5266
 6287TIP3   OH243055   3.766   6.326   2.323  0.4674  0.0116  0.3388
 6287TIP3    H143056   3.751   6.243   2.369 -0.1269 -0.9355 -1.4757
 6287TIP3    H243057   3.679   6.362   2.309  0.6128  0.1300 -0.2890
 6288TIP3   OH243058   0.327   7.486   0.854 -0.4714  0.3573  0.0713
 6288TIP3    H143059   0.247   7.532   0.881  0.1645  1.2299  0.5173
 6288TIP3    H243060   0.396   7.523   0.909  0.0339 -1.3501  0.6419
 6289TIP3   OH243061   5.119   7.387   2.645  0.2751  0.4771  0.4324
 6289TIP3    H143062   5.030   7.381   2.679  0.0755 -0.4037 -0.2085
 6289TIP3    H243063   5.113   7.446   2.570  0.3091  0.6963  0.5988
 6290TIP3   OH243064   1.698   5.940   1.530 -0.4325 -0.2398  0.2051
 6290TIP3    H143065   1.688   6.035   1.521 -1.0449 -0.4068 -0.9664
 6290TIP3    H243066   1.792   5.925   1.518 -0.0474  0.3626  2.0664
 6291TIP3   OH243067   6.088   1.443   3.934 -0.1230 -0.1500  0.7322
 6291TIP3    H143068   6.025   1.507   3.968  0.4564  0.7360  0.1501
 6291TIP3    H243069   6.055   1.359   3.967 -0.6740  0.4678  1.8425
 6292TIP3   OH243070   6.605   0.025   2.143 -0.1589  0.1950 -0.5482
 6292TIP3    H143071   6.610  -0.061   2.184 -0.3994 -0.2162 -1.3731
 6292TIP3    H243072   6.620   0.009   2.050  1.1422  1.2115 -0.5544
 6293TIP3   OH243073   5.417   3.000   1.398  0.7803 -0.3788 -0.0048
 6293TIP3    H143074   5.375   2.975   1.481  0.7261 -2.3083 -0.5685
 6293TIP3    H243075   5.357   2.968   1.331 -0.4852  3.4203 -0.8893
 6294TIP3   OH243076   5.527   2.637   3.003  0.1315 -0.2044  0.0622
 6294TIP3    H143077   5.498   2.549   2.978 -1.4705 -0.0342  1.1273
 6294TIP3    H243078   5.499   2.646   3.094  0.1435  1.4565 -0.0685
 6295TIP3   OH243079   0.271   3.047   1.407  0.2948 -0.3199 -0.1600
 6295TIP3    H143080   0.189   3.096   1.402  0.5230  0.0328 -0.4928
 6295TIP3    H243081   0.318   3.087   1.480  0.1482 -0.5635  0.0711
 6296TIP3   OH243082   6.170   1.346   2.301 -1.1102  0.1999 -0.0573
 6296TIP3    H143083   6.227   1.308   2.368 -0.7764 -1.1622 -1.0871
 6296TIP3    H243084   6.217   1.425   2.273  0.0525 -0.6341 -0.5379
 6297TIP3   OH243085   3.713   4.783   1.411 -0.3505 -0.1478 -0.8655
 6297TIP3    H143086   3.656   4.791   1.335  0.0119 -0.5879 -1.1923
 6297TIP3    H243087   3.718   4.872   1.448  2.2522  0.8967 -3.3896
 6298TIP3   OH243088   2.005   4.201   1.000 -0.5287  0.3761  0.2722
 6298TIP3    H143089   1.911   4.187   0.987 -0.6098  0.6832  0.5405
 6298TIP3    H243090   2.026   4.277   0.946 -0.4898  0.4833  0.4384
 6299TIP3   OH243091   3.771   2.639   1.423  0.3965 -0.5451  0.1714
 6299TIP3    H143092   3.801   2.602   1.340  0.1133 -0.1625 -0.1029
 6299TIP3    H243093   3.758   2.563   1.480  1.7067 -0.7342  0.2504
 6300TIP3   OH243094   6.202   1.294   3.151 -0.0542 -0.0536  0.3788
 6300TIP3    H143095   6.284   1.317   3.107  0.4431 -3.1705 -0.6200
 6300TIP3    H243096   6.135   1.344   3.105  1.1308  1.6527  0.4251
 6301TIP3   OH243097   6.557   0.103   1.627  0.0414 -0.3977 -0.3207
 6301TIP3    H143098   6.623   0.139   1.687  0.6413  1.0823 -1.7820
 6301TIP3    H243099   6.485   0.078   1.684  0.2221  1.7759  0.9966
 6302TIP3   OH243100   4.995   2.717   1.542 -0.4089 -0.1997 -0.2768
 6302TIP3    H143101   4.996   2.656   1.615  1.2821  1.1242  0.8760
 6302TIP3    H243102   5.044   2.672   1.473 -1.9506 -1.4237 -0.6408
 6303TIP3   OH243103   6.075   6.454   0.707  0.2887 -0.5003  0.1918
 6303TIP3    H143104   6.088   6.502   0.626  0.8579 -1.3779 -0.2527
 6303TIP3    H243105   5.991   6.410   0.696  1.7507 -3.1790 -1.3081
 6304TIP3   OH243106   4.809   3.809   1.825 -0.0581 -0.1016 -0.0349
 6304TIP3    H143107   4.729   3.769   1.860 -0.0453 -0.6715 -0.6490
 6304TIP3    H243108   4.811   3.896   1.866 -1.2000  0.0759 -0.3101
 6305TIP3   OH243109   4.367   2.759   0.973  0.1153 -0.4422  0.1986
 6305TIP3    H143110   4.396   2.713   1.052  0.2859  1.4473  1.3025
 6305TIP3    H243111   4.445   2.807   0.944  0.0157 -1.0133 -1.0788
 6306TIP3   OH243112   6.525   0.931   1.977  0.7154 -0.2450  0.4902
 6306TIP3    H143113   6.595   0.867   1.970  0.2433 -1.0093  2.2446
 6306TIP3    H243114   6.537   0.972   2.063  0.3546  1.2639 -0.1315
 6307TIP3   OH243115   4.665   3.217   0.899 -0.5204 -0.0287 -0.0350
 6307TIP3    H143116   4.616   3.149   0.853  1.0188 -0.0383 -1.7881
 6307TIP3    H243117   4.665   3.292   0.839  1.0365  0.1704  0.1701
 6308TIP3   OH243118   3.993   1.549   3.492 -0.2082  0.3294 -0.5653
 6308TIP3    H143119   4.052   1.623   3.481  0.5455 -0.2358 -0.3531
 6308TIP3    H243120   3.990   1.534   3.587 -1.0987  0.6678 -0.5229
 6309TIP3   OH243121   6.174   5.348   0.645  0.1134 -0.3646  0.1374
 6309TIP3    H143122   6.190   5.255   0.628 -0.3211 -0.2555 -0.8964
 6309TIP3    H243123   6.094   5.349   0.698 -0.1113 -0.5660 -0.1911
 6310TIP3   OH243124   1.398   1.737   0.561  0.3887  0.5724 -0.4955
 6310TIP3    H143125   1.382   1.729   0.655  1.3461 -0.7567 -0.4066
 6310TIP3    H243126   1.488   1.769   0.555  0.8160 -0.6541 -0.9290
 6311TIP3   OH243127   2.920   0.577   1.311 -0.1153 -0.7012 -0.3658
 6311TIP3    H143128   2.916   0.513   1.382  1.1229 -0.2317  0.1517
 6311TIP3    H243129   2.986   0.640   1.339  0.4963 -0.5716 -1.9897
 6312TIP3   OH243130   7.660   1.307   2.828 -0.1836 -0.1471  0.2030
 6312TIP3    H143131   7.666   1.214   2.806  1.3085  0.1635 -0.9166
 6312TIP3    H243132   7.569   1.331   2.808 -0.0563 -0.9225 -1.4931
 6313TIP3   OH243133   2.128   6.887   3.303  0.1570 -0.0930 -0.3496
 6313TIP3    H143134   2.192   6.932   3.358 -0.5620 -2.8245  3.1016
 6313TIP3    H243135   2.170   6.803   3.282 -0.9056 -0.4434 -1.1400
 6314TIP3   OH243136   4.216   3.189   3.113 -0.0727 -0.4655  0.7841
 6314TIP3    H143137   4.155   3.236   3.055  1.2862  1.2764  0.6585
 6314TIP3    H243138   4.234   3.251   3.183  4.4648  0.8128 -1.1410
 6315TIP3   OH243139   1.524   5.005   2.830 -0.1121 -0.0428  0.0481
 6315TIP3    H143140   1.530   5.046   2.916 -0.5344 -1.0132  0.5590
 6315TIP3    H243141   1.440   4.959   2.831  0.7186 -1.6194 -0.1752
 6316TIP3   OH243142   5.606   1.969   2.222 -0.3819  0.5379  0.1666
 6316TIP3    H143143   5.675   2.032   2.204 -0.5164  0.8447  0.7234
 6316TIP3    H243144   5.540   1.985   2.154  0.4992 -0.3793 -0.9439
 6317TIP3   OH243145   4.495   6.263   1.146  0.2189  0.0182 -0.3611
 6317TIP3    H143146   4.483   6.199   1.076  0.1211 -1.4868  0.9664
 6317TIP3    H243147   4.413   6.313   1.147 -0.3857 -0.9285 -0.4039
 6318TIP3   OH243148   0.655   0.786   3.377 -0.1151  0.0532 -0.1672
 6318TIP3    H143149   0.654   0.876   3.411 -1.5181 -0.2510  0.6595
 6318TIP3    H243150   0.743   0.754   3.397  0.5604  1.3609 -0.8571
 6319TIP3   OH243151   3.760   3.725   0.344  0.1350 -0.6704  0.4562
 6319TIP3    H143152   3.690   3.778   0.381 -0.7953 -1.1813 -0.5121
 6319TIP3    H243153   3.791   3.775   0.269  1.2059 -0.1878  1.2020
 6320TIP3   OH243154   3.808   0.853   2.371  0.2616 -0.3747  0.0939
 6320TIP3    H143155   3.789   0.929   2.427 -0.3860 -0.6129  0.2050
 6320TIP3    H243156   3.875   0.804   2.419 -0.4573 -0.6987  0.7733
 6321TIP3   OH243157   5.761   5.863   1.021 -0.0052 -0.6766 -0.6658
 6321TIP3    H143158   5.768   5.943   0.969  0.9780  0.8082  1.5666
 6321TIP3    H243159   5.836   5.810   0.993  1.9346  1.1294  0.7211
 6322TIP3   OH243160   5.785   0.941   2.290 -0.5500 -0.0886 -0.2008
 6322TIP3    H143161   5.756   0.940   2.381  0.4924 -1.3344  0.1426
 6322TIP3    H243162   5.842   1.019   2.284  0.0385 -0.4620  0.4438
 6323TIP3   OH243163   3.970   3.272   3.392 -0.4333  0.3289 -0.7441
 6323TIP3    H143164   3.936   3.264   3.303  0.0672  3.6927 -1.3932
 6323TIP3    H243165   4.031   3.347   3.387  1.7522 -1.1049  1.8431
 6324TIP3   OH243166   1.321   5.637   0.896 -0.3270  0.1858  0.3941
 6324TIP3    H143167   1.378   5.708   0.924 -0.8098  0.0688  1.7411
 6324TIP3    H243168   1.293   5.595   0.977  0.4794 -1.9728 -0.3614
 6325TIP3   OH243169   4.779   6.747   2.115  0.1427 -0.0059 -0.5703
 6325TIP3    H143170   4.788   6.816   2.049 -0.2489 -0.5341 -1.1758
 6325TIP3    H243171   4.713   6.688   2.080 -0.0745 -0.2930  0.2982
 6326TIP3   OH243172   1.389   5.227   1.277 -0.3980  0.2200  0.2590
 6326TIP3    H143173   1.358   5.143   1.243 -0.3230  0.9791 -1.8638
 6326TIP3    H243174   1.484   5.218   1.279 -0.4619 -0.5502  2.4365
 6327TIP3   OH243175   4.742   4.907   2.244  0.1302  0.4654 -0.0416
 6327TIP3    H143176   4.661   4.860   2.264 -0.3840  1.3044 -0.0756
 6327TIP3    H243177   4.716   4.972   2.178  0.6637  1.2285  0.4801
 6328TIP3   OH243178   0.800   2.299   0.850 -0.0143  0.3006  0.2575
 6328TIP3    H143179   0.866   2.350   0.896 -1.9559  1.5267  1.8687
 6328TIP3    H243180   0.797   2.338   0.762  2.5391 -0.9485 -0.4714
 6329TIP3   OH243181   5.682   4.659   1.171 -0.1267 -0.6582 -0.2297
 6329TIP3    H143182   5.624   4.618   1.107 -0.0948  0.4066 -0.9578
 6329TIP3    H243183   5.718   4.585   1.220 -2.0902 -1.3528  0.2703
 6330TIP3   OH243184   6.350   2.324   2.201 -0.3727 -0.1585  0.2820
 6330TIP3    H143185   6.259   2.300   2.217 -1.5811  3.2847 -0.5832
 6330TIP3    H243186   6.394   2.310   2.284 -2.3594  0.7168  1.5375
 6331TIP3   OH243187   4.229   6.195   0.616 -0.5358 -0.6458  0.0254
 6331TIP3    H143188   4.206   6.111   0.575  1.1166 -0.3043 -1.7140
 6331TIP3    H243189   4.300   6.229   0.563  1.0549  0.3546  2.6075
 6332TIP3   OH243190   2.713   1.202   2.735 -0.3742 -0.0898  0.0872
 6332TIP3    H143191   2.793   1.251   2.753 -0.5407  0.1939  0.0660
 6332TIP3    H243192   2.740   1.133   2.675 -0.3630  0.7555 -0.9120
 6333TIP3   OH243193   2.733   7.398   1.834  0.0537  0.1070 -0.1003
 6333TIP3    H143194   2.696   7.311   1.846 -2.0024  1.0026  0.5614
 6333TIP3    H243195   2.697   7.450   1.907  2.3765  1.1849  0.3684
 6334TIP3   OH243196   4.069   6.337   1.859 -0.2555 -0.3917  0.1066
 6334TIP3    H143197   4.107   6.270   1.802 -0.4348  1.3842 -2.2390
 6334TIP3    H243198   4.113   6.418   1.833 -2.5078  0.9971  0.3812
 6335TIP3   OH243199   3.041   4.111   2.474  0.1282 -0.1570 -0.0171
 6335TIP3    H143200   2.950   4.132   2.495  0.2956  1.4680 -0.7754
 6335TIP3    H243201   3.045   4.114   2.378  0.9783 -0.2093  0.0105
 6336TIP3   OH243202   0.565   1.569   1.938  0.1369 -0.5425  0.4178
 6336TIP3    H143203   0.497   1.626   1.900 -0.3801 -1.7370 -0.5074
 6336TIP3    H243204   0.646   1.598   1.897 -0.0543 -0.1813  0.2865
 6337TIP3   OH243205   4.822   1.828   0.573  0.3379  0.4134 -0.2290
 6337TIP3    H143206   4.798   1.790   0.489  1.0552  2.0897 -1.2379
 6337TIP3    H243207   4.915   1.808   0.583  0.4170  0.8064 -0.1626
 6338TIP3   OH243208   0.343   0.629   0.843  0.2234  0.0835  0.1724
 6338TIP3    H143209   0.389   0.694   0.790 -0.5857  0.6640  0.1721
 6338TIP3    H243210   0.317   0.677   0.922 -0.2129 -0.2899  0.2562
 6339TIP3   OH243211   0.638   6.432   1.747 -0.5032  0.4437  0.0851
 6339TIP3    H143212   0.585   6.365   1.703 -0.6199  0.6899 -0.1494
 6339TIP3    H243213   0.619   6.512   1.699  0.1863  0.5077 -0.0874
 6340TIP3   OH243214   0.869   0.687   1.239  0.1203  0.1513 -0.0490
 6340TIP3    H143215   0.901   0.735   1.316  0.4877  3.0814 -1.8789
 6340TIP3    H243216   0.808   0.623   1.275  0.3241  1.3390  2.6898
 6341TIP3   OH243217   4.292   2.943   2.995  0.5116 -0.3009 -0.1566
 6341TIP3    H143218   4.345   2.895   3.059 -3.2229 -2.2485  1.7796
 6341TIP3    H243219   4.281   3.030   3.033  0.7073 -0.5122  0.3955
 6342TIP3   OH243220   0.069   7.213   3.095  0.0281  0.0520  0.0578
 6342TIP3    H143221   0.156   7.192   3.061  0.3163  2.0128 -0.5658
 6342TIP3    H243222   0.059   7.157   3.172  1.0945 -1.4848 -0.8728
 6343TIP3   OH243223   4.546   2.112   1.822  0.2564 -0.5736 -0.1852
 6343TIP3    H143224   4.630   2.141   1.787 -0.1564  3.1734  1.4297
 6343TIP3    H243225   4.558   2.111   1.917 -1.6213  0.5617  0.1211
 6344TIP3   OH243226   5.882   4.864   1.091 -0.6069 -0.2276 -0.6837
 6344TIP3    H143227   5.966   4.855   1.136 -0.6897 -2.6571 -0.8785
 6344TIP3    H243228   5.826   4.798   1.130 -1.9311  0.2435 -1.6838
 6345TIP3   OH243229   2.156   4.051   0.500 -0.1439  0.2153  0.3111
 6345TIP3    H143230   2.194   4.102   0.429  0.6094  0.1035  0.6320
 6345TIP3    H243231   2.072   4.094   0.518 -0.6642 -0.1676 -1.0967
 6346TIP3   OH243232   1.784   6.382   1.462 -0.4078 -0.1725 -0.3718
 6346TIP3    H143233   1.831   6.351   1.540 -0.0560  0.1081 -0.4736
 6346TIP3    H243234   1.851   6.422   1.407 -0.8753  0.8961 -0.1833
 6347TIP3   OH243235   5.064   1.761   0.678 -0.0096 -0.0539  0.3102
 6347TIP3    H143236   5.026   1.729   0.760  0.9327 -0.4524  0.6034
 6347TIP3    H243237   5.123   1.691   0.650  0.6779  0.6379 -0.0184
 6348TIP3   OH243238   2.177   5.270   2.071 -0.1806 -0.0185 -0.2381
 6348TIP3    H143239   2.257   5.274   2.124  0.2273 -0.1226 -0.8275
 6348TIP3    H243240   2.106   5.278   2.134  0.3162  1.5750  0.1563
 6349TIP3   OH243241   4.445   6.205   1.731  0.0241 -0.1550  0.2623
 6349TIP3    H143242   4.357   6.200   1.694 -0.8689  1.5376  1.9958
 6349TIP3    H243243   4.501   6.168   1.663 -1.6227  1.6563 -2.2885
 6350TIP3   OH243244   3.054   4.326   2.907  0.1684  0.9178  0.8666
 6350TIP3    H143245   3.054   4.422   2.914  1.5617  0.9069  1.2428
 6350TIP3    H243246   3.130   4.298   2.958  0.2136 -0.3508  0.1455
 6351TIP3   OH243247   6.760   0.217   1.830  0.0568 -0.6488 -0.2182
 6351TIP3    H143248   6.806   0.133   1.824  2.5739  0.7080 -1.8039
 6351TIP3    H243249   6.824   0.276   1.870 -1.5183  0.6454  0.4956
 6352TIP3   OH243250   7.573   5.462   2.665 -0.1582  0.2311 -0.0688
 6352TIP3    H143251   7.492   5.484   2.710 -1.4295 -0.1581 -2.0543
 6352TIP3    H243252   7.559   5.374   2.632 -0.1909  1.1999 -2.9593
 6353TIP3   OH243253   0.947   1.867   0.444  0.3009  0.4137  0.3253
 6353TIP3    H143254   0.894   1.933   0.489 -1.3989 -0.7320  0.1367
 6353TIP3    H243255   0.927   1.786   0.491 -1.5348 -0.8417 -2.3533
 6354TIP3   OH243256   0.960   1.673   0.641  0.0391  0.2508 -0.4898
 6354TIP3    H143257   1.049   1.672   0.674 -0.0111  2.3900 -0.1547
 6354TIP3    H243258   0.907   1.706   0.714 -1.1997 -1.7316 -0.4068
 6355TIP3   OH243259   4.348   2.163   3.416 -0.3918  0.5284  0.0971
 6355TIP3    H143260   4.379   2.212   3.340 -0.2177 -0.0023 -0.1862
 6355TIP3    H243261   4.261   2.197   3.433 -0.7844  0.0759 -0.8880
 6356TIP3   OH243262   3.669   1.258   2.776  0.5360 -0.3858 -0.1026
 6356TIP3    H143263   3.697   1.234   2.864 -1.4352  0.0393  0.7036
 6356TIP3    H243264   3.676   1.177   2.725 -0.4029 -1.2180  1.0446
 6357TIP3   OH243265   2.102   5.275   0.979 -0.0798  0.2413  0.2510
 6357TIP3    H143266   2.016   5.307   1.005 -0.0689  0.0413  0.5393
 6357TIP3    H243267   2.122   5.205   1.041  0.4950  0.5992  0.4869
 6358TIP3   OH243268   4.349   1.267   2.194  0.1071  0.3846  0.5932
 6358TIP3    H143269   4.436   1.267   2.233 -0.1557 -0.2573  1.2089
 6358TIP3    H243270   4.343   1.184   2.148 -0.1034  0.5207  0.3722
 6359TIP3   OH243271   3.462   4.767   2.749  0.2926 -0.3140 -0.2713
 6359TIP3    H143272   3.448   4.744   2.657 -2.3915 -0.6446  0.1433
 6359TIP3    H243273   3.385   4.732   2.794  1.2871  0.3169  2.0276
 6360TIP3   OH243274   5.018   5.949   1.755 -0.1146 -0.8847 -0.1361
 6360TIP3    H143275   5.049   6.033   1.789  1.8816 -0.8512 -1.8394
 6360TIP3    H243276   4.942   5.971   1.700 -0.4787 -0.4006  0.5515
 6361TIP3   OH243277   1.002   4.502   1.636  0.1691 -0.4696  0.7453
 6361TIP3    H143278   0.954   4.524   1.716 -0.6722 -0.9007  0.3806
 6361TIP3    H243279   1.050   4.581   1.614  1.6438 -0.8049  2.5082
 6362TIP3   OH243280   5.498   3.788   2.575 -0.4189 -0.1837 -0.3432
 6362TIP3    H143281   5.580   3.761   2.616 -0.8006 -1.1389 -0.1923
 6362TIP3    H243282   5.519   3.790   2.481 -0.1891 -0.2948 -0.2966
 6363TIP3   OH243283   0.547   0.533   1.764 -0.0558  0.0073 -0.1703
 6363TIP3    H143284   0.493   0.569   1.834 -0.5141  0.6948 -0.8596
 6363TIP3    H243285   0.486   0.479   1.713 -0.0564  0.6191 -0.8327
 6364TIP3   OH243286   6.014   7.427   1.147  0.0593  0.3158 -0.1779
 6364TIP3    H143287   6.037   7.336   1.129 -2.3011 -0.7337  1.6316
 6364TIP3    H243288   6.036   7.440   1.240 -2.9025  0.3725  0.6163
 6365TIP3   OH243289   4.998   7.552   1.738  0.1387  0.4236  0.3470
 6365TIP3    H143290   5.015   7.528   1.647 -0.5790  0.8052  0.1032
 6365TIP3    H243291   4.917   7.602   1.735 -0.3806 -0.3338  1.3198
 6366TIP3   OH243292   2.307   3.548   1.533  0.1538 -0.0676  0.1623
 6366TIP3    H143293   2.247   3.548   1.608  0.4566 -0.9648  0.4272
 6366TIP3    H243294   2.277   3.619   1.478 -2.4592 -1.7274 -0.7550
 6367TIP3   OH243295   2.691   3.329   1.055  0.4005  0.8645  0.6740
 6367TIP3    H143296   2.776   3.365   1.029  0.6934 -0.7777 -0.8750
 6367TIP3    H243297   2.710   3.237   1.076 -0.7759  0.8164  1.5834
 6368TIP3   OH243298   3.593   7.314   3.126  0.3789  0.2971  0.8956
 6368TIP3    H143299   3.555   7.390   3.081  0.6109 -1.0559 -1.8426
 6368TIP3    H243300   3.518   7.259   3.148  0.3741 -0.1275 -0.0972
 6369TIP3   OH243301   1.746   3.326   1.508 -0.4152  0.6098 -0.0931
 6369TIP3    H143302   1.724   3.307   1.600  2.0745  1.8988  0.8707
 6369TIP3    H243303   1.662   3.345   1.467 -1.9054 -2.2589  1.2657
 6370TIP3   OH243304   1.466   0.427   1.797 -0.1671  0.0271 -0.2093
 6370TIP3    H143305   1.431   0.361   1.857 -0.4144  0.0572 -0.3242
 6370TIP3    H243306   1.472   0.383   1.713  0.2199 -0.0266 -0.1560
 6371TIP3   OH243307   0.486   1.199   1.510 -0.0355  0.2963 -0.6165
 6371TIP3    H143308   0.576   1.221   1.535 -0.3335  0.1668  0.6266
 6371TIP3    H243309   0.450   1.154   1.587 -1.0170 -0.0763 -1.2715
 6372TIP3   OH243310   3.718   4.833   2.286  0.0234  0.1558  0.2372
 6372TIP3    H143311   3.694   4.926   2.279  0.4916  0.1383 -4.5980
 6372TIP3    H243312   3.809   4.835   2.315 -0.5816  0.9957  2.2905
 6373TIP3   OH243313   6.523   6.730   1.406  0.3649 -0.2382 -0.1136
 6373TIP3    H143314   6.618   6.731   1.417  0.2236 -0.7205  1.4313
 6373TIP3    H243315   6.509   6.713   1.313  1.7958 -1.8978 -0.0768
 6374TIP3   OH243316   0.409   0.324   1.681 -0.2487  0.1141  0.0802
 6374TIP3    H143317   0.432   0.308   1.772 -0.4633 -1.1512 -0.0698
 6374TIP3    H243318   0.432   0.244   1.635 -3.5717 -0.7922 -0.3194
 6375TIP3   OH243319   4.982   7.456   0.534 -0.0376  0.4848  0.2702
 6375TIP3    H143320   4.992   7.368   0.499 -0.9717  0.7412 -0.6894
 6375TIP3    H243321   5.067   7.498   0.519 -0.4321  0.6248 -1.8723
 6376TIP3   OH243322   1.419   1.115   2.846  0.6085 -0.2053 -0.5134
 6376TIP3    H143323   1.367   1.059   2.788 -0.0313 -1.5553  1.2740
 6376TIP3    H243324   1.353   1.160   2.900  1.2134  0.4152 -0.2796
 6377TIP3   OH243325   7.462   4.516   2.133  0.3178  0.1791 -0.4509
 6377TIP3    H143326   7.537   4.492   2.078  0.1486 -0.8173 -0.2705
 6377TIP3    H243327   7.468   4.457   2.208 -0.0861  0.7774  0.0576
 6378TIP3   OH243328   5.003   3.251   0.995  0.6300 -0.2346 -0.1802
 6378TIP3    H143329   4.925   3.303   1.014  0.1755 -0.1121 -2.1370
 6378TIP3    H243330   5.065   3.274   1.065 -1.0337 -0.3093  1.3955
 6379TIP3   OH243331   1.617   2.393   1.848  0.2496  0.0916  0.1926
 6379TIP3    H143332   1.561   2.390   1.770 -1.9720 -1.7022  1.7164
 6379TIP3    H243333   1.629   2.486   1.865  1.3603  0.5677 -2.5743
 6380TIP3   OH243334   2.515   2.205   1.546  0.1444 -0.1268 -0.2821
 6380TIP3    H143335   2.549   2.262   1.615  2.0366  1.7749 -2.6080
 6380TIP3    H243336   2.533   2.117   1.577  2.5516  0.7077  0.9146
 6381TIP3   OH243337   5.658   3.018   2.112 -0.3734  0.1934 -0.0430
 6381TIP3    H143338   5.748   2.990   2.097 -0.3489 -0.7418  1.6763
 6381TIP3    H243339   5.607   2.937   2.107 -1.0784  0.6601 -0.6037
 6382TIP3   OH243340   2.903   0.264   0.426  1.0414 -0.7536  0.2870
 6382TIP3    H143341   2.840   0.249   0.497 -0.7947 -0.9306 -1.2888
 6382TIP3    H243342   2.883   0.195   0.362 -0.2437  1.7517 -2.2631
 6383TIP3   OH243343   0.553   4.430   0.924 -0.5800  0.7241 -0.3016
 6383TIP3    H143344   0.595   4.515   0.936 -0.4801  0.8072 -1.2398
 6383TIP3    H243345   0.466   4.441   0.964  0.0638  0.6960  1.1957
 6384TIP3   OH243346   6.781   4.483   2.822  0.5874 -0.2612  0.1432
 6384TIP3    H143347   6.728   4.496   2.743 -0.3582 -1.2449  0.5853
 6384TIP3    H243348   6.742   4.542   2.887 -0.5995 -1.6217  0.7312
 6385TIP3   OH243349   0.647   1.420   0.893 -0.3212 -0.2136 -0.1760
 6385TIP3    H143350   0.611   1.341   0.933  0.3981 -0.4758 -0.0406
 6385TIP3    H243351   0.571   1.464   0.854 -0.7296 -0.9435 -0.2149
 6386TIP3   OH243352   1.602   4.972   1.212 -0.2561  0.2678  0.3269
 6386TIP3    H143353   1.597   4.932   1.299 -1.7633  0.9377  0.5800
 6386TIP3    H243354   1.532   4.930   1.162 -0.5460  1.1353 -0.0137
 6387TIP3   OH243355   5.042   2.707   0.709 -0.0070 -0.1640  0.7382
 6387TIP3    H143356   5.122   2.665   0.739  0.8399 -0.4386 -1.6774
 6387TIP3    H243357   5.060   2.730   0.618 -2.8526 -0.7721 -0.0825
 6388TIP3   OH243358   5.561   2.357   3.610 -0.1785  0.5500  0.1948
 6388TIP3    H143359   5.589   2.400   3.529  0.1271  1.8698  0.9928
 6388TIP3    H243360   5.488   2.301   3.582  0.1470  0.7127 -1.0533
 6389TIP3   OH243361   3.163   0.692   0.645 -0.4307 -0.1913  0.4020
 6389TIP3    H143362   3.157   0.597   0.643 -0.6702 -0.1669 -0.3121
 6389TIP3    H243363   3.076   0.722   0.670  0.0345 -0.1892  2.1554
 6390TIP3   OH243364   0.074   4.161   2.517 -0.0905 -0.5910  0.0710
 6390TIP3    H143365   0.040   4.075   2.493 -0.7918 -0.1911 -0.4047
 6390TIP3    H243366   0.041   4.177   2.605  0.8498 -1.2129  0.5574
 6391TIP3   OH243367   3.045   2.847   1.165 -0.0041  0.1026 -0.4465
 6391TIP3    H143368   3.009   2.789   1.098 -2.3684  0.2185  0.6158
 6391TIP3    H243369   3.054   2.932   1.121 -1.2253  0.0990 -0.7453
 6392TIP3   OH243370   2.329   4.134   3.318 -0.3518  0.7088 -0.4636
 6392TIP3    H143371   2.320   4.039   3.306  0.3339  0.0689  3.0092
 6392TIP3    H243372   2.419   4.146   3.348 -0.8531  2.2511  0.5526
 6393TIP3   OH243373   3.381   2.444   1.765 -0.3388 -0.6405  0.2890
 6393TIP3    H143374   3.293   2.408   1.756 -0.0423 -0.9039 -2.4559
 6393TIP3    H243375   3.433   2.374   1.804 -1.2331 -0.6174  1.5628
 6394TIP3   OH243376   3.277   2.965   0.885 -0.2300 -0.1168 -0.0061
 6394TIP3    H143377   3.284   2.987   0.978  1.1574  1.9364 -0.5468
 6394TIP3    H243378   3.319   3.038   0.839 -4.4738  1.1196 -2.4985
 6395TIP3   OH243379   7.664   2.961   2.909 -0.6643  0.2490 -0.3219
 6395TIP3    H143380   7.648   2.873   2.876 -0.3398 -1.5886  3.8349
 6395TIP3    H243381   7.578   2.991   2.941 -0.4829  0.7853 -0.3264
 6396TIP3   OH243382   3.611   4.541   8.291  0.0005  0.0711 -0.0847
 6396TIP3    H143383   3.702   4.516   8.305  0.4358  0.7167 -1.5463
 6396TIP3    H243384   3.560   4.473   8.336  1.1816 -0.6109  0.2718
 6397TIP3   OH243385   7.384   1.734   0.897  0.0763  0.5960  0.0562
 6397TIP3    H143386   7.345   1.767   0.978  1.0387 -0.1838  0.8468
 6397TIP3    H243387   7.334   1.655   0.877 -0.3892  0.9768 -0.3138
 6398TIP3   OH243388   2.551   3.622   1.957  0.6365 -0.3506  0.2035
 6398TIP3    H143389   2.512   3.553   1.902 -0.4987  0.0807  0.4338
 6398TIP3    H243390   2.595   3.680   1.895  0.4641 -0.5609 -0.1221
 6399TIP3   OH243391   1.814   3.580   0.572  0.1114 -0.2097 -0.3977
 6399TIP3    H143392   1.749   3.518   0.538 -0.0877  0.2735 -0.9055
 6399TIP3    H243393   1.804   3.658   0.518  0.4411  0.2320  0.1682
 6400TIP3   OH243394   6.181   2.080   2.192  0.0927  0.3169  0.3582
 6400TIP3    H143395   6.111   2.030   2.148  0.9004 -0.6074  0.0891
 6400TIP3    H243396   6.143   2.167   2.205 -1.1685 -0.2037  0.3610
 6401TIP3   OH243397   0.302   7.476   2.792 -0.5576 -0.0053  0.2404
 6401TIP3    H143398   0.306   7.504   2.883  2.2651  1.2618 -0.1536
 6401TIP3    H243399   0.263   7.551   2.746  2.2063  1.3702 -0.0982
 6402TIP3   OH243400   0.591   0.670   2.207  0.0254 -0.4803  0.0119
 6402TIP3    H143401   0.619   0.670   2.298 -1.1221 -1.1656  0.3926
 6402TIP3    H243402   0.658   0.621   2.160  1.0201  0.5391  0.3422
 6403TIP3   OH243403   0.256   5.436   1.319 -0.1006 -0.6406 -0.3089
 6403TIP3    H143404   0.253   5.526   1.285  0.4611 -1.0778 -1.5612
 6403TIP3    H243405   0.291   5.384   1.247 -1.5425 -2.0875 -0.0288
 6404TIP3   OH243406   1.650   5.925   1.948  0.0361  0.3364 -0.3890
 6404TIP3    H143407   1.721   5.893   2.004 -1.7798 -0.9009  1.3323
 6404TIP3    H243408   1.643   5.860   1.878 -0.4445 -0.4197  0.3499
 6405TIP3   OH243409   6.912   2.617   1.922 -0.0227  0.1898  0.0670
 6405TIP3    H143410   6.935   2.623   2.015  0.9361 -1.2352 -0.0472
 6405TIP3    H243411   6.821   2.647   1.917 -0.2177 -0.1142  1.5235
 6406TIP3   OH243412   7.513   7.498   1.136  0.1327 -0.7898  0.1381
 6406TIP3    H143413   7.577   7.432   1.107 -0.4837 -1.0384 -0.6869
 6406TIP3    H243414   7.567   7.568   1.173  0.8798 -1.1426 -0.2508
 6407TIP3   OH243415   3.925   6.425   2.541 -0.5490 -0.0913 -0.5083
 6407TIP3    H143416   3.964   6.338   2.532 -1.3523 -0.3097 -2.2148
 6407TIP3    H243417   3.915   6.456   2.451  0.0642  1.9454  0.0753
 6408TIP3   OH243418   0.416   1.543   1.524 -0.1617  0.5261 -0.2537
 6408TIP3    H143419   0.372   1.612   1.475  0.1902  1.0933  0.2080
 6408TIP3    H243420   0.345   1.485   1.554 -0.3394 -0.0992 -1.8049
 6409TIP3   OH243421   0.191   2.878   2.698  0.3434  0.2792  0.0324
 6409TIP3    H143422   0.139   2.929   2.761  0.5752  1.7010 -0.8737
 6409TIP3    H243423   0.281   2.884   2.730  0.1477 -1.1397  0.9224
 6410TIP3   OH243424   4.367   0.208   2.862 -0.4226  0.1269 -0.0329
 6410TIP3    H143425   4.438   0.199   2.798 -1.2657 -0.4558 -0.9270
 6410TIP3    H243426   4.364   0.123   2.906 -1.7311 -0.5081 -1.2840
 6411TIP3   OH243427   6.208   4.563   0.778  0.1760  0.3794 -0.0461
 6411TIP3    H143428   6.256   4.505   0.719 -0.3078  1.6218 -1.7773
 6411TIP3    H243429   6.121   4.524   0.786 -0.3507  1.0886 -1.7083
 6412TIP3   OH243430   4.795   6.102   0.935 -0.0674  0.2886  0.1663
 6412TIP3    H143431   4.729   6.046   0.895  0.3067  0.3857 -0.6189
 6412TIP3    H243432   4.847   6.043   0.989 -0.6468  0.1717  0.6023
 6413TIP3   OH243433   6.388   4.339   0.624 -0.4546  0.4199 -0.5321
 6413TIP3    H143434   6.414   4.268   0.566  2.4394  2.9258 -2.6746
 6413TIP3    H243435   6.451   4.335   0.696 -0.1777  0.8520 -0.7425
 6414TIP3   OH243436   5.068   4.708   2.490 -0.7041 -0.6314 -0.6889
 6414TIP3    H143437   5.096   4.747   2.407 -0.9812 -1.7922 -1.3450
 6414TIP3    H243438   5.148   4.706   2.543 -0.7636  1.1849 -0.4663
 6415TIP3   OH243439   5.178   3.286   1.724 -0.0621 -0.1591  0.0730
 6415TIP3    H143440   5.097   3.247   1.690 -0.7076  0.9255  0.3331
 6415TIP3    H243441   5.168   3.282   1.820  1.1216 -1.9019  0.1683
 6416TIP3   OH243442   2.036   2.803   3.254  0.2503 -0.2116  0.3664
 6416TIP3    H143443   2.013   2.746   3.327 -0.0574 -2.3139 -1.2815
 6416TIP3    H243444   2.094   2.751   3.200 -1.3102  0.3968 -2.0647
 6417TIP3   OH243445   3.287   2.144   2.807  0.0512 -0.7200  0.2908
 6417TIP3    H143446   3.267   2.238   2.810  0.1598 -0.6995  0.3706
 6417TIP3    H243447   3.208   2.102   2.843  0.1973 -0.6334  0.7213
 6418TIP3   OH243448   5.117   1.986   1.330  0.1547  0.0640 -0.1976
 6418TIP3    H143449   5.181   1.922   1.298  0.0122  0.2948 -0.9748
 6418TIP3    H243450   5.138   2.066   1.282 -0.0210  0.4433  0.3592
 6419TIP3   OH243451   6.452   2.244   1.584  0.3812 -0.3143 -0.1808
 6419TIP3    H143452   6.505   2.252   1.504  0.3518 -2.9774 -0.5720
 6419TIP3    H243453   6.375   2.195   1.557 -0.3247 -0.0267  1.2171
 6420TIP3   OH243454   1.320   2.253   2.146 -0.4846  0.7624 -0.3619
 6420TIP3    H143455   1.339   2.338   2.108 -0.4004 -0.0818 -2.3334
 6420TIP3    H243456   1.387   2.195   2.111 -1.0298 -0.2985  0.2834
 6421TIP3   OH243457   7.556   2.054   1.287  0.3101 -0.1217  0.3809
 6421TIP3    H143458   7.462   2.063   1.270 -0.2322 -1.2106  2.4317
 6421TIP3    H243459   7.575   2.122   1.351  0.8777 -0.0863  0.1784
 6422TIP3   OH243460   5.813   3.197   2.460 -0.2735 -0.2734  0.6341
 6422TIP3    H143461   5.816   3.292   2.474  1.1823 -0.0951 -0.6362
 6422TIP3    H243462   5.729   3.182   2.417 -1.1659  0.2209  2.1464
 6423TIP3   OH243463   6.137   3.753   1.585 -0.3581  0.4026  0.0399
 6423TIP3    H143464   6.076   3.684   1.612  1.5098 -1.0320  0.9402
 6423TIP3    H243465   6.171   3.723   1.501  0.8095 -0.0693  0.6545
 6424TIP3   OH243466   5.271   0.931   4.039 -0.1598 -0.2026 -0.6596
 6424TIP3    H143467   5.297   1.002   4.098 -0.5445 -0.8096  0.2629
 6424TIP3    H243468   5.206   0.971   3.980  1.4743  0.8506 -1.8156
 6425TIP3   OH243469   5.226   3.262   1.194 -0.2843  0.2821 -0.3018
 6425TIP3    H143470   5.283   3.335   1.170  1.4200 -1.0620 -0.5528
 6425TIP3    H243471   5.209   3.274   1.287  1.7363 -0.0862  0.1699
 6426TIP3   OH243472   4.444   3.104   0.377  0.3594 -0.1999  0.0915
 6426TIP3    H143473   4.508   3.170   0.350  0.5340 -0.3604  0.1103
 6426TIP3    H243474   4.410   3.070   0.294 -0.0310  0.2041  0.0859
 6427TIP3   OH243475   7.657   4.957   1.059  0.6465 -0.5299  0.2551
 6427TIP3    H143476   7.749   4.945   1.035  1.0510  0.7069  1.1279
 6427TIP3    H243477   7.609   4.898   1.000  1.8636 -0.0054 -1.3115
 6428TIP3   OH243478   4.865   4.704   1.133 -0.1627 -0.3847 -0.4122
 6428TIP3    H143479   4.798   4.637   1.128 -0.6735  0.0885 -0.0573
 6428TIP3    H243480   4.817   4.787   1.137  0.3360 -0.1209  1.9336
 6429TIP3   OH243481   6.455   4.126   2.136 -0.6635 -0.5532 -0.1191
 6429TIP3    H143482   6.481   4.101   2.048 -1.5569 -1.9000 -0.0273
 6429TIP3    H243483   6.360   4.117   2.136 -0.7630  0.3757  0.7025
 6430TIP3   OH243484   5.906   6.527   3.372 -0.3906  0.1181 -0.2649
 6430TIP3    H143485   5.983   6.537   3.428  0.7058  0.8161 -1.8168
 6430TIP3    H243486   5.838   6.578   3.416  0.5750  1.0539  0.2031
 6431TIP3   OH243487   6.367   0.862   3.202 -0.3724 -0.2508 -0.0105
 6431TIP3    H143488   6.415   0.854   3.285 -1.3928 -1.0246  0.5276
 6431TIP3    H243489   6.275   0.860   3.228 -0.7468  2.1369 -0.9277
 6432TIP3   OH243490   4.868   3.944   2.330 -0.1500 -0.5738 -0.3555
 6432TIP3    H143491   4.840   4.028   2.295 -0.9567 -0.0958  1.3192
 6432TIP3    H243492   4.962   3.954   2.345 -0.0539 -0.3364 -1.0664
 6433TIP3   OH243493   0.691   1.686   3.139 -0.0915  0.4430 -0.2126
 6433TIP3    H143494   0.764   1.712   3.195  0.6702  0.1430 -1.0344
 6433TIP3    H243495   0.648   1.615   3.187 -0.5458  1.3744  0.7959
 6434TIP3   OH243496   1.693   5.312   0.768 -0.4702 -0.2816 -0.3373
 6434TIP3    H143497   1.665   5.220   0.762 -1.1231 -0.1118  0.0001
 6434TIP3    H243498   1.617   5.362   0.739 -0.2442  0.1653 -0.1667
 6435TIP3   OH243499   6.084   1.673   1.030  0.1127  0.8522 -0.1689
 6435TIP3    H143500   6.147   1.607   0.999  0.4894  0.6470  0.9905
 6435TIP3    H243501   6.133   1.724   1.095 -0.8182  0.9048  0.5009
 6436TIP3   OH243502   4.931   0.761   2.721 -0.2574  0.1841  0.5287
 6436TIP3    H143503   4.894   0.848   2.707  0.5322  0.2598 -1.5129
 6436TIP3    H243504   4.987   0.771   2.798  1.4709  2.1031 -0.8459
 6437TIP3   OH243505   1.766   4.264   1.568  0.7894 -0.2953  0.1109
 6437TIP3    H143506   1.829   4.335   1.553 -0.2994  0.3834 -1.5228
 6437TIP3    H243507   1.796   4.222   1.649  2.0175  1.4175  0.6014
 6438TIP3   OH243508   1.096   4.221   2.970 -0.8762 -0.5533 -0.6455
 6438TIP3    H143509   1.061   4.306   2.997  0.2613 -0.1161 -0.4936
 6438TIP3    H243510   1.153   4.241   2.895 -0.0465 -1.0725 -0.1683
 6439TIP3   OH243511   6.490   5.088   1.217 -0.0087 -0.0832 -0.4937
 6439TIP3    H143512   6.443   5.005   1.208  2.1267 -1.7204  1.9021
 6439TIP3    H243513   6.582   5.066   1.199  0.4193  2.1059 -1.2549
 6440TIP3   OH243514   3.812   4.963   0.473  0.1459  0.3201  0.0586
 6440TIP3    H143515   3.854   4.884   0.508  0.3912  0.4135 -0.0259
 6440TIP3    H243516   3.881   5.028   0.471  0.3188  0.1233 -1.2754
 6441TIP3   OH243517   1.317   1.268   1.912 -0.0102 -0.4360 -0.0925
 6441TIP3    H143518   1.360   1.227   1.987  0.7800  1.4735  0.5371
 6441TIP3    H243519   1.286   1.352   1.944 -0.5682  0.0029 -1.6577
 6442TIP3   OH243520   7.403   5.854   1.099  0.5438  0.4107  0.1051
 6442TIP3    H143521   7.371   5.860   1.190 -0.9421 -0.6141 -0.2977
 6442TIP3    H243522   7.496   5.834   1.108  0.2884 -0.3464  1.4273
 6443TIP3   OH243523   1.531   6.498   1.062 -0.4001  0.3687 -0.6164
 6443TIP3    H143524   1.618   6.517   1.096  0.0881 -1.7383 -0.5413
 6443TIP3    H243525   1.476   6.567   1.098  1.1279  1.4344 -0.2195
 6444TIP3   OH243526   4.586   0.598   2.524 -0.3401  0.1329 -0.0873
 6444TIP3    H143527   4.529   0.671   2.547  0.5201  0.9253 -0.4488
 6444TIP3    H243528   4.537   0.520   2.552 -0.8460  0.8863  1.1766
 6445TIP3   OH243529   2.778   5.647   2.476 -0.0813 -0.0087  0.9658
 6445TIP3    H143530   2.703   5.593   2.451  0.9314 -0.7829 -0.5231
 6445TIP3    H243531   2.749   5.737   2.460 -0.4621 -0.3337 -0.2597
 6446TIP3   OH243532   0.491   0.329   2.493  0.1689 -0.0711  0.2763
 6446TIP3    H143533   0.501   0.411   2.444 -2.2491  0.2353  0.1703
 6446TIP3    H243534   0.497   0.261   2.427 -2.5361  0.3177 -0.4989
 6447TIP3   OH243535   5.786   4.546   2.225  0.4309 -0.4999 -0.1812
 6447TIP3    H143536   5.792   4.633   2.184  2.5294  0.0121  1.0546
 6447TIP3    H243537   5.700   4.513   2.199 -0.9668  2.4498  0.2734
 6448TIP3   OH243538   4.117   4.207   1.228  0.0099 -0.2242  0.1772
 6448TIP3    H143539   4.196   4.235   1.182 -1.1890  1.0726 -1.2338
 6448TIP3    H243540   4.140   4.213   1.321  1.4183  0.6114 -0.1892
 6449TIP3   OH243541   5.956   3.553   1.575  0.1410 -0.3252 -0.5392
 6449TIP3    H143542   5.933   3.492   1.645 -2.6681  0.4969 -0.6205
 6449TIP3    H243543   5.907   3.521   1.499  1.1752  0.2241 -1.4549
 6450TIP3   OH243544   0.399   0.301   0.452 -0.1772  0.5488 -0.2429
 6450TIP3    H143545   0.412   0.351   0.372  0.0375  0.6085 -0.1712
 6450TIP3    H243546   0.472   0.238   0.453 -1.8565 -1.6095 -1.7116
 6451TIP3   OH243547   6.071   2.618   2.396  0.1255  0.4830  0.1386
 6451TIP3    H143548   5.983   2.613   2.435  0.6998 -0.3081  1.3897
 6451TIP3    H243549   6.079   2.537   2.345 -0.0475  0.7870 -0.3754
 6452TIP3   OH243550   3.577   0.161   2.493 -0.3209 -0.3573  0.1359
 6452TIP3    H143551   3.641   0.178   2.561 -0.1702  1.0568 -0.3235
 6452TIP3    H243552   3.533   0.081   2.521  1.6394 -1.3935  0.4465
 6453TIP3   OH243553   0.787   3.211   2.670 -0.0440  0.3185 -0.0085
 6453TIP3    H143554   0.701   3.244   2.644 -0.6136  0.0333  1.3835
 6453TIP3    H243555   0.768   3.134   2.723  1.0893  0.0361  0.0065
 6454TIP3   OH243556   1.603   2.880   0.971 -0.0225 -0.0949 -0.0330
 6454TIP3    H143557   1.650   2.848   1.048  0.5457  0.1035 -0.2955
 6454TIP3    H243558   1.512   2.854   0.987 -0.3268  1.7836  1.7007
 6455TIP3   OH243559   3.550   5.718   1.146 -0.4203 -0.2271 -0.1899
 6455TIP3    H143560   3.600   5.769   1.210 -2.6619 -0.3500  1.7703
 6455TIP3    H243561   3.612   5.651   1.116  1.5113  1.4597 -0.2291
 6456TIP3   OH243562   5.342   3.195   2.614 -0.1614  0.8027 -0.3303
 6456TIP3    H143563   5.422   3.242   2.635 -0.7270  1.4272  0.4618
 6456TIP3    H243564   5.313   3.233   2.531 -0.0352  1.0872 -0.2444
 6457TIP3   OH243565   5.623   6.698   1.124 -0.1025  0.1157 -0.0947
 6457TIP3    H143566   5.669   6.698   1.040 -0.7875 -1.7094 -0.5127
 6457TIP3    H243567   5.676   6.643   1.181  0.3739  1.3719  0.6964
 6458TIP3   OH243568   3.916   3.763   0.560  0.1435 -0.0429  0.1316
 6458TIP3    H143569   3.902   3.679   0.603 -1.4381  1.2215  2.2616
 6458TIP3    H243570   3.856   3.761   0.485 -0.3302 -0.5901  0.5149
 6459TIP3   OH243571   0.804   0.709   1.909 -0.0599  0.5872  0.1448
 6459TIP3    H143572   0.896   0.686   1.921  0.4100  0.9681 -2.3341
 6459TIP3    H243573   0.757   0.652   1.971  1.6216 -1.9336 -0.7397
 6460TIP3   OH243574   3.855   3.197   0.476 -0.4257  0.1766  0.5025
 6460TIP3    H143575   3.946   3.207   0.447  0.5659  0.7501  3.4730
 6460TIP3    H243576   3.804   3.242   0.408  1.4923  0.1548 -1.0694
 6461TIP3   OH243577   6.088   5.111   1.302  0.2775 -0.1067 -0.0201
 6461TIP3    H143578   5.992   5.111   1.297  0.1355  0.1009  1.8957
 6461TIP3    H243579   6.109   5.039   1.362  1.2875  0.2020  0.0138
 6462TIP3   OH243580   0.606   1.185   1.059 -0.2810 -0.6513 -0.0840
 6462TIP3    H143581   0.530   1.190   1.117  0.4554  0.8101  0.8038
 6462TIP3    H243582   0.628   1.092   1.055 -2.9322 -1.3225 -1.4912
 6463TIP3   OH243583   7.380   0.607   1.806 -0.1652 -0.1100  0.4074
 6463TIP3    H143584   7.420   0.522   1.817  0.9002 -0.1680 -2.7950
 6463TIP3    H243585   7.453   0.667   1.794 -0.9273  0.7518 -0.1069
 6464TIP3   OH243586   1.268   5.093   2.669  0.3491 -0.4926  0.5163
 6464TIP3    H143587   1.272   5.165   2.732 -0.0555  0.5780 -0.6516
 6464TIP3    H243588   1.174   5.081   2.653  0.4950  0.2285 -0.9701
 6465TIP3   OH243589   6.039   7.066   1.185  0.0504 -0.2992  0.7009
 6465TIP3    H143590   6.059   6.973   1.172  0.7057 -0.0617 -0.0341
 6465TIP3    H243591   6.113   7.112   1.147 -1.0347  0.5604 -0.4626
 6466TIP3   OH243592   7.214   3.349   1.036 -0.1618  0.7904  0.2725
 6466TIP3    H143593   7.251   3.378   0.952  1.0109 -0.6455  0.2631
 6466TIP3    H243594   7.135   3.301   1.012  0.3488  0.0980 -0.0439
 6467TIP3   OH243595   2.454   4.443   1.063  0.4867  0.1668  0.1185
 6467TIP3    H143596   2.454   4.431   0.968 -1.0450  1.9912 -0.1711
 6467TIP3    H243597   2.530   4.499   1.080  1.7401 -1.4822  0.2347
 6468TIP3   OH243598   7.438   2.626   0.778 -0.2120  0.4369  0.1301
 6468TIP3    H143599   7.352   2.586   0.796  0.2745  0.4202  2.7440
 6468TIP3    H243600   7.423   2.719   0.790  0.0306  0.4736  0.1368
 6469TIP3   OH243601   2.547   0.891   2.709  0.8378  0.1856 -0.3387
 6469TIP3    H143602   2.634   0.907   2.674  1.2302 -1.9548 -0.5179
 6469TIP3    H243603   2.491   0.882   2.631  1.2097 -2.0213 -0.4093
 6470TIP3   OH243604   4.463   6.152   3.393  0.4567  0.6570 -0.4222
 6470TIP3    H143605   4.394   6.215   3.411  0.7510  0.5774  1.0989
 6470TIP3    H243606   4.417   6.069   3.380  0.2518  0.4401  1.3601
 6471TIP3   OH243607   5.064   0.413   3.116  0.4757  0.2472  0.3745
 6471TIP3    H143608   5.120   0.391   3.190  0.2354  0.7589  0.7189
 6471TIP3    H243609   5.005   0.338   3.106  1.8261 -0.7412 -0.6107
 6472TIP3   OH243610   2.278   4.961   1.663 -0.2625 -0.2092  0.3624
 6472TIP3    H143611   2.200   5.015   1.673 -1.3185 -1.3572 -1.1817
 6472TIP3    H243612   2.250   4.874   1.691  0.3946 -0.6714 -0.3840
 6473TIP3   OH243613   3.628   6.523   0.676 -0.0769 -0.2688 -0.3705
 6473TIP3    H143614   3.678   6.560   0.748 -2.6318 -2.5568  2.9223
 6473TIP3    H243615   3.567   6.592   0.650 -0.5827 -0.0617  1.2760
 6474TIP3   OH243616   5.769   5.635   2.228  0.0579 -0.3258 -0.1126
 6474TIP3    H143617   5.802   5.549   2.203 -0.4740 -0.0443 -1.8945
 6474TIP3    H243618   5.689   5.615   2.278  0.8290 -0.8881  0.9283
 6475TIP3   OH243619   1.646   0.330   2.049  0.0333  0.5084  0.0393
 6475TIP3    H143620   1.560   0.298   2.022  0.1098  1.0363 -0.8635
 6475TIP3    H243621   1.629   0.377   2.131 -0.3075 -0.5513  0.5953
 6476TIP3   OH243622   5.918   5.052   0.903  0.2123 -0.6095  0.3370
 6476TIP3    H143623   5.879   5.012   0.981 -0.7731 -1.0767 -0.3680
 6476TIP3    H243624   6.001   5.006   0.891 -0.2665 -1.4979  0.3354
 6477TIP3   OH243625   3.347   1.272   2.542 -0.1560 -0.3281 -0.2312
 6477TIP3    H143626   3.340   1.176   2.534 -2.9473 -0.2421 -0.0996
 6477TIP3    H243627   3.428   1.294   2.497 -0.5359 -2.5769 -2.2950
 6478TIP3   OH243628   5.999   2.926   3.228  0.8628  0.0191  0.0377
 6478TIP3    H143629   6.057   2.999   3.209  1.6770 -1.0939 -2.1783
 6478TIP3    H243630   5.993   2.878   3.145  0.4186 -2.4484  1.3971
 6479TIP3   OH243631   6.707   6.059   3.073 -0.2808  0.4783 -0.2842
 6479TIP3    H143632   6.787   6.097   3.108 -0.3993  0.0704  0.4490
 6479TIP3    H243633   6.705   5.970   3.110 -0.5447  0.1296 -1.1154
 6480TIP3   OH243634   4.862   5.580   2.205 -0.2514  0.3656 -0.2709
 6480TIP3    H143635   4.823   5.632   2.275  1.2128 -1.4267  2.0551
 6480TIP3    H243636   4.929   5.637   2.167 -0.9885  1.3386 -0.1458
 6481TIP3   OH243637   5.689   3.304   1.373  0.6612  0.1162  0.3104
 6481TIP3    H143638   5.610   3.344   1.409  1.8106  1.1049  1.8946
 6481TIP3    H243639   5.714   3.361   1.300  0.4496  0.3439  0.4147
 6482TIP3   OH243640   0.807   2.038   1.262 -0.4283 -0.0674 -0.7367
 6482TIP3    H143641   0.769   1.951   1.277 -2.4738  1.0289  0.8983
 6482TIP3    H243642   0.814   2.045   1.167 -0.5324 -1.8690 -0.9141
 6483TIP3   OH243643   6.542   3.149   0.954  0.6976 -0.0897 -0.3097
 6483TIP3    H143644   6.509   3.190   0.874  0.5048  1.0986  0.3600
 6483TIP3    H243645   6.473   3.087   0.978  0.1976  0.4160 -0.4099
 6484TIP3   OH243646   7.489   6.654   2.922 -0.0278  0.0329 -0.3966
 6484TIP3    H143647   7.469   6.697   2.839 -1.3752 -0.4372 -0.3518
 6484TIP3    H243648   7.500   6.725   2.984 -0.5913  0.3580 -0.6585
 6485TIP3   OH243649   6.252   1.171   1.734  0.0374  0.7320 -0.3981
 6485TIP3    H143650   6.345   1.192   1.741 -0.0577  0.5466  2.1298
 6485TIP3    H243651   6.207   1.253   1.754 -0.3221  0.3065  0.6027
 6486TIP3   OH243652   5.975   4.436   0.824  0.1145 -0.3940 -0.3464
 6486TIP3    H143653   5.958   4.352   0.867  0.0630 -1.1110 -1.7029
 6486TIP3    H243654   5.894   4.455   0.776 -1.3092  2.3283  2.8300
 6487TIP3   OH243655   3.503   7.606   2.623  0.3619 -0.5295 -0.2399
 6487TIP3    H143656   3.571   7.587   2.687 -1.3592 -0.5175  1.6675
 6487TIP3    H243657   3.421   7.592   2.669 -1.0045 -1.4859 -2.7192
 6488TIP3   OH243658   3.886   6.885   2.157 -0.1868 -0.2489 -0.5567
 6488TIP3    H143659   3.979   6.897   2.175 -0.5766 -1.2717  2.6141
 6488TIP3    H243660   3.857   6.970   2.123  1.5521  0.5891 -0.0347
 6489TIP3   OH243661   6.668   0.467   3.237 -0.0052 -0.6226  0.1399
 6489TIP3    H143662   6.582   0.431   3.215 -0.1134  0.3787 -1.1396
 6489TIP3    H243663   6.659   0.497   3.328 -0.6068 -1.6761  0.4360
 6490TIP3   OH243664   4.595   3.997   2.161 -0.0625  0.1246  0.4177
 6490TIP3    H143665   4.523   3.987   2.100 -1.9721 -1.0276  2.7110
 6490TIP3    H243666   4.647   3.917   2.151  0.7346  0.7706 -0.9340
 6491TIP3   OH243667   2.058   4.660   1.134  0.2905 -0.8436 -0.0835
 6491TIP3    H143668   2.024   4.570   1.133 -1.2877 -0.3052  0.4211
 6491TIP3    H243669   2.051   4.686   1.226  0.8683 -0.2458 -0.2044
 6492TIP3   OH243670   0.968   0.517   2.793 -0.1575  0.7021 -0.1369
 6492TIP3    H143671   0.897   0.540   2.733  1.4534 -0.5298 -2.6760
 6492TIP3    H243672   0.999   0.601   2.827 -3.0924  1.2557  1.5309
 6493TIP3   OH243673   5.478   4.895   1.044 -0.1107 -0.4703  0.5764
 6493TIP3    H143674   5.539   4.824   1.066  0.5752 -0.1479 -0.2595
 6493TIP3    H243675   5.461   4.883   0.951  1.0063  1.1995  0.1176
 6494TIP3   OH243676   5.807   4.753   2.954  0.8560  0.2606 -0.2350
 6494TIP3    H143677   5.901   4.756   2.934  0.8039  0.4731 -0.4557
 6494TIP3    H243678   5.787   4.660   2.963  1.2471  0.2447  0.5706
 6495TIP3   OH243679   4.255   3.902   2.130  0.5465  0.2010  0.3682
 6495TIP3    H143680   4.200   3.861   2.063  0.5387  0.7901  0.0038
 6495TIP3    H243681   4.305   3.830   2.168 -1.8203 -0.7096  2.0545
 6496TIP3   OH243682   2.720   3.696   1.421  0.2566  0.0827 -0.9163
 6496TIP3    H143683   2.700   3.638   1.347  0.3482 -0.0147 -0.8643
 6496TIP3    H243684   2.634   3.730   1.448  0.2000 -0.0487 -0.9284
 6497TIP3   OH243685   6.553   2.105   1.810 -0.4971 -0.1978  0.3062
 6497TIP3    H143686   6.482   2.139   1.865 -0.8910  0.6734 -0.7152
 6497TIP3    H243687   6.547   2.155   1.729  0.0952 -1.4472 -0.5359
 6498TIP3   OH243688   3.196   5.792   1.471  0.2026  0.1951  0.6631
 6498TIP3    H143689   3.198   5.802   1.566 -0.8104  1.5533  0.5739
 6498TIP3    H243690   3.260   5.723   1.453 -1.0430 -1.5900  2.5074
 6499TIP3   OH243691   1.077   5.229   1.664  0.2626 -0.2504 -0.2975
 6499TIP3    H143692   1.125   5.259   1.587 -0.3270 -0.1437 -0.6212
 6499TIP3    H243693   1.146   5.212   1.729  0.7997 -0.8638 -1.0141
 6500TIP3   OH243694   2.130   2.566   3.135 -0.6263 -0.2314  0.0214
 6500TIP3    H143695   2.171   2.603   3.056  0.2667  1.4590  1.2071
 6500TIP3    H243696   2.202   2.521   3.180 -1.4907 -2.6764 -0.8964
 6501TIP3   OH243697   2.628   3.847   2.715 -0.2138 -0.1683 -0.3247
 6501TIP3    H143698   2.548   3.828   2.666  0.7226 -2.4572 -1.1115
 6501TIP3    H243699   2.659   3.761   2.745  2.4956  0.4887 -0.9469
 6502TIP3   OH243700   3.395   6.651   1.572  0.1226 -0.1713  0.4111
 6502TIP3    H143701   3.400   6.572   1.627 -0.5154 -0.0049  0.7080
 6502TIP3    H243702   3.340   6.625   1.499 -0.2976  0.0764  0.6395
 6503TIP3   OH243703   7.057   2.227   1.174 -0.0655  0.7266  0.0998
 6503TIP3    H143704   7.085   2.311   1.138 -1.5261  0.9623 -0.5410
 6503TIP3    H243705   7.002   2.250   1.248  0.2531  0.3076  0.4685
 6504TIP3   OH243706   5.923   4.632   1.856  0.1270  0.9983  0.2247
 6504TIP3    H143707   5.957   4.695   1.793 -1.0767  1.7492  0.2865
 6504TIP3    H243708   5.851   4.678   1.899 -0.5740 -0.3149  0.5065
 6505TIP3   OH243709   5.647   3.069   1.538 -0.2344  0.3277 -0.3838
 6505TIP3    H143710   5.647   3.155   1.495  0.2298 -0.7189 -2.6179
 6505TIP3    H243711   5.581   3.019   1.490 -1.1593 -0.3365  1.4756
 6506TIP3   OH243712   2.851   1.907   1.115  0.1107  0.7496  0.1821
 6506TIP3    H143713   2.865   1.996   1.084 -0.1986  0.9374  0.5850
 6506TIP3    H243714   2.857   1.912   1.210  0.7029  0.2322  0.1814
 6507TIP3   OH243715   4.030   1.250   3.392 -0.5269  0.1937 -0.2413
 6507TIP3    H143716   3.939   1.251   3.363 -1.1793 -1.1099  1.5288
 6507TIP3    H243717   4.061   1.161   3.372 -0.2746  0.0160  0.8697
 6508TIP3   OH243718   5.731   0.938   2.565 -0.1771 -0.1169  0.2061
 6508TIP3    H143719   5.792   0.909   2.633  1.8358 -0.0112 -1.4462
 6508TIP3    H243720   5.680   0.860   2.544  1.9394 -1.2767 -0.8985
 6509TIP3   OH243721   1.595   5.695   2.097 -0.3454 -0.4450  0.7451
 6509TIP3    H143722   1.685   5.698   2.065 -0.5277  0.7623  0.2999
 6509TIP3    H243723   1.575   5.602   2.102 -0.1396 -0.7437 -2.2135
 6510TIP3   OH243724   5.699   2.694   1.457 -0.0842 -0.1530 -0.5061
 6510TIP3    H143725   5.613   2.671   1.423  0.0712 -1.5431 -0.0398
 6510TIP3    H243726   5.755   2.619   1.434  0.8617  0.4738 -0.3082
 6511TIP3   OH243727   4.557   6.472   2.663  0.4814 -0.1670  0.1214
 6511TIP3    H143728   4.614   6.396   2.669 -0.7103 -1.0789  0.2595
 6511TIP3    H243729   4.500   6.454   2.588  1.0885  1.2474 -0.7260
 6512TIP3   OH243730   2.378   5.343   2.267 -0.3332 -0.1234 -0.0664
 6512TIP3    H143731   2.397   5.437   2.263  0.8439 -0.3644 -0.2483
 6512TIP3    H243732   2.385   5.322   2.360  1.6508 -0.4676 -0.2621
 6513TIP3   OH243733   0.773   0.385   1.668 -0.5453 -0.0086 -0.0152
 6513TIP3    H143734   0.861   0.385   1.705 -0.6495 -0.7635  0.2692
 6513TIP3    H243735   0.722   0.443   1.725 -0.4518 -0.3346  0.4117
 6514TIP3   OH243736   0.963   7.405   1.049 -0.0088 -0.2246  0.4030
 6514TIP3    H143737   0.997   7.443   0.968  1.4113 -0.8668  0.6771
 6514TIP3    H243738   1.009   7.451   1.119  0.9500 -1.6788  0.7637
 6515TIP3   OH243739   6.800   0.441   2.447 -0.1108  0.7190 -0.2764
 6515TIP3    H143740   6.824   0.472   2.359  0.5023  0.3468 -0.2484
 6515TIP3    H243741   6.721   0.389   2.433 -0.6770  1.6028 -0.4389
 6516TIP3   OH243742   5.488   0.366   2.536  0.5631 -0.4912 -0.0884
 6516TIP3    H143743   5.574   0.325   2.529  1.4087  1.1391  0.4024
 6516TIP3    H243744   5.465   0.388   2.446  1.1317  0.0086 -0.1127
 6517TIP3   OH243745   3.102   0.111   0.809  0.2206 -0.0553 -0.1833
 6517TIP3    H143746   3.192   0.124   0.838  0.3152 -2.1922  0.6730
 6517TIP3    H243747   3.109   0.047   0.738 -0.4665  1.4834 -1.7177
 6518TIP3   OH243748   2.298   7.336   1.806  0.0950 -0.5457  0.4716
 6518TIP3    H143749   2.350   7.392   1.747 -0.0353 -0.0025  0.8592
 6518TIP3    H243750   2.221   7.312   1.755  0.6870 -1.3051 -0.0884
 6519TIP3   OH243751   1.252   6.453   1.075  0.8163  0.0350  0.1321
 6519TIP3    H143752   1.341   6.444   1.044  0.6090  1.0961 -0.8458
 6519TIP3    H243753   1.203   6.487   1.000 -0.7045 -1.7278  0.2417
 6520TIP3   OH243754   4.171   2.219   1.179  0.1914 -0.2376 -0.1954
 6520TIP3    H143755   4.162   2.287   1.111  2.1837  2.1172  1.7266
 6520TIP3    H243756   4.236   2.159   1.144  0.0943  0.0935 -0.9783
 6521TIP3   OH243757   6.652   0.086   0.971 -0.7192  0.0547  0.0553
 6521TIP3    H143758   6.602   0.117   0.896 -1.9219 -0.2315  0.7189
 6521TIP3    H243759   6.594   0.025   1.016 -0.5253  1.1316  1.8985
 6522TIP3   OH243760   6.309   7.394   3.858 -0.3310  0.0438  0.1450
 6522TIP3    H143761   6.236   7.332   3.861  0.3425 -1.0758 -2.7200
 6522TIP3    H243762   6.387   7.339   3.863  0.2819  0.7209 -1.3490
 6523TIP3   OH243763   2.778   6.996   3.209  0.0110  0.4304  0.0853
 6523TIP3    H143764   2.709   7.062   3.219  1.9186  2.7088 -0.8602
 6523TIP3    H243765   2.849   7.027   3.265  0.2223 -2.0448  1.3130
 6524TIP3   OH243766   3.036   3.293   2.440 -0.0200 -0.2428  0.0717
 6524TIP3    H143767   3.054   3.356   2.509 -0.2418  0.4374 -0.4856
 6524TIP3    H243768   2.979   3.228   2.482  0.9601 -0.6000  0.9016
 6525TIP3   OH243769   1.385   2.565   2.024  0.2593  0.6222  0.2625
 6525TIP3    H143770   1.398   2.658   2.045 -1.0550  0.5728  1.4520
 6525TIP3    H243771   1.449   2.519   2.077  2.6364  0.9130 -2.1511
 6526TIP3   OH243772   3.446   2.348   1.032  0.0092 -0.3082  0.2617
 6526TIP3    H143773   3.415   2.339   0.942  1.5144 -1.3560 -0.1983
 6526TIP3    H243774   3.452   2.443   1.046 -0.2189 -0.1349 -0.7460
 6527TIP3   OH243775   2.816   2.320   1.977 -0.1483 -0.0646  0.4499
 6527TIP3    H143776   2.906   2.346   1.996 -0.2703  0.2985  0.5396
 6527TIP3    H243777   2.784   2.280   2.058 -0.0615 -0.2214  0.4085
 6528TIP3   OH243778   5.219   2.923   1.600  0.3186 -0.2115 -0.0419
 6528TIP3    H143779   5.191   2.834   1.580  0.2825 -0.1440 -0.2910
 6528TIP3    H243780   5.143   2.977   1.582  0.3058 -0.1413  0.2158
 6529TIP3   OH243781   0.297   4.872   2.449 -0.2225  0.0514  0.2597
 6529TIP3    H143782   0.340   4.823   2.519  0.0800 -0.0020  0.0385
 6529TIP3    H243783   0.222   4.913   2.492 -0.9390 -1.2450  0.2742
 6530TIP3   OH243784   1.296   5.663   2.512  0.1771  0.2563 -0.0908
 6530TIP3    H143785   1.284   5.751   2.548  0.8273 -0.0054  0.8222
 6530TIP3    H243786   1.345   5.676   2.431  0.0625  0.7492 -0.0837
 6531TIP3   OH243787   1.196   5.434   2.111  0.2822 -0.1583  0.5219
 6531TIP3    H143788   1.141   5.369   2.067 -0.3149  0.1966  0.7391
 6531TIP3    H243789   1.172   5.517   2.072  0.2013  0.0807  1.0748
 6532TIP3   OH243790   1.236   6.517   2.991 -0.5484  0.0893 -0.1846
 6532TIP3    H143791   1.245   6.443   2.931  0.5302  1.8449 -2.3656
 6532TIP3    H243792   1.143   6.519   3.012 -0.8646 -1.0004 -1.3002
 6533TIP3   OH243793   4.174   5.709   0.650 -0.0676 -0.1377  0.1000
 6533TIP3    H143794   4.120   5.639   0.614 -0.0967  0.5187 -1.1859
 6533TIP3    H243795   4.156   5.784   0.594 -0.0312  0.9094  1.4408
 6534TIP3   OH243796   6.226   5.656   2.572  0.9191 -0.2067  0.4263
 6534TIP3    H143797   6.198   5.727   2.630 -0.4929  0.0753 -0.5448
 6534TIP3    H243798   6.183   5.674   2.489 -1.3464 -3.3545  0.7266
 6535TIP3   OH243799   4.234   1.676   2.806  0.3404 -0.0875  0.0459
 6535TIP3    H143800   4.256   1.750   2.749  0.4455 -0.2571 -0.1363
 6535TIP3    H243801   4.191   1.716   2.882  0.7293  0.1897  0.1216
 6536TIP3   OH243802   4.912   0.369   1.194 -0.2080  0.4054 -0.2209
 6536TIP3    H143803   4.936   0.427   1.266  0.8699 -0.4884  0.1460
 6536TIP3    H243804   4.994   0.349   1.150 -0.4420 -1.4222  0.0862
 6537TIP3   OH243805   6.740   0.764   1.955 -0.3039 -0.0511  0.0295
 6537TIP3    H143806   6.789   0.721   1.885  0.2096 -0.5744  0.6892
 6537TIP3    H243807   6.738   0.699   2.026 -0.9727  0.3935  0.4315
 6538TIP3   OH243808   3.505   2.706   1.415 -0.2622  0.3770 -0.7945
 6538TIP3    H143809   3.594   2.698   1.382 -0.4492 -0.6579 -1.0961
 6538TIP3    H243810   3.453   2.649   1.358 -0.9819  0.3691 -0.1507
 6539TIP3   OH243811   1.355   1.369   1.066  0.1221  0.1356 -0.5161
 6539TIP3    H143812   1.318   1.394   1.151  2.0696  0.8809  0.1728
 6539TIP3    H243813   1.355   1.273   1.068 -0.3415  0.1408  0.0906
 6540TIP3   OH243814   3.712   2.028   1.800 -0.1634  0.2326  0.0277
 6540TIP3    H143815   3.624   2.005   1.769 -0.0431 -2.3398  1.2814
 6540TIP3    H243816   3.759   2.051   1.720 -0.9647 -2.1996 -1.2870
 6541TIP3   OH243817   4.874   4.520   1.555 -0.1818  0.3462  0.4763
 6541TIP3    H143818   4.900   4.538   1.464  0.8949  1.0369  0.9049
 6541TIP3    H243819   4.778   4.521   1.553 -0.1722  0.6614 -0.5881
 6542TIP3   OH243820   3.104   3.438   1.883  1.0611 -0.7945 -0.7951
 6542TIP3    H143821   3.146   3.521   1.907  0.2813 -0.6300  0.0491
 6542TIP3    H243822   3.071   3.403   1.965 -2.9143  0.4702 -1.6453
 6543TIP3   OH243823   7.421   5.960   1.762 -0.1696  0.4058 -0.0958
 6543TIP3    H143824   7.397   5.868   1.747  0.8135  0.3778 -1.7540
 6543TIP3    H243825   7.417   5.971   1.857  0.4441 -1.5811  0.2076
 6544TIP3   OH243826   3.720   4.793   2.799  0.5432  0.3073 -0.0484
 6544TIP3    H143827   3.739   4.848   2.875  0.0717  0.0215  0.2826
 6544TIP3    H243828   3.626   4.800   2.787  0.6561  0.6023 -0.8094
 6545TIP3   OH243829   5.701   2.450   2.655  0.1206 -0.0365  0.0369
 6545TIP3    H143830   5.726   2.380   2.716  0.0885 -0.9853 -1.0094
 6545TIP3    H243831   5.622   2.417   2.613  1.1696 -0.2459 -1.8580
 6546TIP3   OH243832   0.926   0.834   1.498  0.7942 -0.2914  0.0095
 6546TIP3    H143833   0.939   0.924   1.527  1.5019 -0.3012 -0.2663
 6546TIP3    H243834   0.850   0.803   1.549  0.1091  0.6749 -0.4015
 6547TIP3   OH243835   6.019   4.422   2.294 -0.0134 -0.2777  0.6566
 6547TIP3    H143836   6.048   4.482   2.362 -1.8252 -1.3778  2.5219
 6547TIP3    H243837   5.936   4.457   2.264  1.2670  0.8326 -1.9642
 6548TIP3   OH243838   1.254   2.235   0.612 -0.1882 -0.1023  0.2524
 6548TIP3    H143839   1.252   2.160   0.552  0.2492  0.3062 -0.2738
 6548TIP3    H243840   1.296   2.201   0.691  3.0400  0.3839 -1.1181
 6549TIP3   OH243841   0.111   7.317   0.741 -0.0777 -0.0082  0.6337
 6549TIP3    H143842   0.174   7.381   0.774  2.0752 -1.9464  0.5855
 6549TIP3    H243843   0.070   7.359   0.666  1.0141  1.4301  0.8025
 6550TIP3   OH243844   5.248   1.979   2.465  0.0550 -0.3295  0.3211
 6550TIP3    H143845   5.324   1.941   2.509  0.9687  3.0878  2.0618
 6550TIP3    H243846   5.174   1.926   2.494  1.2403 -1.0148  2.3076
 6551TIP3   OH243847   7.351   4.055   1.603 -0.0161 -0.4617 -0.4313
 6551TIP3    H143848   7.380   4.044   1.512  0.5020  0.6060 -0.4027
 6551TIP3    H243849   7.430   4.042   1.655 -0.1803 -0.4026 -0.1696
 6552TIP3   OH243850   2.559   4.166   0.842 -0.0733 -0.0422 -0.0329
 6552TIP3    H143851   2.566   4.222   0.764  0.4252  0.3041  0.2545
 6552TIP3    H243852   2.483   4.110   0.824 -1.1335  1.3149  0.0379
 6553TIP3   OH243853   0.464   0.086   3.057  0.1790  0.1550 -0.4254
 6553TIP3    H143854   0.396   0.050   3.115  1.7909 -0.5524  1.1094
 6553TIP3    H243855   0.415   0.122   2.983 -1.8549 -0.4969  0.5191
 6554TIP3   OH243856   6.190   3.319   1.686 -0.4364 -0.3150 -0.7145
 6554TIP3    H143857   6.136   3.338   1.609 -0.8172  0.4573 -0.2663
 6554TIP3    H243858   6.202   3.404   1.728 -0.3767 -0.7566  0.1763
 6555TIP3   OH243859   4.250   6.868   2.796  0.1379  0.2748 -0.0108
 6555TIP3    H143860   4.209   6.922   2.728 -2.9423 -1.4742  0.3156
 6555TIP3    H243861   4.316   6.817   2.749 -0.3078  0.7912 -1.2389
 6556TIP3   OH243862   7.597   6.220   2.109  0.6019  0.9758 -0.5010
 6556TIP3    H143863   7.538   6.226   2.034  1.0989  0.7564 -0.9123
 6556TIP3    H243864   7.567   6.144   2.158  1.4588 -0.0523 -1.5197
 6557TIP3   OH243865   4.655   5.318   1.583 -0.0207 -0.1013  0.0139
 6557TIP3    H143866   4.654   5.264   1.663 -3.0507 -1.0376 -0.5285
 6557TIP3    H243867   4.621   5.403   1.611  1.2903  0.4145  0.1397
 6558TIP3   OH243868   3.758   7.154   1.766 -0.2463  0.2358  0.7242
 6558TIP3    H143869   3.707   7.144   1.846 -1.9507  0.2355 -0.3292
 6558TIP3    H243870   3.703   7.117   1.697  1.0324  0.5540 -0.5099
 6559TIP3   OH243871   1.272   3.056   2.229  0.6531  0.2535 -0.1119
 6559TIP3    H143872   1.335   3.128   2.219  1.0513  0.1490  1.3721
 6559TIP3    H243873   1.262   3.046   2.324 -0.5662 -0.6465 -0.3089
 6560TIP3   OH243874   7.532   3.251   0.861  0.0481 -0.4491  0.0995
 6560TIP3    H143875   7.574   3.333   0.885  0.9811 -1.0731  0.6964
 6560TIP3    H243876   7.523   3.203   0.944 -1.2590 -0.6114 -0.1100
 6561TIP3   OH243877   3.799   5.953   0.479 -0.6538 -0.8054  0.3167
 6561TIP3    H143878   3.828   5.982   0.566  0.8537 -1.8159  0.1794
 6561TIP3    H243879   3.758   6.031   0.441  1.0471  0.4599  0.9206
 6562TIP3   OH243880   5.067   5.458   1.320 -0.3466  0.2174  0.0554
 6562TIP3    H143881   5.054   5.424   1.232  0.2694 -0.1083  0.0854
 6562TIP3    H243882   5.006   5.409   1.375  0.9315 -1.2781  0.1984
 6563TIP3   OH243883   1.264   0.989   1.383  0.2745  0.0178  0.1188
 6563TIP3    H143884   1.351   1.014   1.351  0.1569  1.2668  0.6905
 6563TIP3    H243885   1.209   1.064   1.361 -0.5158 -0.4895  0.3428
 6564TIP3   OH243886   4.547   7.188   3.401 -0.1483 -0.2842 -0.8037
 6564TIP3    H143887   4.495   7.249   3.454 -0.1690 -0.2052 -0.9148
 6564TIP3    H243888   4.632   7.186   3.443 -0.4781 -1.0340 -0.1386
 6565TIP3   OH243889   5.873   0.515   1.860  0.2771 -0.2245 -0.5115
 6565TIP3    H143890   5.877   0.609   1.879 -1.5839  0.0693 -1.4092
 6565TIP3    H243891   5.964   0.486   1.861  0.7792  1.2550  1.3556
 6566TIP3   OH243892   1.407   0.793   3.270  0.1632  0.1831  0.3962
 6566TIP3    H143893   1.398   0.885   3.245  0.6731  0.3664  0.8645
 6566TIP3    H243894   1.340   0.748   3.219  1.1014  0.5430 -1.1965
 6567TIP3   OH243895   6.404   5.719   1.806  0.6944  0.0322  0.1113
 6567TIP3    H143896   6.493   5.736   1.837  0.0553  0.6971  1.7478
 6567TIP3    H243897   6.355   5.797   1.833 -0.3713 -0.3012 -0.8063
 6568TIP3   OH243898   4.112   2.458   1.900 -0.0310  0.1914  0.6743
 6568TIP3    H143899   4.122   2.494   1.988 -0.5190  0.1192  0.7670
 6568TIP3    H243900   4.201   2.450   1.866  0.3887 -2.1061  2.0951
 6569TIP3   OH243901   7.110   4.664   1.470  0.1303  0.1785  0.5980
 6569TIP3    H143902   7.117   4.572   1.495  1.3391  0.4127  1.2042
 6569TIP3    H243903   7.017   4.678   1.454 -0.1430 -0.9920  1.1032
 6570TIP3   OH243904   6.924   1.701   3.350 -0.0417 -0.1082 -0.2725
 6570TIP3    H143905   6.935   1.734   3.261  1.7912  1.2161  0.3744
 6570TIP3    H243906   6.875   1.769   3.395 -1.8819 -1.2422 -0.4748
 6571TIP3   OH243907   1.055   1.739   2.094 -0.2235  0.0545 -0.5774
 6571TIP3    H143908   0.988   1.789   2.141 -1.4081  0.7144 -2.8323
 6571TIP3    H243909   1.047   1.768   2.003  2.7891 -0.2559 -1.0433
 6572TIP3   OH243910   4.418   5.583   1.949 -0.6670 -0.0347 -0.0287
 6572TIP3    H143911   4.408   5.495   1.986  1.5057 -0.6827 -0.8426
 6572TIP3    H243912   4.474   5.629   2.011  2.3019 -0.8665 -1.9078
 6573TIP3   OH243913   1.115   7.439   0.568  0.5914 -0.3294  0.2812
 6573TIP3    H143914   1.022   7.417   0.558  0.9767 -2.0444  0.0754
 6573TIP3    H243915   1.120   7.533   0.549 -0.7729 -0.6529 -2.0587
 6574TIP3   OH243916   5.927   2.525   3.397  0.2656  0.3129 -0.0675
 6574TIP3    H143917   5.863   2.557   3.460  0.0411  0.2619 -0.2682
 6574TIP3    H243918   6.009   2.566   3.423  0.5738 -1.1870  1.4051
 6575TIP3   OH243919   5.242   6.220   2.160  0.3187  0.1969 -0.0087
 6575TIP3    H143920   5.307   6.286   2.182  2.1240 -1.0626 -1.2795
 6575TIP3    H243921   5.283   6.137   2.183 -1.2333 -0.6037  0.0294
 6576TIP3   OH243922   5.734   5.894   2.127  0.0873 -0.0248 -1.1271
 6576TIP3    H143923   5.813   5.945   2.145  0.3160  0.0062 -2.1725
 6576TIP3    H243924   5.745   5.815   2.181 -0.5323  1.2225  0.9264
 6577TIP3   OH243925   0.838   5.610   1.022 -0.2146  0.2028  0.0820
 6577TIP3    H143926   0.926   5.574   1.023  0.4818  1.7123 -1.3240
 6577TIP3    H243927   0.845   5.688   0.965 -1.3803  3.0043  3.4222
 6578TIP3   OH243928   1.456   5.214   0.544 -0.1706  0.3949  0.0216
 6578TIP3    H143929   1.413   5.288   0.501  1.3603  0.7034 -1.0445
 6578TIP3    H243930   1.429   5.220   0.636 -1.6457  1.0835 -0.4319
 6579TIP3   OH243931   6.807   5.533   1.901 -0.0053  0.6812  0.0708
 6579TIP3    H143932   6.813   5.444   1.868 -0.5816  1.6415 -2.9523
 6579TIP3    H243933   6.819   5.525   1.995  1.7219 -2.3742 -0.2792
 6580TIP3   OH243934   4.569   6.776   1.383  0.1572  0.0931  0.5608
 6580TIP3    H143935   4.521   6.694   1.377 -0.0806  0.2580  0.1774
 6580TIP3    H243936   4.553   6.820   1.300  1.4644 -0.1122  0.1835
 6581TIP3   OH243937   2.448   2.046   2.109  0.4871 -0.0763  0.1879
 6581TIP3    H143938   2.502   2.110   2.156 -0.2503 -0.6722  1.9557
 6581TIP3    H243939   2.493   2.032   2.026  2.8302 -0.2230  1.3865
 6582TIP3   OH243940   5.860   6.065   0.616  0.0487  0.2319 -0.8767
 6582TIP3    H143941   5.850   6.004   0.543  0.5085 -0.0875 -0.6758
 6582TIP3    H243942   5.786   6.046   0.674  1.1550 -1.3706  0.0637
 6583TIP3   OH243943   2.826   1.154   2.052 -0.4936 -0.4395  0.0945
 6583TIP3    H143944   2.850   1.229   2.107 -1.4537  0.1857 -0.3101
 6583TIP3    H243945   2.872   1.170   1.969 -0.4937 -0.4297  0.0963
 6584TIP3   OH243946   7.640   1.117   1.625 -0.2823  0.2833  0.3231
 6584TIP3    H143947   7.625   1.208   1.600  1.1136  0.5016  0.2051
 6584TIP3    H243948   7.589   1.066   1.563 -0.8716  0.9747  0.2287
 6585TIP3   OH243949   5.942   2.446   1.673 -0.4691  0.3618 -0.7127
 6585TIP3    H143950   5.898   2.529   1.691 -0.7963  0.1278 -0.4104
 6585TIP3    H243951   6.026   2.453   1.717 -1.3830 -0.3275  1.2556
 6586TIP3   OH243952   7.157   7.035   1.210  0.3055 -0.4218 -0.2736
 6586TIP3    H143953   7.179   6.942   1.202 -3.9128 -1.6996  0.1617
 6586TIP3    H243954   7.138   7.063   1.120 -0.1089 -0.5364 -0.2263
 6587TIP3   OH243955   1.608   4.059   2.025 -0.2095 -0.5821 -0.1377
 6587TIP3    H143956   1.565   4.128   1.974 -1.5407 -0.9602  0.4255
 6587TIP3    H243957   1.691   4.045   1.980 -0.2947  0.7661 -0.7820
 6588TIP3   OH243958   4.015   1.805   1.156 -0.2373 -0.4100 -0.4609
 6588TIP3    H143959   3.924   1.819   1.181  0.2145  1.6728  0.1622
 6588TIP3    H243960   4.022   1.843   1.068  0.0275 -0.5498 -0.5029
 6589TIP3   OH243961   1.300   1.031   2.345 -0.1472  0.2248  0.3397
 6589TIP3    H143962   1.296   1.076   2.429  0.8299  0.2437  0.3908
 6589TIP3    H243963   1.213   1.041   2.308 -0.8246 -0.4429  1.6921
 6590TIP3   OH243964   0.472   7.523   0.466  0.4860 -0.3411  0.2556
 6590TIP3    H143965   0.383   7.557   0.459  0.3462 -0.9525 -1.5315
 6590TIP3    H243966   0.462   7.428   0.473  0.9935 -0.4332 -0.1859
 6591TIP3   OH243967   1.521   1.360   1.715 -0.5359  0.5705 -0.1236
 6591TIP3    H143968   1.556   1.378   1.802  1.4307 -1.6192 -0.3858
 6591TIP3    H243969   1.451   1.296   1.730 -0.1296  0.1166 -0.1413
 6592TIP3   OH243970   6.352   7.121   2.347  0.1263 -0.3009 -0.0709
 6592TIP3    H143971   6.327   7.163   2.429  1.1584 -1.8358  1.0842
 6592TIP3    H243972   6.315   7.033   2.352 -2.3297  0.4259 -2.6002
 6593TIP3   OH243973   2.815   3.874   2.183 -1.0728  0.6651 -0.2368
 6593TIP3    H143974   2.866   3.954   2.199 -1.3647  0.8398 -0.1637
 6593TIP3    H243975   2.781   3.884   2.094 -1.0357  0.5825 -0.2603
 6594TIP3   OH243976   2.148   0.277   1.920 -0.7710  0.1414  0.0120
 6594TIP3    H143977   2.178   0.355   1.873 -0.3022 -0.7938 -1.2989
 6594TIP3    H243978   2.208   0.208   1.893 -1.1680 -0.6902  1.1671
 6595TIP3   OH243979   1.134   4.459   1.117  0.3046 -0.0065  0.1656
 6595TIP3    H143980   1.181   4.533   1.079 -0.3835  0.9816  1.1930
 6595TIP3    H243981   1.178   4.442   1.200 -0.9478  0.7614  1.0157
 6596TIP3   OH243982   3.748   0.166   2.723 -0.3729 -0.8376 -0.1400
 6596TIP3    H143983   3.672   0.160   2.781 -1.1961 -3.5111 -1.3688
 6596TIP3    H243984   3.802   0.090   2.745  0.4543 -0.6122 -1.2925
 6597TIP3   OH243985   1.615   4.505   1.142  0.0404  0.5109 -0.1704
 6597TIP3    H143986   1.555   4.472   1.076 -0.2566  1.0549 -0.1814
 6597TIP3    H243987   1.560   4.519   1.219  0.5564 -1.0141  0.5062
 6598TIP3   OH243988   4.554   2.323   1.046  0.1686  0.0738  0.3063
 6598TIP3    H143989   4.501   2.380   1.102 -0.5932 -0.1642 -0.1543
 6598TIP3    H243990   4.495   2.252   1.021 -0.1704  1.2093 -2.4390
 6599TIP3   OH243991   4.860   1.120   3.417 -0.1281  0.0120  0.4628
 6599TIP3    H143992   4.913   1.102   3.340  0.2058  0.7255  0.5124
 6599TIP3    H243993   4.915   1.176   3.472 -0.5048 -0.1664  1.0431
 6600TIP3   OH243994   6.847   4.340   0.802 -0.6857  0.3133 -0.6200
 6600TIP3    H143995   6.765   4.298   0.774 -0.4731 -0.6258  0.1089
 6600TIP3    H243996   6.908   4.267   0.811  0.1681  0.9806 -0.9088
 6601TIP3   OH243997   4.122   7.584   2.393 -0.2377  0.8756 -0.2813
 6601TIP3    H143998   4.072   7.657   2.356 -0.5378  1.0506  0.4367
 6601TIP3    H243999   4.123   7.601   2.487 -0.9144 -0.4002 -0.0113
 6602TIP3   OH244000   6.148   6.734   2.627  0.5026  0.2746 -0.8707
 6602TIP3    H144001   6.144   6.655   2.680 -2.0482  1.7772  1.4597
 6602TIP3    H244002   6.228   6.779   2.658 -0.9351  1.1413  2.0017
 6603TIP3   OH244003   0.332   6.531   0.651  0.3582 -0.0340 -0.1863
 6603TIP3    H144004   0.268   6.484   0.705  0.2190 -0.8848 -1.0779
 6603TIP3    H244005   0.381   6.462   0.607  1.3670  0.6279 -0.1321
 6604TIP3   OH244006   4.983   0.191   1.533 -0.2426  0.2296 -0.1681
 6604TIP3    H144007   4.900   0.238   1.537 -0.9453 -0.9911  0.2337
 6604TIP3    H244008   4.962   0.110   1.487  0.7543 -0.0387 -0.1649
 6605TIP3   OH244009   0.655   3.702   1.373  0.0941  0.6590  0.5595
 6605TIP3    H144010   0.729   3.647   1.348 -0.3152  0.6418 -0.6771
 6605TIP3    H244011   0.579   3.643   1.368 -0.4000  1.3874 -1.1567
 6606TIP3   OH244012   6.162   6.882   1.595  0.3226 -0.0489  0.4984
 6606TIP3    H144013   6.129   6.810   1.542  2.1346  0.3455 -1.3142
 6606TIP3    H244014   6.115   6.875   1.678 -3.2031 -0.2423 -1.3617
 6607TIP3   OH244015   0.360   6.281   1.852  0.1555 -0.0203 -0.1809
 6607TIP3    H144016   0.282   6.302   1.801  0.9268  0.2065 -1.2925
 6607TIP3    H244017   0.328   6.225   1.923 -1.2243  1.1962  0.2037
 6608TIP3   OH244018   4.912   3.331   2.790  0.6273 -0.0313 -0.0998
 6608TIP3    H144019   4.871   3.358   2.873 -2.5867 -0.2425 -1.4548
 6608TIP3    H244020   4.908   3.236   2.792  0.7826 -0.0429 -0.3629
 6609TIP3   OH244021   4.783   2.334   3.726  0.1091 -0.5578 -0.1691
 6609TIP3    H144022   4.692   2.316   3.704 -0.0334  0.6750 -0.6756
 6609TIP3    H244023   4.815   2.387   3.653  1.6756 -2.1797 -0.7551
 6610TIP3   OH244024   6.056   6.182   7.657 -0.0778  0.0769 -0.4245
 6610TIP3    H144025   6.095   6.265   7.629  0.7904 -0.1877 -0.0214
 6610TIP3    H244026   6.109   6.154   7.732  0.9121 -1.8468 -1.7707
 6611TIP3   OH244027   1.747   5.813   0.776  0.1193 -0.0408  0.3941
 6611TIP3    H144028   1.703   5.878   0.831  2.3236  0.5609  1.5585
 6611TIP3    H244029   1.753   5.735   0.832  0.4354 -0.1518  0.2075
 6612TIP3   OH244030   1.855   1.516   2.141 -0.2461  0.0677  0.2921
 6612TIP3    H144031   1.841   1.507   2.235 -0.1059  1.6238  0.5018
 6612TIP3    H244032   1.940   1.560   2.133  0.4252 -1.3057 -0.6366
 6613TIP3   OH244033   6.735   1.620   0.792 -0.5646 -0.4217 -0.3331
 6613TIP3    H144034   6.700   1.686   0.733 -0.7402  2.5027  2.7622
 6613TIP3    H244035   6.830   1.636   0.792 -0.6005 -0.1612  0.3712
 6614TIP3   OH244036   4.346   1.524   1.064  1.0998 -0.2280 -0.1087
 6614TIP3    H144037   4.398   1.453   1.027  0.0050 -0.5861 -1.0065
 6614TIP3    H244038   4.301   1.484   1.138 -0.4474 -0.8377 -1.3281
 6615TIP3   OH244039   0.231   0.321   1.326 -1.0814 -0.3089 -0.0147
 6615TIP3    H144040   0.268   0.386   1.386 -0.4025 -0.9272  0.2522
 6615TIP3    H244041   0.159   0.281   1.376 -2.2543  0.9934 -0.5864
 6616TIP3   OH244042   4.632   1.043   1.344  0.2795 -0.3051 -0.2086
 6616TIP3    H144043   4.650   1.005   1.429  2.7396  0.1826 -0.4277
 6616TIP3    H244044   4.717   1.047   1.301 -0.4463  1.9191 -1.6426
 6617TIP3   OH244045   0.926   0.347   0.544 -0.4839 -0.1182  0.1698
 6617TIP3    H144046   1.007   0.330   0.496 -0.3231 -2.1974  1.0744
 6617TIP3    H244047   0.953   0.402   0.618  0.2381 -1.2292  0.7614
 6618TIP3   OH244048   0.271   6.794   3.282  0.4275 -0.0209 -0.0605
 6618TIP3    H144049   0.323   6.781   3.361 -0.1754  1.0586  0.5423
 6618TIP3    H244050   0.328   6.844   3.223  0.3730  0.4508  0.2786
 6619TIP3   OH244051   3.867   3.057   2.385  0.0679  0.3095  0.2588
 6619TIP3    H144052   3.788   3.081   2.336 -0.3046 -1.1506  0.1195
 6619TIP3    H244053   3.853   2.967   2.412 -0.1152  1.2595  3.8587
 6620TIP3   OH244054   7.047   2.563   0.739  0.0458 -0.1376  0.1927
 6620TIP3    H144055   7.025   2.655   0.751 -0.7289 -0.4010  0.9233
 6620TIP3    H244056   7.040   2.549   0.645  0.6833  0.6635  0.0161
 6621TIP3   OH244057   3.493   1.390   1.735  0.0332  0.5180 -0.3610
 6621TIP3    H144058   3.416   1.411   1.681 -1.2419 -0.5768  0.9440
 6621TIP3    H244059   3.527   1.475   1.763 -2.1135  1.0392  0.9004
 6622TIP3   OH244060   7.412   2.747   2.660  0.1396 -0.1932 -0.0971
 6622TIP3    H144061   7.390   2.654   2.647  0.1308 -0.7203  2.8438
 6622TIP3    H244062   7.500   2.746   2.698  0.2633  1.0320 -0.3080
 6623TIP3   OH244063   6.131   6.482   2.831 -0.4829 -0.7311 -0.3187
 6623TIP3    H144064   6.223   6.493   2.858 -0.5581 -1.9501  0.4839
 6623TIP3    H244065   6.121   6.388   2.817 -1.1849 -0.4318 -2.0193
 6624TIP3   OH244066   3.446   4.443   0.455  0.9661 -0.4471 -0.2652
 6624TIP3    H144067   3.482   4.355   0.455 -1.7031 -1.6463 -0.7069
 6624TIP3    H244068   3.480   4.483   0.376  0.3339 -1.9636 -1.3453
 6625TIP3   OH244069   5.454   1.657   0.673  0.5672  0.1432 -0.0777
 6625TIP3    H144070   5.417   1.746   0.680 -1.1279 -0.4750 -0.5759
 6625TIP3    H244071   5.547   1.671   0.660  0.4727  1.8327  0.7632
 6626TIP3   OH244072   4.966   5.387   0.907 -0.8062 -0.0989 -0.2952
 6626TIP3    H144073   5.011   5.304   0.919  1.3022  1.1084  0.6929
 6626TIP3    H244074   4.875   5.362   0.889 -0.8307 -2.5909  2.4120
 6627TIP3   OH244075   0.822   6.489   1.965  0.5502  0.1013 -0.3399
 6627TIP3    H144076   0.755   6.447   1.911 -0.6394  0.7829  0.5776
 6627TIP3    H244077   0.877   6.537   1.902 -0.2149  0.0823 -1.0380
 6628TIP3   OH244078   5.931   7.069   2.280  0.2012  0.6388 -0.0482
 6628TIP3    H144079   5.997   7.059   2.211 -1.9300 -0.5307 -2.0646
 6628TIP3    H244080   5.882   7.147   2.255 -1.0185 -0.1763 -0.3108
 6629TIP3   OH244081   7.389   6.459   0.774 -0.3379  0.7320 -0.2680
 6629TIP3    H144082   7.417   6.448   0.865 -1.0863  0.0577 -0.1028
 6629TIP3    H244083   7.303   6.501   0.780 -0.8590 -0.2515 -0.6029
 6630TIP3   OH244084   7.045   4.915   1.020  0.1934 -0.0606 -0.8936
 6630TIP3    H144085   7.113   4.897   0.955  1.0130  1.2758 -0.4443
 6630TIP3    H244086   7.092   4.928   1.102 -0.6696  0.0411 -0.3968
 6631TIP3   OH244087   0.422   3.040   1.190  0.5761 -0.0611 -0.5493
 6631TIP3    H144088   0.362   3.011   1.258  1.3790  0.6027  0.4581
 6631TIP3    H244089   0.406   2.979   1.117 -1.3879  0.1845 -0.3704
 6632TIP3   OH244090   1.023   4.200   1.002  0.0684  0.0496 -0.6340
 6632TIP3    H144091   1.063   4.287   0.998 -0.7468  0.3838 -1.7947
 6632TIP3    H244092   0.929   4.216   1.003 -0.1105 -0.7496  1.6138
 6633TIP3   OH244093   2.409   6.415   3.393  0.0134  0.3318  0.1657
 6633TIP3    H144094   2.349   6.405   3.467 -0.8891 -0.5978 -0.6697
 6633TIP3    H244095   2.359   6.388   3.316  1.6508 -1.0277 -0.5088
 6634TIP3   OH244096   6.552   6.364   2.317 -0.0371  0.4317 -0.2225
 6634TIP3    H144097   6.463   6.399   2.314 -0.3315 -0.1077  1.3135
 6634TIP3    H244098   6.547   6.280   2.273 -0.0903  0.7684 -0.8731
 6635TIP3   OH244099   1.763   4.305   0.749  0.3243 -0.3203  0.0051
 6635TIP3    H144100   1.769   4.400   0.761  1.2770 -0.4424  0.5706
 6635TIP3    H244101   1.737   4.272   0.835  2.5011 -0.7803  0.5476
 6636TIP3   OH244102   5.628   5.506   2.551 -0.1902 -0.1708  0.0280
 6636TIP3    H144103   5.588   5.542   2.471  1.2737  0.2434 -0.5410
 6636TIP3    H244104   5.605   5.570   2.619 -0.4962  0.0584 -0.2837
 6637TIP3   OH244105   1.635   3.377   0.500 -0.4392 -0.5481  0.3677
 6637TIP3    H144106   1.558   3.337   0.540 -0.6298  1.0747  1.7321
 6637TIP3    H244107   1.663   3.314   0.433 -1.7829 -2.0611  1.1650
 6638TIP3   OH244108   2.437   6.671   1.094  0.2818  0.0047  0.0026
 6638TIP3    H144109   2.479   6.607   1.036 -0.4893 -1.1104  0.6466
 6638TIP3    H244110   2.380   6.721   1.036  0.8087  0.0494 -0.4918
 6639TIP3   OH244111   0.277   3.449   1.498 -0.6539  0.3809  0.3239
 6639TIP3    H144112   0.182   3.457   1.509 -0.7038  0.1212  0.0953
 6639TIP3    H244113   0.296   3.358   1.523 -0.7815 -0.2593 -1.7621
 6640TIP3   OH244114   4.988   2.265   2.786 -0.4107  0.5176  0.1778
 6640TIP3    H144115   5.040   2.288   2.709  1.4494 -0.2566  1.1288
 6640TIP3    H244116   4.936   2.190   2.758  1.7876 -1.1181  0.1610
 6641TIP3   OH244117   1.037   1.466   1.188 -0.6691  0.4332 -0.1106
 6641TIP3    H144118   0.953   1.429   1.159 -0.4973 -0.4539  0.4786
 6641TIP3    H244119   1.071   1.511   1.111 -0.5814 -1.1927 -1.0763
 6642TIP3   OH244120   4.680   0.312   2.411 -0.1360  0.0602  0.1974
 6642TIP3    H144121   4.715   0.389   2.456 -1.5296  0.0165  1.4293
 6642TIP3    H244122   4.753   0.281   2.358  0.9588  1.2878  0.9070
 6643TIP3   OH244123   4.522   2.044   2.495  0.5242  0.4375  0.0772
 6643TIP3    H144124   4.540   1.966   2.547 -1.3757 -0.0447  0.0811
 6643TIP3    H244125   4.526   2.014   2.404  0.5592  0.5178  0.0518
 6644TIP3   OH244126   0.465   5.457   1.528  0.0003  0.2138 -0.1428
 6644TIP3    H144127   0.519   5.534   1.510 -0.1140 -0.0684 -1.8055
 6644TIP3    H244128   0.397   5.458   1.460  0.4363 -1.7531 -0.6823
 6645TIP3   OH244129   2.573   7.524   2.504  0.1329  0.3284  0.1594
 6645TIP3    H144130   2.565   7.546   2.597 -0.8350 -0.2172  0.2285
 6645TIP3    H244131   2.652   7.568   2.475  0.5693  0.3360  1.3002
 6646TIP3   OH244132   7.271   0.076   0.948  0.0278  0.7996  0.1819
 6646TIP3    H144133   7.251   0.093   1.040  0.7871  1.3191  0.2603
 6646TIP3    H244134   7.195   0.110   0.900 -0.6220  0.0246  0.6426
 6647TIP3   OH244135   4.312   4.096   0.954 -0.4135 -0.1007  0.3312
 6647TIP3    H144136   4.234   4.048   0.982 -0.0113 -0.1085  1.5214
 6647TIP3    H244137   4.319   4.168   1.016  0.1501  0.2919 -0.1753
 6648TIP3   OH244138   6.046   0.877   0.512  0.3395 -1.0582  0.0269
 6648TIP3    H144139   6.102   0.883   0.434 -0.3389 -0.0370 -0.3977
 6648TIP3    H244140   6.027   0.967   0.535 -1.0268 -1.3795  0.2424
 6649TIP3   OH244141   7.518   5.410   1.062  0.2082  0.3125  0.3134
 6649TIP3    H144142   7.601   5.391   1.019  0.4103 -2.8187  1.8211
 6649TIP3    H244143   7.455   5.353   1.019 -0.5275  0.4492  1.1784
 6650TIP3   OH244144   0.996   5.314   1.950  0.7206  0.6028  0.4605
 6650TIP3    H144145   1.015   5.301   1.857  0.0843  1.7916  0.1480
 6650TIP3    H244146   0.950   5.235   1.977 -1.1695  1.2168 -0.8235
 6651TIP3   OH244147   3.245   0.895   1.214  0.4835  0.8466 -0.2459
 6651TIP3    H144148   3.209   0.984   1.213  0.3240  0.8226 -2.7387
 6651TIP3    H244149   3.328   0.903   1.166  1.3477 -0.0535  1.0352
 6652TIP3   OH244150   0.141   0.291   1.771  0.5145  0.3364 -0.2399
 6652TIP3    H144151   0.214   0.307   1.830 -1.0724 -0.5915  2.1417
 6652TIP3    H244152   0.076   0.245   1.825 -1.3983  0.1573 -2.5135
 6653TIP3   OH244153   6.949   0.584   1.363  0.4971  0.1858  0.2214
 6653TIP3    H144154   7.028   0.577   1.418 -0.1275  1.0172  1.2419
 6653TIP3    H244155   6.916   0.672   1.379 -1.2306 -0.5054  0.6204
 6654TIP3   OH244156   5.325   6.448   1.382  0.0795  0.0315  0.8516
 6654TIP3    H144157   5.285   6.505   1.448  1.1344  2.8479 -0.7240
 6654TIP3    H244158   5.415   6.438   1.411  0.0581 -0.3170  0.7972
 6655TIP3   OH244159   4.050   6.619   2.033 -0.6732 -0.3128  0.4539
 6655TIP3    H144160   3.965   6.662   2.019  0.4266  1.6353 -0.8421
 6655TIP3    H244161   4.028   6.530   2.059 -3.1107  0.3326  0.8830
 6656TIP3   OH244162   2.534   3.220   2.029 -0.0267  0.5029 -0.5925
 6656TIP3    H144163   2.498   3.305   2.056  0.9509  0.7497 -0.0099
 6656TIP3    H244164   2.513   3.214   1.935  0.0213  1.4493 -0.6758
 6657TIP3   OH244165   3.030   1.113   2.917 -0.2253  0.3075 -0.3092
 6657TIP3    H144166   3.121   1.123   2.889  0.1878 -0.0404  0.8551
 6657TIP3    H244167   3.025   1.023   2.950 -0.5938  0.7856  0.9965
 6658TIP3   OH244168   0.606   7.030   0.612 -0.3659 -0.5050 -0.1547
 6658TIP3    H144169   0.566   6.995   0.692  0.8726 -2.0696 -0.1706
 6658TIP3    H244170   0.615   6.954   0.555 -1.0252  0.5517 -1.7333
 6659TIP3   OH244171   7.243   0.675   0.749  0.5755 -0.0960  0.0982
 6659TIP3    H144172   7.269   0.613   0.818  0.9505 -0.8194 -0.6645
 6659TIP3    H244173   7.201   0.620   0.682  0.9368  0.4691 -0.6079
 6660TIP3   OH244174   6.664   7.059   1.918 -0.6762 -0.1839 -0.1872
 6660TIP3    H144175   6.625   7.040   2.003 -0.3879 -1.7599 -0.3774
 6660TIP3    H244176   6.758   7.066   1.936 -0.6172 -0.4997 -0.3706
 6661TIP3   OH244177   2.812   4.365   1.315 -0.0432 -0.1502 -0.0249
 6661TIP3    H144178   2.782   4.338   1.228  0.9441  1.1645 -0.8135
 6661TIP3    H244179   2.873   4.296   1.341  2.0550  0.8958 -1.7852
 6662TIP3   OH244180   2.587   7.232   1.121 -0.3806  0.5415  0.0395
 6662TIP3    H144181   2.541   7.154   1.088  0.2067 -0.0615  0.6335
 6662TIP3    H244182   2.655   7.249   1.056  0.9279 -0.7872  1.0186
 6663TIP3   OH244183   4.004   5.912   1.076 -0.0635  0.3351  0.1912
 6663TIP3    H144184   3.954   5.868   1.145  0.7309 -1.5985 -0.3964
 6663TIP3    H244185   3.951   5.989   1.053 -1.6680 -0.4569  1.0823
 6664TIP3   OH244186   0.719   2.991   1.300  0.0772  0.8460 -0.0890
 6664TIP3    H144187   0.675   2.982   1.215 -0.3182  1.2063  0.0708
 6664TIP3    H244188   0.738   2.902   1.328  0.1641  0.7249 -0.5347
 6665TIP3   OH244189   2.237   1.905   1.553 -0.4060 -0.5116 -0.4004
 6665TIP3    H144190   2.300   1.833   1.565 -0.6709 -0.6279  0.3227
 6665TIP3    H244191   2.243   1.926   1.460  0.7135 -0.5216 -0.3451
 6666TIP3   OH244192   2.896   0.000   0.970  0.1503  0.0296  0.5214
 6666TIP3    H144193   2.872   0.087   1.002  0.6410  0.6410 -0.6681
 6666TIP3    H244194   2.989   0.009   0.946  0.0236 -0.6133 -0.2503
 6667TIP3   OH244195   3.946   3.970   0.743 -0.8952  0.0872  0.3941
 6667TIP3    H144196   3.930   3.897   0.683  1.5573  0.0129 -0.2925
 6667TIP3    H244197   3.919   4.048   0.695 -3.0202 -0.2722  0.9237
 6668TIP3   OH244198   4.982   0.524   1.404 -0.3119  0.5505 -0.6390
 6668TIP3    H144199   4.935   0.488   1.479 -0.8988  1.9257 -0.3107
 6668TIP3    H244200   5.040   0.590   1.442  2.5122 -1.5842 -0.9333
 6669TIP3   OH244201   4.846   1.407   3.367  0.4051 -0.7037 -0.1182
 6669TIP3    H144202   4.869   1.436   3.456  1.2608 -1.4248 -0.0839
 6669TIP3    H244203   4.756   1.376   3.375  0.7678 -1.6263  0.7408
 6670TIP3   OH244204   0.482   2.022   1.084 -0.1543 -0.0731  0.0988
 6670TIP3    H144205   0.557   2.068   1.047 -2.0309  1.5495 -1.9202
 6670TIP3    H244206   0.512   1.931   1.094  1.6573  0.2247 -1.9465
 6671TIP3   OH244207   6.096   2.595   0.976 -0.1522 -0.4528  0.0231
 6671TIP3    H144208   6.159   2.554   1.035 -0.4117 -0.1755  0.5035
 6671TIP3    H244209   6.130   2.577   0.889 -0.0012 -1.2529  0.2429
 6672TIP3   OH244210   0.942   6.724   0.932 -0.5830  0.3183 -0.1143
 6672TIP3    H144211   0.858   6.770   0.922  0.7019  2.3915 -2.2783
 6672TIP3    H244212   0.994   6.782   0.987 -0.8030 -1.4718  2.1426
 6673TIP3   OH244213   3.272   6.655   1.934  0.3908  0.3232 -0.3988
 6673TIP3    H144214   3.312   6.741   1.943  0.0137  0.9147 -3.3037
 6673TIP3    H244215   3.215   6.663   1.858 -1.7440 -1.7836  0.8593
 6674TIP3   OH244216   4.861   1.020   1.223 -0.2148  0.3241  0.0725
 6674TIP3    H144217   4.936   1.065   1.185  0.6149 -1.3469 -0.3822
 6674TIP3    H244218   4.870   0.929   1.193 -2.6098  0.1347 -0.2916
 6675TIP3   OH244219   1.355   2.787   1.005  0.0397  0.4155 -0.2167
 6675TIP3    H144220   1.322   2.721   0.945  0.0607  0.9050 -0.7820
 6675TIP3    H244221   1.313   2.768   1.088 -1.4358  0.8453 -0.8438
 6676TIP3   OH244222   3.446   3.305   2.261 -0.7174 -0.1181  0.6565
 6676TIP3    H144223   3.477   3.277   2.347 -0.2315 -0.6317  0.3172
 6676TIP3    H244224   3.499   3.381   2.239 -0.0328 -0.6958  0.2960
 6677TIP3   OH244225   5.824   2.136   2.237 -0.0355  0.1236 -0.0081
 6677TIP3    H144226   5.886   2.087   2.183  0.8902  0.4953  0.6904
 6677TIP3    H244227   5.856   2.226   2.235 -0.9984  0.4722 -0.2505
 6678TIP3   OH244228   3.869   3.202   2.700  0.1946 -0.2195  0.2387
 6678TIP3    H144229   3.924   3.248   2.765 -0.0300  0.1626  0.1615
 6678TIP3    H244230   3.794   3.171   2.751 -0.5691  1.1000 -0.0463
 6679TIP3   OH244231   5.575   3.082   1.184  0.7771  0.0739 -0.3758
 6679TIP3    H144232   5.540   3.075   1.273  2.1938 -0.4502  0.1664
 6679TIP3    H244233   5.519   3.024   1.132 -0.5548  0.9871 -0.0032
 6680TIP3   OH244234   2.594   0.821   1.943 -0.1061 -0.1010  0.2899
 6680TIP3    H144235   2.683   0.786   1.938 -0.8237 -1.9670 -0.8240
 6680TIP3    H244236   2.538   0.745   1.924 -2.0726  0.4531  3.1717
 6681TIP3   OH244237   4.196   2.091   2.241 -0.3966 -0.1244 -1.0362
 6681TIP3    H144238   4.283   2.130   2.246 -0.3464 -0.2336 -1.0409
 6681TIP3    H244239   4.179   2.080   2.147 -0.4570 -0.0101 -1.0382
 6682TIP3   OH244240   0.897   6.565   1.539 -0.7273  0.5223 -0.2821
 6682TIP3    H144241   0.818   6.512   1.540 -0.3361 -0.1037  1.5447
 6682TIP3    H244242   0.887   6.625   1.612  1.0406 -0.5023  0.8843
 6683TIP3   OH244243   2.111   1.657   2.597  0.3572 -0.2381  0.4067
 6683TIP3    H144244   2.145   1.724   2.656  3.9313 -1.5441  0.0815
 6683TIP3    H244245   2.061   1.706   2.531  1.4049  1.8982  1.1110
 6684TIP3   OH244246   2.480   5.587   1.512 -0.6004 -0.3434  0.2900
 6684TIP3    H144247   2.466   5.493   1.496  0.1281 -0.4781  0.3870
 6684TIP3    H244248   2.521   5.618   1.431 -0.6645 -0.1475  0.3336
 6685TIP3   OH244249   4.073   3.987   0.990  0.5118 -0.3074 -0.2177
 6685TIP3    H144250   3.989   3.995   1.036  0.8593 -1.1663  0.5869
 6685TIP3    H244251   4.050   3.946   0.906  0.0401  0.0872 -0.2854
 6686TIP3   OH244252   7.098   1.297   1.903  0.0035  0.3872 -0.5702
 6686TIP3    H144253   7.088   1.223   1.962  0.4123  0.6205 -0.2024
 6686TIP3    H244254   7.188   1.327   1.916 -0.1030  0.8452 -0.8342
 6687TIP3   OH244255   1.730   6.553   3.299  0.2636  0.3317 -0.2855
 6687TIP3    H144256   1.723   6.581   3.208 -0.4465  0.6363 -0.1517
 6687TIP3    H244257   1.659   6.601   3.343  0.0351 -0.4901  0.2509
 6688TIP3   OH244258   0.589   1.282   3.279  0.3637 -0.4210 -0.5398
 6688TIP3    H144259   0.496   1.258   3.271 -0.2166  1.9219 -1.9889
 6688TIP3    H244260   0.588   1.374   3.304  2.3956 -1.0383  2.3326
 6689TIP3   OH244261   4.593   2.818   2.685  0.2693 -0.5362 -0.2849
 6689TIP3    H144262   4.666   2.825   2.624  1.0836 -2.0838  0.4669
 6689TIP3    H244263   4.633   2.820   2.771 -0.6162 -1.0619  0.1513
 6690TIP3   OH244264   3.346   2.062   2.393 -0.3097  0.4870  0.5323
 6690TIP3    H144265   3.267   2.090   2.345  1.8168  1.9196 -2.4522
 6690TIP3    H244266   3.374   2.139   2.441 -1.7167 -0.5960  3.2731
 6691TIP3   OH244267   6.458   6.680   1.154 -0.0880 -0.2862 -0.1039
 6691TIP3    H144268   6.475   6.763   1.110  0.5460  0.5520  1.6346
 6691TIP3    H244269   6.524   6.620   1.118 -0.7620 -0.1578 -1.6154
 6692TIP3   OH244270   5.562   6.547   3.119 -0.1386  0.2817 -0.5977
 6692TIP3    H144271   5.576   6.503   3.203 -0.0645 -0.2821 -0.9022
 6692TIP3    H244272   5.466   6.551   3.110 -0.1468 -0.0404 -0.6791
 6693TIP3   OH244273   7.657   6.297   0.986 -0.4647 -0.1537 -0.1969
 6693TIP3    H144274   7.600   6.222   0.969  1.8482 -1.8492 -0.9912
 6693TIP3    H244275   7.611   6.348   1.053 -0.8641 -3.8305  2.6454
 6694TIP3   OH244276   4.750   1.567   3.811  0.2941 -0.0665 -0.5213
 6694TIP3    H144277   4.682   1.551   3.876 -1.2052 -1.4289 -2.3000
 6694TIP3    H244278   4.768   1.661   3.818  0.3452 -0.1874  1.9255
 6695TIP3   OH244279   7.664   4.575   2.492 -0.6409  0.3944 -0.5487
 6695TIP3    H144280   7.718   4.610   2.563 -2.4096 -0.1836  1.1646
 6695TIP3    H244281   7.651   4.649   2.432  0.0149  1.1900  0.2738
 6696TIP3   OH244282   5.981   6.414   1.417 -0.3650 -0.2442 -0.2272
 6696TIP3    H144283   6.029   6.335   1.394 -1.5721 -0.5408 -1.9653
 6696TIP3    H244284   5.963   6.406   1.511 -0.2764 -1.9142 -0.3312
 6697TIP3   OH244285   1.430   3.239   1.205 -0.0631 -0.1794 -0.0242
 6697TIP3    H144286   1.359   3.181   1.177  0.1954 -1.1896  1.3296
 6697TIP3    H244287   1.439   3.301   1.133 -0.9258 -1.2896 -1.1434
 6698TIP3   OH244288   3.812   3.396   2.506  0.5870  0.2950  0.8023
 6698TIP3    H144289   3.837   3.307   2.530  0.7762  0.4850  1.3170
 6698TIP3    H244290   3.887   3.450   2.531  0.7361  0.5151 -0.1013
 6699TIP3   OH244291   6.227   2.005   2.457 -0.3017  0.0772  0.4719
 6699TIP3    H144292   6.284   1.932   2.434  0.3127 -0.2924  2.9223
 6699TIP3    H244293   6.214   2.052   2.374  2.0934 -0.8375 -0.5063
 6700TIP3   OH244294   1.759   7.454   1.876  0.1298  0.4402 -0.0796
 6700TIP3    H144295   1.838   7.400   1.880  0.4976  0.8430 -1.4999
 6700TIP3    H244296   1.778   7.519   1.808 -1.9973 -0.4135 -1.5913
 6701TIP3   OH244297   3.501   6.526   1.793  0.5099 -0.4793 -0.0107
 6701TIP3    H144298   3.429   6.553   1.850  1.7555  0.6849  1.0775
 6701TIP3    H244299   3.561   6.479   1.852  1.2096 -0.3896 -0.6406
 6702TIP3   OH244300   3.388   1.367   2.818  0.3051 -0.3087  0.5362
 6702TIP3    H144301   3.384   1.332   2.729  0.7437 -0.5320  0.6038
 6702TIP3    H244302   3.453   1.437   2.813  2.2348 -1.9433  1.2159
 6703TIP3   OH244303   1.031   2.087   2.413  0.2110  0.0989  0.6042
 6703TIP3    H144304   1.070   2.113   2.497 -0.3486  0.6148  0.7049
 6703TIP3    H244305   0.938   2.079   2.432  0.1685 -0.4298  0.1843
 6704TIP3   OH244306   2.256   4.671   1.690 -0.4992 -0.0138 -0.8661
 6704TIP3    H144307   2.176   4.639   1.731  0.9008 -1.4724  0.9478
 6704TIP3    H244308   2.314   4.595   1.690  1.9485  1.6966  0.8201
 6705TIP3   OH244309   2.623   1.110   0.734 -0.4997 -0.4235  0.9456
 6705TIP3    H144310   2.674   1.080   0.809  2.4565  0.3929 -0.5612
 6705TIP3    H244311   2.633   1.040   0.669 -1.4477 -0.2997  0.6489
 6706TIP3   OH244312   5.931   0.398   3.256  0.6847 -0.2982  0.1372
 6706TIP3    H144313   5.902   0.471   3.201 -0.3787  0.1575  1.2416
 6706TIP3    H244314   5.900   0.421   3.344  0.7296 -1.8733  0.5937
 6707TIP3   OH244315   2.719   3.328   3.025  0.4900 -0.4087 -0.4665
 6707TIP3    H144316   2.629   3.360   3.031 -0.0240 -2.0076  2.8414
 6707TIP3    H244317   2.728   3.296   2.935 -2.3561 -0.4872 -0.8128
 6708TIP3   OH244318   3.452   1.856   1.899  0.2267 -0.0179 -0.4280
 6708TIP3    H144319   3.426   1.942   1.930  1.2665 -0.2380  1.1976
 6708TIP3    H244320   3.409   1.846   1.815 -3.0101  0.5696  1.0026
 6709TIP3   OH244321   6.641   1.796   1.032 -0.1996  0.4854 -0.6214
 6709TIP3    H144322   6.693   1.787   0.952 -0.7782 -0.7158 -0.8953
 6709TIP3    H244323   6.692   1.854   1.088  1.2724 -0.3872 -1.0056
 6710TIP3   OH244324   6.884   7.655   1.865 -0.5539  0.0721  0.2791
 6710TIP3    H144325   6.894   7.591   1.935 -0.5997  0.2867  0.4842
 6710TIP3    H244326   6.960   7.642   1.809 -0.2493  0.2450  0.6485
 6711TIP3   OH244327   4.936   6.489   0.553  0.1312  0.3918  0.0808
 6711TIP3    H144328   4.841   6.483   0.555  0.0627  1.1487 -0.2747
 6711TIP3    H244329   4.965   6.450   0.635 -0.4872  0.1949  0.2097
 6712TIP3   OH244330   4.769   1.931   2.950  0.2775 -0.0409 -0.3585
 6712TIP3    H144331   4.808   1.913   3.035 -0.0959  1.4101  0.1597
 6712TIP3    H244332   4.676   1.911   2.961  0.4896 -1.4164 -0.9351
 6713TIP3   OH244333   1.841   2.645   2.441 -0.2881  0.2611  0.4360
 6713TIP3    H144334   1.755   2.604   2.444  0.5330 -1.5970  0.1347
 6713TIP3    H244335   1.831   2.719   2.380 -1.4503 -0.4716 -0.2960
 6714TIP3   OH244336   2.426   5.182   1.825 -0.1156  0.5779 -0.2022
 6714TIP3    H144337   2.334   5.208   1.824 -0.4675 -0.6285 -0.6839
 6714TIP3    H244338   2.427   5.094   1.787  0.9701 -0.2484  1.5796
 6715TIP3   OH244339   3.199   0.424   1.724  0.4778 -0.0062  0.1243
 6715TIP3    H144340   3.279   0.474   1.734  1.1973 -0.9418 -0.8042
 6715TIP3    H244341   3.215   0.342   1.772 -0.7167  0.6284  1.7088
 6716TIP3   OH244342   3.678   5.879   2.981  0.4773  0.2106  0.2352
 6716TIP3    H144343   3.669   5.792   3.020  0.9476  0.3730  0.7179
 6716TIP3    H244344   3.770   5.885   2.957  0.3705  0.4397 -0.1293
 6717TIP3   OH244345   6.797   7.202   1.055 -0.6020  0.4438 -0.1217
 6717TIP3    H144346   6.882   7.242   1.070 -0.4101 -0.0419  0.1118
 6717TIP3    H244347   6.776   7.157   1.136  0.0145 -1.4157 -0.9362
 6718TIP3   OH244348   5.136   6.784   1.286 -0.2613 -0.8800 -0.4751
 6718TIP3    H144349   5.128   6.793   1.191  0.4912 -1.3695 -0.5960
 6718TIP3    H244350   5.230   6.780   1.302 -0.2736  1.6311  0.5566
 6719TIP3   OH244351   2.191   1.592   0.822  0.1906 -0.3929 -0.0024
 6719TIP3    H144352   2.286   1.580   0.812  0.0806 -1.8142  0.4577
 6719TIP3    H244353   2.183   1.673   0.872  1.1810 -0.3684  0.1441
 6720TIP3   OH244354   6.927   1.680   2.673  0.4258  0.3604 -0.3035
 6720TIP3    H144355   6.840   1.697   2.638  0.5444 -0.8321 -1.2451
 6720TIP3    H244356   6.915   1.607   2.733  0.9654 -0.7175 -1.4670
 6721TIP3   OH244357   7.078   4.546   0.786  0.0821  0.1181 -0.6812
 6721TIP3    H144358   7.030   4.464   0.772  3.4714 -1.9913 -1.2757
 6721TIP3    H244359   7.075   4.590   0.701 -1.9567  0.8095 -0.2973
 6722TIP3   OH244360   2.505   3.694   2.932  0.1504  0.5168 -0.0807
 6722TIP3    H144361   2.415   3.663   2.934  0.2727  0.1745  0.4053
 6722TIP3    H244362   2.549   3.637   2.869  0.4157 -0.4410  0.9393
 6723TIP3   OH244363   0.541   6.117   1.092 -0.3944 -0.6833  0.3161
 6723TIP3    H144364   0.597   6.159   1.157 -1.5186 -0.5112  1.2008
 6723TIP3    H244365   0.472   6.181   1.075 -0.2877 -0.8453 -0.8345
 6724TIP3   OH244366   0.146   6.306   0.778 -0.2328  1.4005  0.4099
 6724TIP3    H144367   0.085   6.272   0.713  1.1559  1.2409 -0.8615
 6724TIP3    H244368   0.100   6.296   0.861 -1.1553 -0.5599 -0.2791
 6725TIP3   OH244369   3.234   2.420   2.842 -0.4446 -0.1523 -0.1616
 6725TIP3    H144370   3.166   2.382   2.786 -0.4270  1.5510 -1.4276
 6725TIP3    H244371   3.190   2.492   2.888 -0.2637 -1.0479  1.4828
 6726TIP3   OH244372   5.092   4.983   1.532 -0.2227  0.1341 -0.1829
 6726TIP3    H144373   5.053   4.923   1.468 -0.6364 -0.6736  0.8027
 6726TIP3    H244374   5.017   5.029   1.570  0.1429  2.0937 -1.6551
 6727TIP3   OH244375   0.695   0.041   1.231  0.2597  0.0316  0.4242
 6727TIP3    H144376   0.733   0.034   1.143 -0.5223  0.4344  0.0427
 6727TIP3    H244377   0.629   0.109   1.223  0.7302  0.6445  1.5335
 6728TIP3   OH244378   5.501   4.743   0.768 -0.0039  0.1847  0.1519
 6728TIP3    H144379   5.493   4.655   0.730 -1.1078 -0.1893  1.2026
 6728TIP3    H244380   5.594   4.752   0.788  0.2181 -0.5004 -0.5468
 6729TIP3   OH244381   5.075   3.927   2.775 -0.0211  0.4080 -0.3893
 6729TIP3    H144382   4.982   3.905   2.769  0.4287 -1.5515 -0.6673
 6729TIP3    H244383   5.105   3.883   2.854  0.6477  1.2337 -0.1658
 6730TIP3   OH244384   6.896   4.675   1.000  0.5035 -0.3736 -0.7563
 6730TIP3    H144385   6.938   4.761   0.997  1.6882 -0.8948  0.0396
 6730TIP3    H244386   6.955   4.618   0.950 -0.2722 -0.7482 -1.2779
 6731TIP3   OH244387   2.289   5.824   2.298  0.0083 -0.3212  0.0885
 6731TIP3    H144388   2.311   5.843   2.389  0.1883 -0.5211  0.0878
 6731TIP3    H244389   2.369   5.846   2.249 -0.1648  0.0045 -0.0490
 6732TIP3   OH244390   2.446   4.683   2.653 -0.1548 -0.4622  0.0955
 6732TIP3    H144391   2.482   4.683   2.565  1.6089  0.4023  0.7530
 6732TIP3    H244392   2.510   4.634   2.705 -1.5545 -1.6543  0.7791
 6733TIP3   OH244393   2.737   4.598   2.113 -0.1989  0.7931 -0.0932
 6733TIP3    H144394   2.660   4.655   2.113 -0.9853 -0.2280  0.8407
 6733TIP3    H244395   2.750   4.577   2.020 -1.1379  0.8743 -0.2603
 6734TIP3   OH244396   2.477   4.958   2.735  0.2552 -0.4028 -0.1424
 6734TIP3    H144397   2.420   5.005   2.796  0.5737  0.3173 -0.3903
 6734TIP3    H244398   2.434   4.874   2.722  0.5717 -0.8964  1.6908
 6735TIP3   OH244399   4.730   3.605   1.461 -0.0958  0.4569  0.2684
 6735TIP3    H144400   4.698   3.592   1.372  0.7720 -1.7306  0.2247
 6735TIP3    H244401   4.701   3.528   1.509  1.6082  0.3529  1.2139
 6736TIP3   OH244402   4.880   2.879   2.663 -0.3579 -0.6470 -0.1296
 6736TIP3    H144403   4.938   2.955   2.652 -0.7220 -0.2711  0.5207
 6736TIP3    H244404   4.922   2.826   2.730  0.4956 -1.6181 -1.3896
 6737TIP3   OH244405   7.111   2.437   2.323 -0.8910  0.2137  0.0956
 6737TIP3    H144406   7.147   2.524   2.336 -0.3890  0.2316 -1.2738
 6737TIP3    H244407   7.161   2.381   2.382 -0.0532  0.5825 -0.2596
 6738TIP3   OH244408   2.983   1.912   2.061 -0.2927  0.4989 -0.4582
 6738TIP3    H144409   3.010   1.825   2.090 -1.8585 -0.6136 -2.1248
 6738TIP3    H244410   2.894   1.922   2.094 -0.4901  1.0161 -1.1161
 6739TIP3   OH244411   1.977   1.588   1.176 -0.9349  0.0018  0.0858
 6739TIP3    H144412   2.053   1.645   1.176 -1.1280  0.3713  2.5337
 6739TIP3    H244413   2.007   1.507   1.219 -1.1290 -1.0919 -1.7543
 6740TIP3   OH244414   3.768   2.997   3.114 -1.4247  0.2664  0.3921
 6740TIP3    H144415   3.803   2.970   3.029 -0.2297  1.2782  0.5329
 6740TIP3    H244416   3.682   3.034   3.094 -0.7245  1.4819 -0.5492
 6741TIP3   OH244417   2.957   6.831   2.769 -0.3827 -0.0610 -0.9131
 6741TIP3    H144418   2.981   6.738   2.776 -0.3102 -0.0648 -1.1875
 6741TIP3    H244419   2.978   6.868   2.855 -1.3373 -0.5090 -0.4827
 6742TIP3   OH244420   4.037   3.959   1.363 -0.5702  0.2028  0.0051
 6742TIP3    H144421   4.026   4.037   1.309 -0.0026  0.3592  0.1090
 6742TIP3    H244422   3.952   3.946   1.406  0.0615  2.2723  2.0467
 6743TIP3   OH244423   4.981   6.405   1.592 -0.5247 -0.0448  0.0884
 6743TIP3    H144424   5.019   6.443   1.513 -0.7822 -2.1492 -1.0951
 6743TIP3    H244425   4.920   6.472   1.624  1.7322  2.0989  0.2596
 6744TIP3   OH244426   3.785   1.483   2.334  0.3783  0.6896  0.1683
 6744TIP3    H144427   3.823   1.513   2.251  0.9111  1.3009  0.6208
 6744TIP3    H244428   3.843   1.411   2.362  0.0635  0.3308 -0.1049
 6745TIP3   OH244429   3.279   3.736   0.494 -0.0593  0.3099 -0.3119
 6745TIP3    H144430   3.245   3.740   0.584 -1.9739  1.2612 -1.0252
 6745TIP3    H244431   3.235   3.661   0.455 -0.8408  1.1387 -1.0524
 6746TIP3   OH244432   1.142   6.452   1.460 -0.2124 -0.5378 -0.1748
 6746TIP3    H144433   1.048   6.443   1.474 -0.4738  1.3590 -0.5019
 6746TIP3    H244434   1.178   6.368   1.490 -2.0100 -1.4190 -0.3251
 6747TIP3   OH244435   2.541   5.702   0.846 -0.6115 -0.0461 -0.0402
 6747TIP3    H144436   2.479   5.739   0.908 -0.3829  0.7347 -0.2596
 6747TIP3    H244437   2.615   5.762   0.847 -1.3063  0.9854 -2.3153
 6748TIP3   OH244438   3.186   3.451   0.412 -0.1392  0.9808  0.4419
 6748TIP3    H144439   3.236   3.390   0.467  2.1641  0.7682 -1.7142
 6748TIP3    H244440   3.095   3.436   0.436  0.4037 -2.5991  0.7138
 6749TIP3   OH244441   6.785   5.026   1.081 -0.0401  0.4257  0.0510
 6749TIP3    H144442   6.873   5.008   1.049  0.3200  0.4663  0.9764
 6749TIP3    H244443   6.728   4.968   1.030  0.4980  0.5204 -0.6686
 6750TIP3   OH244444   1.243   3.325   1.928 -0.1544  0.1647  0.6217
 6750TIP3    H144445   1.193   3.349   1.850 -0.6919 -1.7199  0.3212
 6750TIP3    H244446   1.335   3.340   1.903 -0.4244  1.9117  0.5403
 6751TIP3   OH244447   7.129   6.207   1.742 -0.0135  1.1210  0.3189
 6751TIP3    H144448   7.088   6.167   1.665 -0.5948  0.3143  1.0212
 6751TIP3    H244449   7.085   6.165   1.816  1.7910  0.5352  1.1077
 6752TIP3   OH244450   0.269   7.142   2.729  0.5120  0.1009  0.4518
 6752TIP3    H144451   0.230   7.123   2.814  1.9591 -4.0304  0.4080
 6752TIP3    H244452   0.350   7.188   2.750  0.1386  0.4488  1.1791
 6753TIP3   OH244453   6.672   0.560   3.515 -0.0781  0.0896  0.0852
 6753TIP3    H144454   6.651   0.653   3.526  0.6671  0.1840  0.8121
 6753TIP3    H244455   6.768   0.558   3.510 -0.1038 -0.6177 -0.1455
 6754TIP3   OH244456   5.657   1.589   0.877 -0.2768  0.6004  0.1425
 6754TIP3    H144457   5.614   1.646   0.941 -1.5376  0.5325 -0.6075
 6754TIP3    H244458   5.678   1.647   0.803  0.2407  0.4806  0.1923
 6755TIP3   OH244459   2.484   4.289   1.912  0.3091  0.0332 -0.1634
 6755TIP3    H144460   2.494   4.347   1.988 -1.6588  1.1470 -0.6735
 6755TIP3    H244461   2.478   4.201   1.949 -0.9833  0.5948  1.0266
 6756TIP3   OH244462   2.092   7.029   2.004  0.0768  0.1850 -0.2097
 6756TIP3    H144463   2.021   7.054   2.064 -1.5715 -1.2079 -1.4884
 6756TIP3    H244464   2.146   7.108   1.997 -1.2050  1.2285  0.9911
 6757TIP3   OH244465   1.055   5.773   1.139  0.4867  0.3081  0.2553
 6757TIP3    H144466   1.073   5.679   1.132  0.8123  0.3258  0.7738
 6757TIP3    H244467   1.104   5.812   1.066  0.2338  0.0618 -0.0469
 6758TIP3   OH244468   5.740   7.581   0.659  0.4189 -0.5770  0.7467
 6758TIP3    H144469   5.813   7.557   0.716 -0.2627 -1.9667  1.0885
 6758TIP3    H244470   5.690   7.645   0.709  0.2017 -1.2759  1.4287
 6759TIP3   OH244471   2.469   6.142   3.064 -0.1326  0.0756  0.0639
 6759TIP3    H144472   2.478   6.120   3.157  1.5335 -0.8679 -0.2778
 6759TIP3    H244473   2.394   6.201   3.061  0.6311  1.2845  2.1865
 6760TIP3   OH244474   3.212   3.676   1.946 -0.7206 -0.3918 -0.1129
 6760TIP3    H144475   3.154   3.700   2.018 -0.4736  1.7474 -0.5348
 6760TIP3    H244476   3.188   3.736   1.875 -0.3135 -1.7981 -1.4974
 6761TIP3   OH244477   6.816   7.530   1.496 -0.4564  0.1809  0.0333
 6761TIP3    H144478   6.878   7.603   1.491 -0.7403  0.4709  0.6049
 6761TIP3    H244479   6.803   7.516   1.590  0.0453 -0.9995 -0.0633
 6762TIP3   OH244480   1.068   6.490   0.885 -0.2862  0.2008 -0.6332
 6762TIP3    H144481   1.064   6.446   0.970 -0.5371 -1.6823 -1.5576
 6762TIP3    H244482   1.023   6.573   0.899 -0.0635  0.0609  1.1394
 6763TIP3   OH244483   5.243   5.007   1.751 -0.4982 -0.3102 -0.4223
 6763TIP3    H144484   5.187   5.010   1.674 -0.8722  0.7547 -0.1299
 6763TIP3    H244485   5.276   4.917   1.754 -1.2482 -0.6233 -1.2659
 6764TIP3   OH244486   1.239   0.481   1.320 -0.3136  0.3946 -0.0663
 6764TIP3    H144487   1.315   0.515   1.366  0.0901 -0.7281  0.1268
 6764TIP3    H244488   1.213   0.551   1.261  0.4381  1.0536  0.3740
 6765TIP3   OH244489   1.134   2.174   2.660 -0.6512 -0.4327  0.3878
 6765TIP3    H144490   1.219   2.213   2.678 -0.1533 -0.7437 -1.1040
 6765TIP3    H244491   1.140   2.085   2.695 -0.9368  0.0325  1.6645
 6766TIP3   OH244492   1.433   4.720   2.406  0.5789 -0.9088 -0.3378
 6766TIP3    H144493   1.493   4.790   2.382  0.5636 -0.9105 -0.3799
 6766TIP3    H244494   1.346   4.756   2.393  0.5598 -1.4190 -1.7688
 6767TIP3   OH244495   4.073   5.718   0.899  0.0906 -0.3906  0.3976
 6767TIP3    H144496   4.039   5.796   0.942 -0.5195 -0.0328 -0.7260
 6767TIP3    H244497   4.102   5.748   0.813  0.5113 -1.2669  0.2225
 6768TIP3   OH244498   2.933   3.011   1.893 -0.3429  0.0690 -0.6841
 6768TIP3    H144499   2.875   3.054   1.956 -1.1589 -1.1679 -0.5666
 6768TIP3    H244500   2.879   3.000   1.815  0.1469  0.0814 -1.0311
 6769TIP3   OH244501   0.316   1.333   0.463  0.0113  0.3149 -0.4502
 6769TIP3    H144502   0.336   1.423   0.438 -0.0873 -0.0094 -1.7702
 6769TIP3    H244503   0.245   1.341   0.526  0.8062  1.2101  0.3609
 6770TIP3   OH244504   0.206   7.571   0.548  0.2525  0.8469 -0.0392
 6770TIP3    H144505   0.131   7.601   0.498  1.2205  1.9251 -0.8984
 6770TIP3    H244506   0.202   7.620   0.630 -1.0191 -0.5093  0.7605
 6771TIP3   OH244507   1.668   5.488   1.898 -0.0420  0.2815  0.0269
 6771TIP3    H144508   1.573   5.500   1.902 -0.1780 -0.7265 -0.1624
 6771TIP3    H244509   1.681   5.395   1.884  0.9755  0.4907 -0.5142
 6772TIP3   OH244510   3.267   3.847   1.198  0.3712 -0.0123  0.0127
 6772TIP3    H144511   3.200   3.860   1.265  1.0358  0.3854  0.6159
 6772TIP3    H244512   3.339   3.805   1.244  0.9157  0.4591 -0.3951
 6773TIP3   OH244513   7.472   1.605   1.837  0.0982  0.1960  0.1161
 6773TIP3    H144514   7.557   1.570   1.865  0.8893 -0.4775 -2.8096
 6773TIP3    H244515   7.479   1.699   1.849  1.0119  0.0877  0.5043
 6774TIP3   OH244516   4.885   1.335   2.245  0.2413  1.0026  0.0954
 6774TIP3    H144517   4.880   1.250   2.289 -1.1979 -0.3975 -2.5130
 6774TIP3    H244518   4.823   1.390   2.292 -1.8129 -0.6606 -0.5162
 6775TIP3   OH244519   6.894   2.907   2.497  0.4261  0.1563 -0.6764
 6775TIP3    H144520   6.911   2.958   2.576  0.4217  0.9013 -1.1519
 6775TIP3    H244521   6.919   2.817   2.521 -1.8722 -0.1433  0.9850
 6776TIP3   OH244522   6.394   1.132   2.871 -0.2263 -0.3509  0.0333
 6776TIP3    H144523   6.426   1.084   2.947  4.3832  1.0499 -0.7032
 6776TIP3    H244524   6.425   1.222   2.884  2.5491 -0.3839 -4.0643
 6777TIP3   OH244525   5.081   3.083   2.607  0.0946 -0.6905  0.0074
 6777TIP3    H144526   5.161   3.116   2.648  0.6449 -1.0285 -0.7739
 6777TIP3    H244527   5.048   3.158   2.557  0.0127 -0.6006  0.1954
 6778TIP3   OH244528   3.125   4.996   1.338 -0.5157 -0.1214  0.1122
 6778TIP3    H144529   3.220   5.001   1.339 -0.4851 -0.6500  0.1930
 6778TIP3    H244530   3.097   5.070   1.284 -0.1539  1.2637  1.7449
 6779TIP3   OH244531   2.078   5.220   1.816 -0.2493 -0.3743  0.2581
 6779TIP3    H144532   2.114   5.253   1.899 -0.5259 -1.1522  0.6922
 6779TIP3    H244533   1.989   5.193   1.838 -0.9776  1.0674 -0.6923
 6780TIP3   OH244534   2.660   1.297   1.706  0.0337  0.0145  0.7781
 6780TIP3    H144535   2.739   1.252   1.737  0.8723  0.5539 -0.4957
 6780TIP3    H244536   2.597   1.226   1.690 -0.0487 -0.3612  2.5607
 6781TIP3   OH244537   2.380   2.523   2.138 -0.1148  0.8900  0.9250
 6781TIP3    H144538   2.313   2.588   2.159 -1.3290  0.1162 -0.3663
 6781TIP3    H244539   2.380   2.519   2.042  0.6333 -0.2932  0.9585
 6782TIP3   OH244540   5.022   2.586   2.253  0.0431  0.0527 -0.5566
 6782TIP3    H144541   4.993   2.649   2.319  0.1326  1.3132 -1.6750
 6782TIP3    H244542   5.118   2.592   2.255  0.2185 -2.1038  1.2279
 6783TIP3   OH244543   0.768   6.485   0.918  0.2922 -0.3014  0.3763
 6783TIP3    H144544   0.861   6.465   0.906  0.6707  0.1127  2.2439
 6783TIP3    H244545   0.763   6.580   0.907  0.4490 -0.0707  2.0649
 6784TIP3   OH244546   3.394   3.310   1.442  0.5800  0.4372 -0.0333
 6784TIP3    H144547   3.343   3.341   1.518  2.4229  3.3679  0.1866
 6784TIP3    H244548   3.473   3.271   1.481  0.3730 -0.3631 -0.4148
 6785TIP3   OH244549   3.829   0.378   2.163  0.3774  0.2119  0.1751
 6785TIP3    H144550   3.816   0.356   2.071 -0.8527  0.8559  0.1823
 6785TIP3    H244551   3.911   0.427   2.165  0.9781 -0.7448 -0.4098
 6786TIP3   OH244552   2.337   2.327   1.787 -0.6977 -0.1710 -0.7180
 6786TIP3    H144553   2.325   2.233   1.773 -0.3233 -0.3091 -0.1287
 6786TIP3    H244554   2.430   2.337   1.807 -0.8746  0.2272 -0.0508
 6787TIP3   OH244555   1.486   5.912   2.754 -0.3810  0.3635  0.0868
 6787TIP3    H144556   1.391   5.917   2.744 -0.4911 -1.3075 -0.0416
 6787TIP3    H244557   1.502   5.821   2.780  1.3519 -0.0220 -2.0221
 6788TIP3   OH244558   3.306   2.586   1.290  0.3740  0.2257 -0.2815
 6788TIP3    H144559   3.288   2.619   1.202 -0.3638  0.0335 -0.2103
 6788TIP3    H244560   3.244   2.515   1.302  0.7000  0.0262  0.2718
 6789TIP3   OH244561   1.443   4.644   0.906  0.2210 -0.1875 -0.1364
 6789TIP3    H144562   1.517   4.697   0.877  1.0483 -0.4114  1.4478
 6789TIP3    H244563   1.450   4.563   0.856  1.7951 -0.6987  0.8631
 6790TIP3   OH244564   0.596   5.826   0.920  0.2953 -0.1578  0.6383
 6790TIP3    H144565   0.581   5.899   0.979  0.4128  0.5046 -0.1285
 6790TIP3    H244566   0.628   5.866   0.839  3.2819 -1.2622  1.1507
 6791TIP3   OH244567   3.744   6.677   1.465 -0.0636 -0.1000 -0.6477
 6791TIP3    H144568   3.755   6.708   1.555 -0.6029 -0.1768 -0.5526
 6791TIP3    H244569   3.655   6.703   1.442  0.7005  1.7212 -1.8617
 6792TIP3   OH244570   2.323   1.014   1.881 -0.2997  0.2814  0.1416
 6792TIP3    H144571   2.333   0.944   1.947  0.9789 -0.1962 -0.5184
 6792TIP3    H244572   2.320   1.095   1.932  0.2850 -0.1128  0.8179
 6793TIP3   OH244573   6.502   0.713   2.619 -0.3155 -0.0864  0.4332
 6793TIP3    H144574   6.455   0.643   2.573  1.9129 -1.6817  0.4187
 6793TIP3    H244575   6.540   0.766   2.549 -0.7991  0.2771  0.4447
 6794TIP3   OH244576   3.051   3.799   2.485 -0.2992  0.1088  0.2438
 6794TIP3    H144577   3.069   3.893   2.473 -0.5121  0.6017  3.1525
 6794TIP3    H244578   3.138   3.759   2.492 -0.2164  0.3013  0.3437
 6795TIP3   OH244579   4.843   6.756   0.938  0.0255 -0.3319  0.3122
 6795TIP3    H144580   4.848   6.753   0.842  0.2489  0.1294  0.3049
 6795TIP3    H244581   4.929   6.724   0.967 -0.0503 -0.4935  0.3599
 6796TIP3   OH244582   4.523   2.176   2.122  0.2122  0.3411  0.0171
 6796TIP3    H144583   4.485   2.229   2.193  1.5018  0.2729  0.7936
 6796TIP3    H244584   4.545   2.093   2.163  3.4854  1.2111  0.3250
 6797TIP3   OH244585   3.685   4.085   2.182 -0.4341  0.5774 -0.0082
 6797TIP3    H144586   3.697   4.002   2.135 -2.1987 -0.3665  1.1135
 6797TIP3    H244587   3.771   4.128   2.175  0.8894 -1.8156  0.3065
 6798TIP3   OH244588   2.982   2.050   0.838  0.4172  0.0119 -0.1740
 6798TIP3    H144589   2.930   2.079   0.913  0.4565 -0.7061  0.1456
 6798TIP3    H244590   2.922   1.998   0.786  0.7726 -0.7674  0.1618
 6799TIP3   OH244591   5.233   6.885   1.777 -0.2832  0.5402 -0.3643
 6799TIP3    H144592   5.164   6.824   1.803  1.0135 -0.2527  1.4068
 6799TIP3    H244593   5.197   6.972   1.797 -0.6029  0.1188  0.9628
 6800TIP3   OH244594   6.388   4.806   1.978 -0.0997 -0.2892 -0.1274
 6800TIP3    H144595   6.301   4.767   1.975  0.2837 -1.3079  1.1842
 6800TIP3    H244596   6.441   4.744   2.028  1.6838 -0.2412 -1.8261
 6801TIP3   OH244597   2.741   1.003   2.556  0.0416  0.4694  0.3146
 6801TIP3    H144598   2.718   1.035   2.469 -0.6746  1.0891  0.7255
 6801TIP3    H244599   2.832   0.976   2.548  0.3286  1.5708 -0.3388
 6802TIP3   OH244600   4.590   5.739   2.107 -0.2882 -0.4539 -0.1160
 6802TIP3    H144601   4.656   5.740   2.176 -0.4302 -2.5732  0.1182
 6802TIP3    H244602   4.634   5.776   2.030  1.0091 -1.3244  0.1858
 6803TIP3   OH244603   3.050   6.134   2.690 -0.3352  0.6457  0.1918
 6803TIP3    H144604   3.061   6.208   2.749  1.1073  0.5928  0.0268
 6803TIP3    H244605   3.087   6.060   2.737  0.1725  0.4579 -0.4851
 6804TIP3   OH244606   2.426   0.598   1.928  0.5417  0.3735  0.3875
 6804TIP3    H144607   2.423   0.528   1.993 -0.9098  0.4713  0.4415
 6804TIP3    H244608   2.358   0.576   1.865 -1.2495  2.6476  1.3887
 6805TIP3   OH244609   7.520   5.444   2.092 -0.1207 -0.7169  0.4423
 6805TIP3    H144610   7.582   5.449   2.165 -2.1606 -1.6121  2.3715
 6805TIP3    H244611   7.563   5.387   2.028  1.6492 -0.0810  1.0001
 6806TIP3   OH244612   1.662   5.600   0.973 -0.0130  0.3350 -0.3038
 6806TIP3    H144613   1.604   5.676   0.982  0.3790  0.5967 -0.0069
 6806TIP3    H244614   1.612   5.540   0.917  0.3148  1.4551 -1.8626
 6807TIP3   OH244615   1.921   6.362   1.742 -0.2247  0.8990 -0.2787
 6807TIP3    H144616   1.859   6.318   1.801  1.7897  0.3408  1.5616
 6807TIP3    H244617   1.887   6.451   1.733 -1.2728  0.6202  0.6974
 6808TIP3   OH244618   0.714   2.089   0.976 -0.6775 -1.0496  0.3757
 6808TIP3    H144619   0.724   2.168   0.922 -2.8304  0.6918  2.3419
 6808TIP3    H244620   0.768   2.023   0.932  1.9817  1.7290 -0.8616
 6809TIP3   OH244621   6.966   7.565   2.154 -0.5434 -0.1381  0.3024
 6809TIP3    H144622   7.028   7.510   2.105 -0.1298  0.9428 -0.4326
 6809TIP3    H244623   6.881   7.526   2.136 -0.1908 -0.9884  0.4216
 6810TIP3   OH244624   6.762   2.053   1.980 -0.4190  0.0215 -0.2516
 6810TIP3    H144625   6.833   2.116   1.974  0.7963 -1.3982 -1.4922
 6810TIP3    H244626   6.690   2.093   1.931 -0.0909  0.9530  0.0066
 6811TIP3   OH244627   4.297   3.041   2.328  0.3470 -0.2031  0.1028
 6811TIP3    H144628   4.250   3.075   2.405  0.4894  2.0051 -0.7163
 6811TIP3    H244629   4.363   2.982   2.365 -0.5679 -0.3576  1.5604
 6812TIP3   OH244630   3.550   2.390   3.788 -0.1543  0.6332  0.4196
 6812TIP3    H144631   3.613   2.363   3.855 -0.8176 -0.0085  0.7845
 6812TIP3    H244632   3.596   2.375   3.705  1.2734  2.8768  0.7133
 6813TIP3   OH244633   2.740   7.324   0.928  0.0762 -0.2383 -0.0592
 6813TIP3    H144634   2.773   7.265   0.861  0.9959  0.8065 -0.5490
 6813TIP3    H244635   2.798   7.400   0.925 -0.2681  0.1243  1.4680
 6814TIP3   OH244636   5.380   6.713   2.822 -0.1693 -0.0791  0.3608
 6814TIP3    H144637   5.402   6.707   2.729  2.0200  1.4138  0.7147
 6814TIP3    H244638   5.404   6.628   2.858  0.8463 -0.0066 -0.1076
 6815TIP3   OH244639   0.659   3.049   1.598 -0.1863  0.2779 -0.3597
 6815TIP3    H144640   0.666   3.129   1.547  0.6832 -0.5845 -1.6262
 6815TIP3    H244641   0.619   2.986   1.539  1.4427 -0.9283 -0.2200
 6816TIP3   OH244642   1.047   5.915   1.426  0.1617 -0.0597  0.3463
 6816TIP3    H144643   1.073   5.920   1.334  2.0452 -0.3951  0.8094
 6816TIP3    H244644   0.964   5.963   1.431  0.9309  1.5418 -1.2110
 6817TIP3   OH244645   2.517   5.365   1.317  0.3283 -0.2977  0.0849
 6817TIP3    H144646   2.477   5.401   1.238 -0.4403  0.0261  0.6169
 6817TIP3    H244647   2.607   5.397   1.315 -0.0343  0.7334 -0.0256
 6818TIP3   OH244648   5.646   2.855   2.900  0.2044 -0.4614 -0.3154
 6818TIP3    H144649   5.612   2.777   2.943 -0.7745 -1.0914 -2.1327
 6818TIP3    H244650   5.642   2.923   2.967 -0.1741 -1.6476  0.9098
 6819TIP3   OH244651   6.371   5.447   2.647  0.0384  0.0785 -0.3855
 6819TIP3    H144652   6.321   5.522   2.614  2.4869  2.0245  0.0099
 6819TIP3    H244653   6.443   5.437   2.586  0.4222 -1.2046  0.2496
 6820TIP3   OH244654   0.212   2.056   3.247 -0.1551 -0.1257 -0.0644
 6820TIP3    H144655   0.254   2.005   3.177  0.0124  0.4089 -0.3604
 6820TIP3    H244656   0.236   2.010   3.328  2.6883  1.2449 -0.0103
 6821TIP3   OH244657   2.993   2.322   3.402 -0.1890 -0.0648 -0.0554
 6821TIP3    H144658   2.941   2.373   3.340 -0.3946  0.4512  0.5351
 6821TIP3    H244659   2.955   2.234   3.399 -0.2203 -0.0379 -0.6264
 6822TIP3   OH244660   4.444   2.340   3.244  0.2275 -0.1209  0.1135
 6822TIP3    H144661   4.520   2.366   3.295  2.1066 -0.9337 -2.1104
 6822TIP3    H244662   4.407   2.422   3.211 -0.3298  0.3201  1.7280
 6823TIP3   OH244663   7.632   2.351   2.263 -0.1853 -0.4003  0.4883
 6823TIP3    H144664   7.596   2.422   2.210 -1.2487 -0.2143  1.4130
 6823TIP3    H244665   7.573   2.277   2.248 -0.1771 -0.5086  0.9713
 6824TIP3   OH244666   6.422   2.302   7.735  0.5581  0.3961  0.9103
 6824TIP3    H144667   6.329   2.322   7.728 -0.2194 -2.1302  2.5188
 6824TIP3    H244668   6.458   2.372   7.789 -0.5513  1.0727  0.7914
 6825TIP3   OH244669   1.386   2.502   0.636 -0.1010  0.0281  0.0881
 6825TIP3    H144670   1.460   2.534   0.584 -0.2107  1.7636  0.9350
 6825TIP3    H244671   1.381   2.409   0.615  0.7254  0.3764 -1.9320
 6826TIP3   OH244672   6.865   2.627   2.329  0.4850 -0.3429  0.1940
 6826TIP3    H144673   6.798   2.568   2.363  0.4502  0.3543  1.3965
 6826TIP3    H244674   6.943   2.606   2.381  1.3908 -1.5207 -1.5507
 6827TIP3   OH244675   6.160   4.985   2.527  0.1866 -0.1406  0.1929
 6827TIP3    H144676   6.235   4.926   2.539 -0.7185 -1.1145  1.4205
 6827TIP3    H244677   6.130   5.005   2.616 -1.7892 -0.8572 -0.2409
 6828TIP3   OH244678   3.173   6.988   2.331  0.1125  0.3555  0.3461
 6828TIP3    H144679   3.114   6.996   2.256  1.9194 -1.8114 -1.4119
 6828TIP3    H244680   3.192   7.079   2.355  0.1812  1.1596 -2.4164
 6829TIP3   OH244681   4.049   3.771   2.392 -0.5046 -0.5459 -0.7186
 6829TIP3    H144682   4.111   3.843   2.382 -1.0411  0.7384  3.3104
 6829TIP3    H244683   4.103   3.697   2.418 -0.1683 -1.1292 -2.9019
 6830TIP3   OH244684   2.264   2.838   0.881  0.0360  0.3678  0.0986
 6830TIP3    H144685   2.233   2.870   0.966 -0.1527 -1.4961  0.7823
 6830TIP3    H244686   2.346   2.792   0.901 -0.4065 -0.7702 -0.5711
 6831TIP3   OH244687   6.207   0.024   1.355  0.6450 -0.4185 -0.4288
 6831TIP3    H144688   6.293   0.059   1.380  0.9669 -0.5522 -1.3223
 6831TIP3    H244689   6.213  -0.070   1.374 -0.2923 -0.0469  2.1744
 6832TIP3   OH244690   0.364   3.202   1.607 -0.4318 -0.6235  0.3771
 6832TIP3    H144691   0.300   3.159   1.664 -0.3956 -0.5430  0.4792
 6832TIP3    H244692   0.435   3.227   1.666 -0.5808 -0.1680  0.3670
 6833TIP3   OH244693   0.383   2.638   2.607 -0.0670  0.2710 -0.4222
 6833TIP3    H144694   0.448   2.588   2.557  0.2713 -0.3726  0.6365
 6833TIP3    H244695   0.392   2.728   2.575  2.0682  0.4144  0.4041
 6834TIP3   OH244696   1.879   4.140   1.784  0.0340  0.2000  0.1923
 6834TIP3    H144697   1.881   4.071   1.717  0.0711 -0.5833  0.9914
 6834TIP3    H244698   1.942   4.111   1.850 -1.1614  0.1870  1.3442
 6835TIP3   OH244699   3.279   2.041   1.987 -0.2332 -0.7288 -0.0272
 6835TIP3    H144700   3.291   2.125   2.031 -3.1667 -0.2633  0.0602
 6835TIP3    H244701   3.204   2.054   1.929 -1.3360 -3.4789  0.6209
 6836TIP3   OH244702   7.132   2.181   1.893 -0.1004  0.3545 -0.0909
 6836TIP3    H144703   7.110   2.102   1.943  1.0525 -0.2582 -0.5216
 6836TIP3    H244704   7.145   2.248   1.960 -2.2372  0.5330  0.2387
 6837TIP3   OH244705   6.039   4.987   2.769 -0.3195  0.6692 -0.1636
 6837TIP3    H144706   5.965   5.014   2.823 -0.2049  1.3733 -0.3483
 6837TIP3    H244707   6.078   4.914   2.817 -0.9449  0.4915  0.0901
 6838TIP3   OH244708   1.745   3.611   0.873  0.3865  0.4074 -0.0990
 6838TIP3    H144709   1.760   3.681   0.810 -1.0896  1.8702  1.1230
 6838TIP3    H244710   1.765   3.531   0.824 -0.6218  1.4778 -2.4105
 6839TIP3   OH244711   1.729   6.755   2.265  1.1943  0.1051  0.1307
 6839TIP3    H144712   1.755   6.666   2.242  0.2018  0.2347 -1.6450
 6839TIP3    H244713   1.660   6.777   2.203  1.1538  1.9882  0.7745
 6840TIP3   OH244714   4.135   1.306   3.655 -0.5543  0.2548  0.4501
 6840TIP3    H144715   4.133   1.214   3.679  0.2191  0.0721 -0.1029
 6840TIP3    H244716   4.124   1.306   3.560  0.4217  0.6436  0.3164
 6841TIP3   OH244717   5.958   3.242   1.500 -0.3668  0.1041  0.2807
 6841TIP3    H144718   5.863   3.228   1.494 -0.0501 -1.6813 -2.1244
 6841TIP3    H244719   5.984   3.193   1.578 -1.3330 -0.1136  0.4827
 6842TIP3   OH244720   4.409   2.676   0.454 -0.6716  0.3301 -0.4010
 6842TIP3    H144721   4.441   2.617   0.386 -1.3443 -0.4799 -0.0275
 6842TIP3    H244722   4.358   2.621   0.512 -0.7627  1.1624  0.3335
 6843TIP3   OH244723   7.408   1.588   1.282 -0.0097 -0.0567 -0.4241
 6843TIP3    H144724   7.355   1.510   1.266  0.4064 -0.7814  1.4471
 6843TIP3    H244725   7.392   1.609   1.374  1.8021  0.5785 -0.2129
 6844TIP3   OH244726   6.294   1.164   2.458  0.4001  0.0921  0.2006
 6844TIP3    H144727   6.315   1.097   2.524 -1.3394 -2.0532 -1.2693
 6844TIP3    H244728   6.378   1.206   2.439  1.3478 -0.8418  2.0522
 6845TIP3   OH244729   4.155   3.692   1.394  0.0192 -0.1238  0.0828
 6845TIP3    H144730   4.202   3.711   1.475  1.1492  0.0215 -0.5996
 6845TIP3    H244731   4.117   3.776   1.367  1.3220  0.2692 -0.5873
 6846TIP3   OH244732   4.572   2.105   1.353 -0.0278 -0.4541 -0.3491
 6846TIP3    H144733   4.640   2.156   1.397 -0.1191 -1.0954  0.5605
 6846TIP3    H244734   4.620   2.038   1.304  0.0832  0.3629 -1.4065
 6847TIP3   OH244735   2.968   6.279   1.351  0.5124  0.6127  0.0063
 6847TIP3    H144736   3.056   6.272   1.313  1.3304  0.0918  1.8737
 6847TIP3    H244737   2.909   6.269   1.277  2.0096  2.0320 -1.4843
 6848TIP3   OH244738   1.100   3.036   3.246  0.2591 -0.4512  0.0458
 6848TIP3    H144739   1.135   2.950   3.270  0.3216 -0.1231  1.1764
 6848TIP3    H244740   1.178   3.090   3.230  0.2222 -0.5379 -0.4436
 6849TIP3   OH244741   5.577   6.437   0.827  0.1907  0.3489  0.5702
 6849TIP3    H144742   5.485   6.445   0.803 -0.3502  1.0367  2.6201
 6849TIP3    H244743   5.622   6.502   0.774 -0.5407  0.1718 -0.2782
 6850TIP3   OH244744   3.529   2.162   0.738 -0.0019 -0.0976 -0.2472
 6850TIP3    H144745   3.594   2.128   0.800 -1.3126  0.1697  1.3379
 6850TIP3    H244746   3.560   2.251   0.719  0.1075  0.0417  0.5176
 6851TIP3   OH244747   4.419   4.980   1.172  0.0193 -0.2406  0.2410
 6851TIP3    H144748   4.358   5.006   1.103 -0.3427 -1.8180 -0.0678
 6851TIP3    H244749   4.383   5.019   1.252  0.6551  1.9357 -0.4561
 6852TIP3   OH244750   6.379   0.441   3.189  0.8745 -0.2024  0.1767
 6852TIP3    H144751   6.385   0.346   3.183  0.9268 -0.2528  0.9215
 6852TIP3    H244752   6.335   0.468   3.109  1.1708 -0.8216 -0.2006
 6853TIP3   OH244753   2.004   2.108   1.808 -0.1613 -0.0030 -0.1855
 6853TIP3    H144754   1.994   2.202   1.792 -0.6474 -0.1132 -0.5335
 6853TIP3    H244755   2.099   2.093   1.801 -0.1258  0.3815 -0.5663
 6854TIP3   OH244756   1.310   6.495   1.851 -0.2921  0.5126  0.5611
 6854TIP3    H144757   1.316   6.586   1.880  0.7245  0.3719  0.8141
 6854TIP3    H244758   1.358   6.445   1.917  1.4852  0.1141 -0.9579
 6855TIP3   OH244759   0.436   4.240   2.162  0.2238 -0.3878 -0.1302
 6855TIP3    H144760   0.400   4.202   2.242 -1.3569  0.7684 -0.2474
 6855TIP3    H244761   0.360   4.254   2.105  0.6645  2.7532 -0.1500
 6856TIP3   OH244762   6.109   1.430   1.564 -0.7103 -0.1538 -0.8688
 6856TIP3    H144763   6.082   1.431   1.472 -0.5013  0.1946 -0.9270
 6856TIP3    H244764   6.167   1.506   1.573  0.1816 -0.8300 -0.7293
 6857TIP3   OH244765   5.083   5.879   0.842 -1.0103  0.1596 -0.1602
 6857TIP3    H144766   5.083   5.892   0.937 -1.0924 -0.9009  0.0039
 6857TIP3    H244767   5.098   5.785   0.831  2.5330  0.6887 -1.2589
 6858TIP3   OH244768   2.677   5.092   1.481 -0.3458  0.5435 -0.4061
 6858TIP3    H144769   2.619   5.168   1.487 -1.5035 -0.3425 -0.0439
 6858TIP3    H244770   2.653   5.037   1.555 -0.2549 -0.6801 -1.2499
 6859TIP3   OH244771   4.120   4.202   2.881 -0.4138  0.6303  0.6905
 6859TIP3    H144772   4.102   4.121   2.929 -2.1370 -0.1903 -1.2033
 6859TIP3    H244773   4.041   4.254   2.891 -1.4740 -0.2020 -2.3559
 6860TIP3   OH244774   1.539   6.984   0.693 -0.0930 -0.3635  0.1930
 6860TIP3    H144775   1.496   7.011   0.613 -0.2911  0.9454  0.7152
 6860TIP3    H244776   1.468   6.974   0.757  0.2784  1.3194  0.9220
 6861TIP3   OH244777   1.365   0.235   1.951  0.2164  0.1133 -0.1740
 6861TIP3    H144778   1.304   0.227   2.024  0.2159  0.1549 -0.1698
 6861TIP3    H244779   1.331   0.174   1.885  1.5688 -1.7390  0.7625
 6862TIP3   OH244780   3.819   6.408   1.192  0.1510  0.3200 -0.4208
 6862TIP3    H144781   3.846   6.500   1.180  0.4305  0.7787  2.9462
 6862TIP3    H244782   3.734   6.413   1.235  0.5419 -0.9668  0.5692
 6863TIP3   OH244783   4.797   7.626   2.459  0.8408  0.3306 -0.2667
 6863TIP3    H144784   4.858   7.673   2.517  1.6587  0.3007 -1.0750
 6863TIP3    H244785   4.852   7.598   2.385 -0.2223  0.5553 -1.1558
 6864TIP3   OH244786   6.048   0.160   1.861 -0.1081 -0.1632  0.2462
 6864TIP3    H144787   5.954   0.142   1.870  0.1000 -1.1590  0.5474
 6864TIP3    H244788   6.064   0.157   1.766 -0.3408 -0.1983  0.2070
 6865TIP3   OH244789   1.888   0.802   2.339  0.2011 -0.1674  0.1212
 6865TIP3    H144790   1.952   0.860   2.297  0.2378 -0.3846 -0.1204
 6865TIP3    H244791   1.841   0.761   2.267 -0.5084  0.3182  0.2989
 6866TIP3   OH244792   3.358   6.782   2.319 -0.2017  0.5549  0.2656
 6866TIP3    H144793   3.304   6.856   2.348 -2.6443  0.1154 -2.6543
 6866TIP3    H244794   3.442   6.821   2.296 -0.3452  1.8527  1.7332
 6867TIP3   OH244795   1.276   4.759   2.096 -0.1761 -0.1717 -0.1652
 6867TIP3    H144796   1.266   4.836   2.152  0.3152 -0.6537  0.6197
 6867TIP3    H244797   1.201   4.704   2.118 -0.3099 -0.0964 -0.4299
 6868TIP3   OH244798   0.025   4.368   2.310 -0.7565  0.0208 -0.2674
 6868TIP3    H144799   0.012   4.430   2.382 -1.3355 -1.0048  0.5292
 6868TIP3    H244800   0.018   4.282   2.351 -0.0928 -0.5760 -1.3846
 6869TIP3   OH244801   6.583   3.381   0.510  0.0666  0.5261 -0.6180
 6869TIP3    H144802   6.615   3.407   0.423  1.2560  0.7344 -0.1469
 6869TIP3    H244803   6.488   3.385   0.503  0.1176 -0.1459 -2.1187
 6870TIP3   OH244804   4.797   2.292   2.002 -0.7625  0.6127  0.0717
 6870TIP3    H144805   4.806   2.228   1.932 -2.5614  0.5217 -0.1319
 6870TIP3    H244806   4.800   2.240   2.083 -0.2617  0.5207 -0.0068
 6871TIP3   OH244807   6.966   6.439   2.285 -0.4214 -0.5186  0.6846
 6871TIP3    H144808   6.899   6.404   2.226 -0.5740  0.1081  0.4839
 6871TIP3    H244809   6.975   6.372   2.353 -0.0752 -1.3596 -0.1671
 6872TIP3   OH244810   5.011   0.794   2.984  0.0566 -0.2807  0.3197
 6872TIP3    H144811   4.997   0.735   3.059 -1.1520 -1.1921 -0.5831
 6872TIP3    H244812   4.933   0.848   2.981  0.9857  1.1425  0.8900
 6873TIP3   OH244813   4.071   3.744   1.974  1.0295  0.0095  0.7302
 6873TIP3    H144814   4.080   3.672   1.912 -0.4993 -0.0930  0.5912
 6873TIP3    H244815   4.034   3.704   2.052  0.5290  0.5717  0.7874
 6874TIP3   OH244816   2.940   1.754   0.811  0.9340  0.2191 -0.1294
 6874TIP3    H144817   3.004   1.772   0.743  2.4939 -1.7167  0.7015
 6874TIP3    H244818   2.991   1.753   0.892 -0.2578 -0.7539  0.6522
 6875TIP3   OH244819   7.458   0.596   2.465 -0.1487  0.3490 -0.2833
 6875TIP3    H144820   7.373   0.554   2.478  0.7634 -0.8308  2.9174
 6875TIP3    H244821   7.457   0.625   2.374 -2.9195 -1.9740 -1.1446
 6876TIP3   OH244822   2.708   1.688   1.122  0.0060 -0.3637 -0.0067
 6876TIP3    H144823   2.680   1.690   1.031  0.7043  0.2485 -0.2149
 6876TIP3    H244824   2.762   1.766   1.133  0.9547 -1.0850  0.5905
 6877TIP3   OH244825   3.581   7.306   2.786  0.2496  0.4113 -0.1384
 6877TIP3    H144826   3.493   7.270   2.795  0.8100 -0.9374  0.1502
 6877TIP3    H244827   3.576   7.392   2.829 -1.3074  1.0670 -1.5221
 6878TIP3   OH244828   4.889   1.673   3.337  0.5974  0.5575  0.7787
 6878TIP3    H144829   4.895   1.721   3.254  1.1373 -0.6770  0.0859
 6878TIP3    H244830   4.844   1.592   3.315  1.9030 -0.3694  1.4117
 6879TIP3   OH244831   4.489   2.779   2.094 -0.0431  0.2782  0.1209
 6879TIP3    H144832   4.572   2.824   2.081  0.4143 -0.3613  0.7872
 6879TIP3    H244833   4.488   2.756   2.187  0.0197 -1.6402 -0.3165
 6880TIP3   OH244834   0.906   3.848   1.107  0.2296  0.3978  0.1667
 6880TIP3    H144835   0.832   3.903   1.080  0.7471  0.4218 -1.2727
 6880TIP3    H244836   0.968   3.909   1.147  0.7033  0.8632 -1.2220
 6881TIP3   OH244837   3.839   3.498   3.509 -0.0796  0.6741  0.1567
 6881TIP3    H144838   3.905   3.433   3.486  0.8314  1.8019 -0.5394
 6881TIP3    H244839   3.830   3.552   3.431 -1.1495  1.1228  0.5657
 6882TIP3   OH244840   5.673   1.968   2.687 -0.5836  0.1279 -0.5751
 6882TIP3    H144841   5.762   1.935   2.687  0.0509  1.4935  2.4501
 6882TIP3    H244842   5.676   2.045   2.630 -0.5063 -1.1634 -2.4066
 6883TIP3   OH244843   7.599   6.039   2.608  0.0748 -0.2468 -0.6161
 6883TIP3    H144844   7.694   6.029   2.602  0.2219  0.2986  0.6015
 6883TIP3    H244845   7.586   6.130   2.636 -0.8055 -0.3707 -0.5886
 6884TIP3   OH244846   3.533   3.860   0.473  0.4488 -0.0867  0.1619
 6884TIP3    H144847   3.520   3.926   0.542 -0.1182  0.2236 -0.2291
 6884TIP3    H244848   3.449   3.813   0.470  1.0108 -1.1669  0.7748
 6885TIP3   OH244849   4.367   6.907   2.327 -0.1151 -0.2640  0.3880
 6885TIP3    H144850   4.459   6.882   2.332  0.8416  2.3609 -1.5328
 6885TIP3    H244851   4.353   6.966   2.401 -0.3433 -0.8921  0.8475
 6886TIP3   OH244852   3.804   0.430   2.460  0.3554 -0.1170  0.0341
 6886TIP3    H144853   3.722   0.454   2.418 -1.2622  1.1881  3.5672
 6886TIP3    H244854   3.872   0.458   2.399 -1.7613 -0.0282 -2.4134
 6887TIP3   OH244855   3.116   6.668   1.694  0.1974 -0.5618 -0.0781
 6887TIP3    H144856   3.093   6.575   1.690 -0.9162 -0.2902 -0.2948
 6887TIP3    H244857   3.036   6.711   1.724  0.7101  0.3266  0.0394
 6888TIP3   OH244858   0.724   4.752   1.870 -0.2878  0.1733 -0.4554
 6888TIP3    H144859   0.640   4.708   1.883 -0.2474  0.3221  0.3485
 6888TIP3    H244860   0.704   4.823   1.808 -0.7267  0.1323 -0.3673
 6889TIP3   OH244861   7.350   4.260   0.800  0.5805  0.2186 -0.2642
 6889TIP3    H144862   7.277   4.290   0.746  1.3144  0.3851 -1.1898
 6889TIP3    H244863   7.383   4.182   0.756  0.5243 -0.2671  0.5369
 6890TIP3   OH244864   3.015   3.499   1.431  0.2205  0.2091  0.4169
 6890TIP3    H144865   2.987   3.409   1.418 -1.4343  0.5960  1.0450
 6890TIP3    H244866   2.973   3.526   1.512  0.4534  1.6426  0.0947
 6891TIP3   OH244867   0.567   2.688   2.031  0.6456  0.4700  0.1225
 6891TIP3    H144868   0.661   2.678   2.011  0.3290  0.8076 -1.7087
 6891TIP3    H244869   0.528   2.606   2.003  0.2477  0.7689 -0.2139
 6892TIP3   OH244870   0.414   6.427   2.682  0.4054  0.7086  0.5112
 6892TIP3    H144871   0.495   6.444   2.729  0.2249  0.6934  0.8375
 6892TIP3    H244872   0.385   6.342   2.715  0.0962  0.8593  0.6360
 6893TIP3   OH244873   2.088   0.109   2.140 -0.2299 -0.3869  0.8208
 6893TIP3    H144874   2.098   0.174   2.071 -2.6866  0.1976  0.9227
 6893TIP3    H244875   2.063   0.029   2.095 -2.5212  0.1685  0.9902
 6894TIP3   OH244876   3.890   2.935   2.884 -0.2176  0.3381  0.0672
 6894TIP3    H144877   3.974   2.909   2.845 -0.6446 -0.1940 -0.5154
 6894TIP3    H244878   3.831   2.947   2.810 -0.8990 -0.1630  0.5125
 6895TIP3   OH244879   2.866   5.692   0.524  0.0684  0.5870  0.2601
 6895TIP3    H144880   2.950   5.658   0.553  0.5941  1.3927 -0.2757
 6895TIP3    H244881   2.887   5.747   0.449 -0.8198  1.5993  0.7324
 6896TIP3   OH244882   1.174   1.932   2.785  0.0973  0.1721 -0.1826
 6896TIP3    H144883   1.249   1.878   2.809  0.4169  0.6392 -0.1398
 6896TIP3    H244884   1.108   1.912   2.852  0.6087  0.6705  0.4729
 6897TIP3   OH244885   5.252   7.132   1.451 -0.2180 -0.4428  0.1525
 6897TIP3    H144886   5.347   7.146   1.457 -0.3198  0.3758  0.0322
 6897TIP3    H244887   5.218   7.216   1.419 -0.8396 -1.1964 -1.2248
 6898TIP3   OH244888   4.663   0.442   1.248 -0.3868  0.2674  0.1430
 6898TIP3    H144889   4.750   0.414   1.219 -0.8272  0.3021 -1.2688
 6898TIP3    H244890   4.681   0.498   1.324  0.5780 -2.6533  2.2437
 6899TIP3   OH244891   4.504   4.164   1.702 -0.0316  0.1396 -0.2949
 6899TIP3    H144892   4.593   4.200   1.706  0.3861 -0.9010  0.3508
 6899TIP3    H244893   4.504   4.110   1.623  0.5339 -1.3499  0.6782
 6900TIP3   OH244894   4.999   6.783   2.498 -0.5053  0.7096 -0.0034
 6900TIP3    H144895   4.964   6.864   2.461  0.0597  1.9049  1.9201
 6900TIP3    H244896   4.923   6.741   2.538 -0.4997  1.1854  0.5184
 6901TIP3   OH244897   7.673   1.070   0.772 -0.3857  0.1697 -0.1692
 6901TIP3    H144898   7.759   1.082   0.813 -0.1383 -1.5357 -0.1246
 6901TIP3    H244899   7.689   1.081   0.678  0.6366 -3.2725 -0.5517
 6902TIP3   OH244900   0.952   2.890   3.054 -0.1634 -0.0234 -0.4805
 6902TIP3    H144901   0.985   2.951   3.119  0.7652 -0.7104 -0.2956
 6902TIP3    H244902   1.030   2.852   3.013 -0.7177 -0.8091 -0.8511
 6903TIP3   OH244903   5.280   5.997   2.645  0.1470  0.6788 -0.1672
 6903TIP3    H144904   5.279   6.091   2.660 -0.5214  0.9592 -1.7229
 6903TIP3    H244905   5.371   5.977   2.622  0.1925  1.0244 -0.2917
 6904TIP3   OH244906   1.917   2.202   2.363  0.0289 -0.0320 -0.3512
 6904TIP3    H144907   1.890   2.163   2.280 -1.1601 -1.6763  0.7410
 6904TIP3    H244908   1.838   2.200   2.417  0.6142  1.5937  0.6362
 6905TIP3   OH244909   6.195   5.306   1.114  0.1594  0.4108  0.4455
 6905TIP3    H144910   6.155   5.241   1.171 -0.2186  0.8332  0.6643
 6905TIP3    H244911   6.138   5.382   1.120  0.0675  0.4268 -0.5734
 6906TIP3   OH244912   1.986   5.558   1.204  0.2062 -0.4970  0.8850
 6906TIP3    H144913   1.927   5.482   1.197 -0.2340 -0.1584  0.9059
 6906TIP3    H244914   1.928   5.634   1.205  0.6203 -0.1815  1.3773
 6907TIP3   OH244915   7.452   6.728   2.627  0.1143 -0.2311  0.5006
 6907TIP3    H144916   7.443   6.710   2.534  0.8340 -1.2492  0.6139
 6907TIP3    H244917   7.517   6.798   2.632  1.7272 -1.6400  0.3068
 6908TIP3   OH244918   5.751   6.698   2.325 -0.2731  0.0737  0.4524
 6908TIP3    H144919   5.797   6.773   2.287 -0.7864  0.2724  0.2143
 6908TIP3    H244920   5.755   6.631   2.257  1.1483 -0.5201  1.0756
 6909TIP3   OH244921   1.640   4.208   2.784  0.4389 -0.3637 -0.0825
 6909TIP3    H144922   1.723   4.213   2.737  1.0779 -1.7698  0.8237
 6909TIP3    H244923   1.583   4.159   2.726  0.5247 -0.1679 -0.3333
 6910TIP3   OH244924   7.645   1.960   0.934 -0.2200 -0.0631  0.0835
 6910TIP3    H144925   7.662   1.975   1.027  1.4213 -1.4795  0.0698
 6910TIP3    H244926   7.641   1.865   0.926  1.3824 -0.0455 -1.5209
 6911TIP3   OH244927   5.218   3.631   2.762 -0.6930  0.6999 -0.6564
 6911TIP3    H144928   5.141   3.611   2.709 -1.3955 -0.0091  0.5761
 6911TIP3    H244929   5.182   3.656   2.847  0.4348  0.5609 -0.1272
 6912TIP3   OH244930   2.034   5.918   2.248 -0.8200  0.2257 -0.3297
 6912TIP3    H144931   2.008   5.948   2.335  0.3525 -1.3478  0.6147
 6912TIP3    H244932   2.124   5.888   2.259 -0.4277  0.5688 -2.2530
 6913TIP3   OH244933   7.606   2.820   1.331  0.5423  0.0060  0.2089
 6913TIP3    H144934   7.612   2.903   1.285 -0.8471 -0.6026 -1.1600
 6913TIP3    H244935   7.529   2.777   1.293  1.7175 -2.2734  0.2749
 6914TIP3   OH244936   6.067   1.294   2.563 -0.1828  0.0386  0.1740
 6914TIP3    H144937   6.112   1.217   2.598  0.0060 -0.3642 -0.9056
 6914TIP3    H244938   6.138   1.353   2.537 -0.3189  0.3713  0.5590
 6915TIP3   OH244939   5.485   0.905   3.290 -0.2140  0.0540  0.2406
 6915TIP3    H144940   5.555   0.851   3.326  0.1599 -0.5074 -1.2455
 6915TIP3    H244941   5.421   0.842   3.257 -0.1696  0.5201 -0.7642
 6916TIP3   OH244942   2.845   4.079   1.485  0.3538 -0.2651 -0.6537
 6916TIP3    H144943   2.908   4.024   1.438  0.6341  1.6380 -2.6094
 6916TIP3    H244944   2.761   4.059   1.445  0.3797  0.3311 -1.0151
 6917TIP3   OH244945   1.210   6.178   1.201  0.0961  0.0889  0.0647
 6917TIP3    H144946   1.275   6.184   1.270  0.8887 -0.7574 -0.5794
 6917TIP3    H244947   1.186   6.269   1.182 -0.0158  0.3410  1.3085
 6918TIP3   OH244948   7.547   4.086   1.131  0.2045  0.5055 -0.2928
 6918TIP3    H144949   7.619   4.044   1.084 -0.5235  0.7528 -1.6978
 6918TIP3    H244950   7.557   4.179   1.111 -0.8619  0.4743 -1.0621
 6919TIP3   OH244951   3.126   6.681   0.791  0.0185  0.2459 -0.3989
 6919TIP3    H144952   3.091   6.752   0.738 -0.7639 -0.5455 -0.9574
 6919TIP3    H244953   3.217   6.707   0.809 -0.4438  1.7105 -0.0032
 6920TIP3   OH244954   4.973   5.769   3.176 -0.0978  0.2801 -0.9504
 6920TIP3    H144955   4.879   5.755   3.191  0.4525 -2.5962  0.6744
 6920TIP3    H244956   5.006   5.800   3.260  0.6476 -0.5091 -0.9390
 6921TIP3   OH244957   6.013   2.168   3.119 -0.0506 -0.0531  0.3379
 6921TIP3    H144958   5.973   2.132   3.040  0.0532  0.3190  0.1165
 6921TIP3    H244959   5.992   2.104   3.188 -0.1703 -0.3577  0.0196
 6922TIP3   OH244960   6.355   5.143   1.628  0.5152 -0.5341  0.3413
 6922TIP3    H144961   6.291   5.214   1.620  0.7509 -0.3743 -0.1527
 6922TIP3    H244962   6.419   5.177   1.690  0.1369 -0.6859  0.8209
 6923TIP3   OH244963   0.525   2.768   1.163  0.1714 -0.1464 -0.3655
 6923TIP3    H144964   0.587   2.698   1.142  1.4048  1.4210 -2.3046
 6923TIP3    H244965   0.553   2.800   1.249  0.4874 -1.0648 -0.1178
 6924TIP3   OH244966   4.909   7.473   1.997 -0.1192 -0.3146 -0.0073
 6924TIP3    H144967   4.815   7.459   1.987  0.1382 -2.3558 -0.0610
 6924TIP3    H244968   4.936   7.510   1.913 -1.1948  2.6457  0.8497
 6925TIP3   OH244969   4.569   1.333   0.999  0.3450  0.0969  0.0062
 6925TIP3    H144970   4.637   1.313   0.935 -2.4725  0.0427 -3.3154
 6925TIP3    H244971   4.541   1.247   1.032  1.8598  0.1273  1.4341
 6926TIP3   OH244972   1.436   4.309   1.936 -0.1606 -0.2266 -0.1847
 6926TIP3    H144973   1.360   4.291   1.881  0.7469  0.8693 -1.8860
 6926TIP3    H244974   1.476   4.387   1.897  2.4261 -1.3557 -0.0146
 6927TIP3   OH244975   6.183   5.981   2.445 -0.4133  0.2687 -0.5143
 6927TIP3    H144976   6.160   5.942   2.529 -0.4377 -0.8349 -1.0161
 6927TIP3    H244977   6.100   5.987   2.398 -0.4298  1.0557 -0.4091
 6928TIP3   OH244978   5.037   5.588   2.944 -0.5441  0.1594 -0.1273
 6928TIP3    H144979   5.024   5.636   3.026  0.0768  1.1096 -0.5727
 6928TIP3    H244980   4.949   5.574   2.910 -0.7734  0.2581  0.4190
 6929TIP3   OH244981   7.162   5.663   1.696  0.1653  0.2511 -0.4682
 6929TIP3    H144982   7.144   5.580   1.652  1.8633  1.3091 -3.5262
 6929TIP3    H244983   7.223   5.641   1.766 -0.6087 -1.2282 -0.2162
 6930TIP3   OH244984   3.515   2.429   2.794 -0.5063 -0.2864 -0.4089
 6930TIP3    H144985   3.421   2.422   2.804 -0.5829  1.4950  0.4626
 6930TIP3    H244986   3.537   2.515   2.830  1.4678 -0.7237 -0.4552
 6931TIP3   OH244987   5.545   1.343   4.204  0.5441  0.1526 -0.0024
 6931TIP3    H144988   5.572   1.365   4.115  2.2443 -4.5400 -0.9716
 6931TIP3    H244989   5.627   1.338   4.253 -0.0304 -0.3858  0.9313
 6932TIP3   OH244990   6.067   7.537   2.145 -0.4534 -0.1912  0.1928
 6932TIP3    H144991   6.154   7.498   2.146 -0.3803 -0.1533 -1.5385
 6932TIP3    H244992   6.078   7.622   2.189  0.2121 -0.5040  0.6350
 6933TIP3   OH244993   6.072   0.484   0.421  0.4251 -0.0772  0.1480
 6933TIP3    H144994   6.056   0.418   0.353 -1.5244  0.0826  0.3963
 6933TIP3    H244995   6.154   0.526   0.395  0.0655 -0.4644 -1.7607
 6934TIP3   OH244996   4.182   7.580   0.734 -0.1654  0.1745 -0.0568
 6934TIP3    H144997   4.168   7.504   0.678 -0.9710  0.0481  0.3042
 6934TIP3    H244998   4.275   7.602   0.722  0.0538 -0.8128 -0.2245
 6935TIP3   OH244999   5.499   0.296   2.818  0.1772  0.0830 -0.1693
 6935TIP3    H145000   5.504   0.340   2.733  0.4882  1.3087  0.4662
 6935TIP3    H245001   5.460   0.211   2.798  1.8061 -0.3417 -1.7953
 6936TIP3   OH245002   1.676   2.223   2.479 -0.1109 -0.3200 -0.0423
 6936TIP3    H145003   1.638   2.309   2.499 -0.7709 -0.7527  0.6157
 6936TIP3    H245004   1.603   2.162   2.488  0.4372 -1.0003 -0.1488
 6937TIP3   OH245005   6.899   6.769   2.629 -0.3169  0.1902  0.0120
 6937TIP3    H145006   6.893   6.772   2.725  1.0883 -0.6242  0.1458
 6937TIP3    H245007   6.988   6.739   2.611 -1.3517 -2.3560 -1.4835
 6938TIP3   OH245008   5.149   5.828   0.539 -0.2662  0.1563  0.0417
 6938TIP3    H145009   5.063   5.823   0.498 -0.0373  1.8049 -0.7030
 6938TIP3    H245010   5.131   5.841   0.632 -0.8411  1.3327 -0.2239
 6939TIP3   OH245011   3.486   1.503   1.205 -0.2125 -0.3294 -0.2408
 6939TIP3    H145012   3.516   1.414   1.186  1.5037 -0.0831  1.0457
 6939TIP3    H245013   3.410   1.491   1.262 -0.3914 -0.9693 -0.6051
 6940TIP3   OH245014   1.138   0.267   0.384 -0.6922 -0.5721  0.5618
 6940TIP3    H145015   1.231   0.257   0.404 -0.7704  0.3663  1.4242
 6940TIP3    H245016   1.116   0.187   0.336  0.2710 -1.3849  1.4165
 6941TIP3   OH245017   1.465   4.365   2.615 -0.0850  0.1568  0.0827
 6941TIP3    H145018   1.492   4.305   2.545 -0.2772 -0.1770  0.2897
 6941TIP3    H245019   1.543   4.375   2.669  0.1055  0.5262 -0.2549
 6942TIP3   OH245020   1.468   2.073   2.570 -0.9893 -0.3108 -0.0063
 6942TIP3    H145021   1.527   2.027   2.630  0.4348  1.5349  0.0732
 6942TIP3    H245022   1.423   2.137   2.625 -0.5378  0.5974 -0.6757
 6943TIP3   OH245023   2.998   7.122   1.044  0.3660  0.3208  0.1420
 6943TIP3    H145024   3.007   7.209   1.005  1.6847 -0.0867 -0.5284
 6943TIP3    H245025   2.917   7.127   1.094 -0.6561  1.2938 -1.5171
 6944TIP3   OH245026   0.168   4.334   1.735  0.4913 -0.3817  0.0566
 6944TIP3    H145027   0.263   4.346   1.747  0.4958  1.1774 -1.2373
 6944TIP3    H245028   0.161   4.256   1.680  1.0830 -0.0042 -0.5693
 6945TIP3   OH245029   4.798   4.200   2.248 -1.1031  0.1029  0.6119
 6945TIP3    H145030   4.798   4.277   2.190 -1.6646  0.8830  1.6242
 6945TIP3    H245031   4.717   4.155   2.227 -1.6269  0.7390  1.2343
 6946TIP3   OH245032   5.641   1.974   0.947 -0.5854  0.4135 -0.0596
 6946TIP3    H145033   5.592   1.988   1.028 -1.7024  1.5268 -0.8835
 6946TIP3    H245034   5.694   1.896   0.964 -1.6086 -0.0118  1.3606
 6947TIP3   OH245035   4.422   3.942   1.290  0.2692 -0.3803 -0.4889
 6947TIP3    H145036   4.496   3.939   1.350 -0.6698 -1.6432  0.6692
 6947TIP3    H245037   4.414   4.034   1.266  1.5971 -0.0787  0.1264
 6948TIP3   OH245038   0.957   1.869   2.956  0.6495  0.2623 -0.2591
 6948TIP3    H145039   1.021   1.868   3.027 -0.3447  0.2854  0.6614
 6948TIP3    H245040   0.924   1.959   2.955 -0.9542 -0.2617  0.7722
 6949TIP3   OH245041   5.103   0.073   2.013 -0.1917 -0.0538 -0.0219
 6949TIP3    H145042   5.108   0.009   2.085  1.3997  0.2294  0.1530
 6949TIP3    H245043   5.162   0.038   1.946  0.0346  0.7970 -0.2754
 6950TIP3   OH245044   6.873   1.400   1.817  0.4391  0.3671  0.1432
 6950TIP3    H145045   6.834   1.438   1.896  0.3945 -0.5714  0.5895
 6950TIP3    H245046   6.954   1.360   1.848  0.3218 -0.1787 -0.2498
 6951TIP3   OH245047   2.086   2.899   2.381  0.8879 -0.2200  0.2625
 6951TIP3    H145048   2.059   2.828   2.439  0.0655 -0.9130 -0.9244
 6951TIP3    H245049   2.066   2.979   2.431 -0.7908 -0.7738  0.5447
 6952TIP3   OH245050   7.388   5.656   2.233 -0.1631  0.2156 -0.0274
 6952TIP3    H145051   7.451   5.590   2.205 -0.1796  0.1819  0.0139
 6952TIP3    H245052   7.421   5.688   2.317 -0.2232  0.1676  0.0150
 6953TIP3   OH245053   0.859   6.754   2.413 -0.2415  0.4020  0.2630
 6953TIP3    H145054   0.915   6.750   2.491  0.8988 -1.6639 -0.5923
 6953TIP3    H245055   0.914   6.793   2.346  0.1409 -1.3442 -0.4966
 6954TIP3   OH245056   5.945   7.440   3.946  0.2566 -0.1509  0.0584
 6954TIP3    H145057   6.019   7.484   3.989  0.7799  0.6682 -1.6057
 6954TIP3    H245058   5.871   7.500   3.959  0.5422  0.3615 -0.6297
 6955TIP3   OH245059   2.404   2.608   0.883 -0.6005 -0.2986 -0.7271
 6955TIP3    H145060   2.480   2.561   0.849  0.6895 -1.6750  3.3997
 6955TIP3    H245061   2.329   2.557   0.855  0.4529 -2.1023 -0.4384
 6956TIP3   OH245062   2.153   3.417   2.678  0.0821  0.4269 -0.8335
 6956TIP3    H145063   2.152   3.374   2.592 -0.5098  0.4948 -0.8660
 6956TIP3    H245064   2.078   3.476   2.676 -2.7439 -2.7334  1.3423
 6957TIP3   OH245065   6.320   0.715   0.674 -0.1763 -0.2705  0.8292
 6957TIP3    H145066   6.264   0.792   0.669  2.6133  1.8503  0.0014
 6957TIP3    H245067   6.313   0.674   0.588  0.4305  0.7081  0.2925
 6958TIP3   OH245068   3.256   2.653   0.988 -0.4534  0.5034  0.2559
 6958TIP3    H145069   3.211   2.602   0.920  0.3177  0.6615 -0.3915
 6958TIP3    H245070   3.255   2.743   0.955 -0.2075  0.6074  0.5295
 6959TIP3   OH245071   1.744   4.700   2.456 -0.5874 -0.1536 -0.2590
 6959TIP3    H145072   1.699   4.631   2.504  0.3139 -0.2312  0.5009
 6959TIP3    H245073   1.742   4.776   2.515 -2.8756  0.9777 -1.6625
 6960TIP3   OH245074   5.714   7.626   1.266  1.2464 -0.2851  0.0396
 6960TIP3    H145075   5.699   7.608   1.359 -2.2313 -0.1531 -0.3382
 6960TIP3    H245076   5.713   7.539   1.225  1.2879 -0.2536 -0.0279
 6961TIP3   OH245077   1.256   2.688   2.778 -0.1005 -0.6090  0.0108
 6961TIP3    H145078   1.229   2.767   2.825  0.0100  0.0837 -1.0419
 6961TIP3    H245079   1.287   2.628   2.846  0.8746  0.6856  0.7609
 6962TIP3   OH245080   2.324   5.645   1.956 -0.1847 -0.8069 -0.1620
 6962TIP3    H145081   2.248   5.679   1.908 -0.9386 -1.1302  0.7847
 6962TIP3    H245082   2.356   5.573   1.901 -0.0802 -0.1926 -0.9400
 6963TIP3   OH245083   2.314   4.062   1.654 -0.0887  0.4503  0.3552
 6963TIP3    H145084   2.254   4.057   1.729 -1.0160  3.0332 -0.0968
 6963TIP3    H245085   2.287   4.142   1.609  0.9797 -0.6048 -2.2937
 6964TIP3   OH245086   3.790   7.148   2.041 -0.5011  0.2281 -0.3791
 6964TIP3    H145087   3.882   7.169   2.054  0.0542 -2.0650 -0.1671
 6964TIP3    H245088   3.749   7.165   2.126  0.4335 -1.8658  0.5629
 6965TIP3   OH245089   6.721   4.253   2.503  0.5014 -0.3916  0.1771
 6965TIP3    H145090   6.765   4.180   2.460  1.8697  0.8258 -0.5585
 6965TIP3    H245091   6.655   4.212   2.559  1.2723 -2.1815 -0.1781
 6966TIP3   OH245092   4.183   6.587   1.798  0.2584 -0.6733 -0.6592
 6966TIP3    H145093   4.262   6.639   1.814 -1.4699  2.0432 -0.3569
 6966TIP3    H245094   4.130   6.600   1.876 -1.6130 -0.2409 -1.9503
 6967TIP3   OH245095   7.621   4.900   1.548 -0.0022  0.2933 -0.5702
 6967TIP3    H145096   7.687   4.892   1.478 -0.5283 -2.3243 -0.8458
 6967TIP3    H245097   7.657   4.850   1.621 -1.2495 -0.3968 -0.4005
 6968TIP3   OH245098   2.302   0.429   0.750  0.4855 -1.0489 -0.2556
 6968TIP3    H145099   2.278   0.521   0.758 -1.2694 -1.6061  2.8397
 6968TIP3    H245100   2.231   0.390   0.699  0.4311 -0.9007 -0.2941
 6969TIP3   OH245101   3.295   7.237   2.066 -0.6654 -0.1685 -0.3034
 6969TIP3    H145102   3.320   7.305   2.129  0.0627 -1.5330  0.9420
 6969TIP3    H245103   3.373   7.224   2.012 -0.4291 -0.7363  0.1587
 6970TIP3   OH245104   3.978   7.049   1.491 -0.0521 -0.0790 -0.4538
 6970TIP3    H145105   3.946   7.002   1.568  0.9342 -1.2441 -0.7275
 6970TIP3    H245106   3.990   7.139   1.521  0.8266 -0.6247  0.9159
 6971TIP3   OH245107   2.281   6.902   2.188 -0.5892 -0.4963 -0.3466
 6971TIP3    H145108   2.253   6.982   2.145 -0.7023  0.0266  0.6766
 6971TIP3    H245109   2.363   6.879   2.144 -1.0578 -0.3774 -1.3104
 6972TIP3   OH245110   3.205   2.133   3.584  0.2932  0.0924 -0.9627
 6972TIP3    H145111   3.256   2.098   3.511  0.3268 -1.5092 -0.2056
 6972TIP3    H245112   3.255   2.108   3.662 -0.3911  0.6746 -0.3215
 6973TIP3   OH245113   0.993   0.957   0.682  0.1064 -0.1949  0.3530
 6973TIP3    H145114   0.905   0.953   0.644 -0.0217 -0.6217  0.6876
 6973TIP3    H245115   1.023   1.046   0.662 -1.0192  0.5084  1.5902
 6974TIP3   OH245116   2.185   7.175   3.121 -0.4265  0.1110  0.1843
 6974TIP3    H145117   2.161   7.267   3.111 -0.6124  0.1005  0.5173
 6974TIP3    H245118   2.168   7.136   3.035  0.9409  0.6687 -0.3710
 6975TIP3   OH245119   0.171   4.833   2.072  0.0658  0.0566 -0.5714
 6975TIP3    H145120   0.166   4.749   2.118 -1.0494  0.0857 -0.6222
 6975TIP3    H245121   0.243   4.879   2.116 -0.6253 -0.1230  0.8088
 6976TIP3   OH245122   1.914   4.946   1.959 -0.0373  0.1253  0.2172
 6976TIP3    H145123   1.929   4.957   2.053 -2.2197  0.0892  0.6342
 6976TIP3    H245124   1.857   5.020   1.936  0.6042  0.2245 -1.1163
 6977TIP3   OH245125   0.524   6.281   1.525  0.3127 -0.3369 -0.1689
 6977TIP3    H145126   0.534   6.197   1.570 -1.3022 -0.9651 -0.9329
 6977TIP3    H245127   0.430   6.294   1.518  0.5314  1.8251  0.4164
 6978TIP3   OH245128   4.170   2.211   1.459  0.1904  0.3154 -0.1263
 6978TIP3    H145129   4.143   2.220   1.368 -1.0852  0.1615  0.2080
 6978TIP3    H245130   4.196   2.120   1.468 -1.1701 -0.0720  0.0185
 6979TIP3   OH245131   0.924   4.953   1.908 -0.3570  0.6321 -0.0774
 6979TIP3    H145132   0.860   4.882   1.898 -0.0004  0.0768  1.2582
 6979TIP3    H245133   1.005   4.917   1.873 -0.3606  0.6536 -0.1066
 6980TIP3   OH245134   4.354   6.484   2.388  0.4449 -0.1864 -0.0418
 6980TIP3    H145135   4.448   6.471   2.377  0.4972 -0.4434  0.6135
 6980TIP3    H245136   4.318   6.479   2.300  0.8344 -1.9192 -0.1388
 6981TIP3   OH245137   5.784   1.985   0.693  0.4255  0.4654  0.2545
 6981TIP3    H145138   5.851   2.053   0.694  0.4295  0.4557  0.6382
 6981TIP3    H245139   5.748   1.985   0.781 -0.6287  0.9995 -0.1583
 6982TIP3   OH245140   3.822   6.249   1.621  0.2633 -0.3393  0.1324
 6982TIP3    H145141   3.846   6.157   1.637 -0.0267 -0.2735  0.9970
 6982TIP3    H245142   3.754   6.244   1.554 -1.0068 -0.9057  1.3981
 6983TIP3   OH245143   5.390   1.220   1.166 -0.0496  0.1609  0.5360
 6983TIP3    H145144   5.386   1.126   1.145 -1.6406  0.2163  0.4614
 6983TIP3    H245145   5.304   1.253   1.141 -0.2100  1.2578  2.3920
 6984TIP3   OH245146   3.103   4.066   3.207 -0.0765 -0.2300 -0.3258
 6984TIP3    H145147   3.114   3.989   3.262  2.6883  0.8413  0.8339
 6984TIP3    H245148   3.153   4.047   3.128 -1.3929 -0.5037 -1.1302
 6985TIP3   OH245149   3.584   0.185   1.358 -0.2792 -0.5648 -0.5570
 6985TIP3    H145150   3.510   0.234   1.321 -0.9275  0.5090  1.9781
 6985TIP3    H245151   3.551   0.151   1.441  2.0905  0.0084  0.6925
 6986TIP3   OH245152   4.949   3.079   1.858 -0.6128 -0.1177  0.6557
 6986TIP3    H145153   4.938   3.154   1.916  2.9836  0.3932  0.8764
 6986TIP3    H245154   4.997   3.015   1.910  0.5968 -0.5968 -0.9594
 6987TIP3   OH245155   3.876   4.632   1.584  0.9655  0.2320 -0.3764
 6987TIP3    H145156   3.819   4.679   1.522  1.2154  0.1514 -0.6662
 6987TIP3    H245157   3.816   4.580   1.637  0.6577  1.0480  0.0997
 6988TIP3   OH245158   3.572   3.624   1.124  0.5491 -0.6429 -0.3601
 6988TIP3    H145159   3.547   3.686   1.192 -0.8590  1.3577 -2.5598
 6988TIP3    H245160   3.664   3.645   1.105 -0.4712  2.5848 -2.6403
 6989TIP3   OH245161   7.575   7.486   1.471 -0.0725 -0.3226  0.6080
 6989TIP3    H145162   7.610   7.455   1.554  1.3797 -1.3021 -0.3272
 6989TIP3    H245163   7.601   7.420   1.407  2.0440  2.1191 -1.2804
 6990TIP3   OH245164   5.574   4.790   2.174  0.4285 -0.0117 -0.6072
 6990TIP3    H145165   5.505   4.768   2.236 -0.2525 -0.0810 -1.3687
 6990TIP3    H245166   5.631   4.850   2.221 -0.4214  0.4308 -0.1228
 6991TIP3   OH245167   2.957   0.903   1.110 -0.1378 -0.3233 -0.0664
 6991TIP3    H145168   3.005   0.938   1.036 -0.0710  1.5172  0.7837
 6991TIP3    H245169   2.992   0.949   1.186 -2.0386 -0.1485  0.7859
 6992TIP3   OH245170   6.793   3.144   0.839  0.5106  0.0149  0.4818
 6992TIP3    H145171   6.711   3.127   0.885  0.5581  1.4139  1.1346
 6992TIP3    H245172   6.782   3.103   0.753 -1.1747  0.8238  0.2823
 6993TIP3   OH245173   2.864   7.029   1.354 -0.0576 -0.2638 -0.2904
 6993TIP3    H145174   2.852   7.110   1.304  0.4006 -0.4892 -0.7778
 6993TIP3    H245175   2.891   7.059   1.441  0.1267  0.1128 -0.4703
 6994TIP3   OH245176   7.581   7.468   0.635 -0.2953 -0.0844  0.2027
 6994TIP3    H145177   7.529   7.505   0.563  1.9295  1.0732 -0.9408
 6994TIP3    H245178   7.583   7.537   0.701 -0.5756 -0.3021  0.4396
 6995TIP3   OH245179   2.661   1.586   1.381 -0.2698  0.0351  0.3893
 6995TIP3    H145180   2.585   1.529   1.376 -0.0847 -0.2487  0.7771
 6995TIP3    H245181   2.682   1.607   1.290  0.9993 -2.2822  0.0853
 6996TIP3   OH245182   2.469   6.245   2.406  0.0035 -0.6485 -0.1655
 6996TIP3    H145183   2.393   6.201   2.446 -0.4929 -0.7293 -1.1647
 6996TIP3    H245184   2.494   6.187   2.333 -1.2248  1.1130 -2.0936
 6997TIP3   OH245185   5.170   0.650   0.708  0.0317  0.5166  0.4400
 6997TIP3    H145186   5.161   0.556   0.727  0.6023  0.1756 -0.8352
 6997TIP3    H245187   5.250   0.676   0.753  0.6366  0.0484 -0.3441
 6998TIP3   OH245188   2.162   2.159   2.722 -0.2896  0.1142 -0.1172
 6998TIP3    H145189   2.198   2.106   2.793 -0.9577 -0.2512 -0.0365
 6998TIP3    H245190   2.212   2.240   2.724  0.7433 -0.5032 -0.2258
 6999TIP3   OH245191   5.027   1.364   0.834 -0.1238 -0.0697  0.9144
 6999TIP3    H145192   5.070   1.420   0.770  0.5965 -0.0147  1.4301
 6999TIP3    H245193   4.961   1.420   0.875  0.4357  0.3425  1.2649
 7000TIP3   OH245194   1.696   4.294   3.080  0.2229 -0.2802  0.4186
 7000TIP3    H145195   1.647   4.218   3.113  0.4226 -0.5954 -0.0004
 7000TIP3    H245196   1.684   4.291   2.986 -0.4684  0.7120  0.4690
 7001TIP3   OH245197   2.093   5.631   3.259 -0.1230 -0.2496  0.1192
 7001TIP3    H145198   2.104   5.549   3.308 -1.6296  0.8769  2.5433
 7001TIP3    H245199   2.004   5.659   3.281  0.7488  2.6220  0.3117
 7002TIP3   OH245200   3.478   3.441   2.959  0.1634 -0.0238  0.2332
 7002TIP3    H145201   3.402   3.442   2.900  0.7864 -0.2914 -0.6028
 7002TIP3    H245202   3.446   3.402   3.040 -0.4054 -0.8398 -0.3759
 7003TIP3   OH245203   6.841   4.467   2.346  0.0449  0.1843  0.2443
 7003TIP3    H145204   6.788   4.547   2.347  1.0527  0.8727  0.6229
 7003TIP3    H245205   6.778   4.396   2.359 -0.9552  0.8553 -0.7563
 7004TIP3   OH245206   3.975   4.775   2.710 -0.1422 -0.2456  0.0132
 7004TIP3    H145207   3.883   4.787   2.733 -1.1545 -3.1155 -1.8771
 7004TIP3    H245208   4.001   4.694   2.754  1.2796  0.1311 -0.0741
 7005TIP3   OH245209   6.375   4.143   2.885  0.4460 -0.0926 -0.1652
 7005TIP3    H145210   6.414   4.086   2.952 -0.8565  1.5572  2.1290
 7005TIP3    H245211   6.282   4.125   2.890  0.2178  0.8841 -0.7143
 7006TIP3   OH245212   5.421   7.193   1.145 -0.1266 -0.7865  0.3964
 7006TIP3    H145213   5.464   7.263   1.194 -0.5124 -0.6276  0.5117
 7006TIP3    H245214   5.479   7.117   1.156 -0.8922 -1.1594  2.3025
 7007TIP3   OH245215   6.684   2.860   0.641  0.1333  0.4351  0.0535
 7007TIP3    H145216   6.645   2.945   0.624  1.8821  1.0193 -1.3589
 7007TIP3    H245217   6.621   2.815   0.697 -1.7232  1.9225 -0.7308
 7008TIP3   OH245218   6.570   0.290   2.491 -0.2954  0.1699  0.1168
 7008TIP3    H145219   6.538   0.265   2.404  0.0807  0.9387 -0.2592
 7008TIP3    H245220   6.499   0.343   2.528 -0.2051  0.3589  0.0222
 7009TIP3   OH245221   5.254   2.338   3.178 -0.2912  0.1312 -0.3442
 7009TIP3    H145222   5.296   2.263   3.219 -0.6565  0.2245  0.1987
 7009TIP3    H245223   5.235   2.308   3.089  0.1469 -0.1974 -0.3349
 7010TIP3   OH245224   2.945   3.782   1.114  0.1062 -0.1177 -0.1605
 7010TIP3    H145225   2.899   3.704   1.086  0.1678  0.2357 -1.2839
 7010TIP3    H245226   2.953   3.836   1.035  0.9213  0.5891  0.3777
 7011TIP3   OH245227   3.472   3.040   1.943 -0.6291 -0.5036 -0.0365
 7011TIP3    H145228   3.512   3.013   2.025 -0.1735 -2.3345 -0.7912
 7011TIP3    H245229   3.438   3.127   1.960  4.1473  1.5931  0.5720
 7012TIP3   OH245230   1.303   7.503   1.069  0.0708  0.1171  0.3767
 7012TIP3    H145231   1.255   7.506   1.151  0.6745 -1.9602  0.8638
 7012TIP3    H245232   1.238   7.526   1.002 -1.1381 -0.8249  1.1877
 7013TIP3   OH245233   4.151   0.425   1.328 -0.2532  0.5755 -0.0203
 7013TIP3    H145234   4.195   0.508   1.344  0.7795 -0.2336  1.6668
 7013TIP3    H245235   4.057   0.446   1.331 -0.0331  2.0018 -1.8268
 7014TIP3   OH245236   6.941   5.559   0.932 -0.2634 -0.3233  0.5464
 7014TIP3    H145237   7.033   5.537   0.916 -0.2838 -0.5991  0.8131
 7014TIP3    H245238   6.901   5.477   0.959 -0.5678 -0.1802  0.5351
 7015TIP3   OH245239   7.658   1.688   0.870  0.0053  0.4145 -0.1464
 7015TIP3    H145240   7.568   1.714   0.847  0.1103  1.6939  0.7925
 7015TIP3    H245241   7.649   1.601   0.908 -0.8037  0.4073 -0.3402
 7016TIP3   OH245242   5.423   7.190   0.583  0.4901 -0.0210 -0.0806
 7016TIP3    H145243   5.454   7.117   0.529  0.5292  1.2300 -1.8373
 7016TIP3    H245244   5.503   7.231   0.617  0.5410  0.0676 -0.3030
 7017TIP3   OH245245   1.055   6.949   1.260 -0.0153  0.8884  0.1295
 7017TIP3    H145246   1.016   7.035   1.244 -0.4143  0.6413 -0.2649
 7017TIP3    H245247   1.068   6.945   1.355  0.6597  1.6579  0.0805
 7018TIP3   OH245248   3.521   5.802   0.529  0.1308 -0.2202  0.3623
 7018TIP3    H145249   3.515   5.888   0.572 -2.3116  0.1705 -0.5753
 7018TIP3    H245250   3.572   5.817   0.450 -1.1452  0.6902 -0.3393
 7019TIP3   OH245251   3.574   5.291   1.845  0.2648  0.3263  0.2807
 7019TIP3    H145252   3.575   5.263   1.753  0.6553  0.1060  0.3485
 7019TIP3    H245253   3.622   5.374   1.845  1.8423 -0.5332  0.5388
 7020TIP3   OH245254   5.989   7.126   3.027 -0.3102  0.0725  0.2678
 7020TIP3    H145255   5.966   7.064   2.958  2.5773 -1.0902  0.1967
 7020TIP3    H245256   5.970   7.078   3.108  0.2269 -0.2208  0.2247
 7021TIP3   OH245257   7.442   3.727   2.157  0.3589 -0.4662  0.2517
 7021TIP3    H145258   7.500   3.709   2.231  0.9573 -1.5824 -0.4521
 7021TIP3    H245259   7.449   3.649   2.102  0.3496  0.5504 -1.2540
 7022TIP3   OH245260   4.345   3.083   1.150  0.1305 -0.1524 -0.1174
 7022TIP3    H145261   4.305   3.079   1.063 -1.6117  0.9356  0.6018
 7022TIP3    H245262   4.410   3.153   1.143 -0.2992  0.2155 -0.4190
 7023TIP3   OH245263   2.058   7.552   2.013 -0.0544  0.4093  0.0996
 7023TIP3    H145264   2.092   7.577   1.927 -1.7347  0.9918 -0.4321
 7023TIP3    H245265   1.964   7.569   2.008 -0.4208 -0.9138  1.5803
 7024TIP3   OH245266   7.309   7.363   2.889 -1.0502 -0.7447  0.7658
 7024TIP3    H145267   7.372   7.412   2.943 -2.5939  1.6160  0.5679
 7024TIP3    H245268   7.355   7.282   2.867  2.9756  1.7433 -1.3655
 7025TIP3   OH245269   3.904   4.211   1.993  0.1819 -0.1260 -0.3699
 7025TIP3    H145270   3.860   4.139   1.948 -0.4945 -0.1290  0.2755
 7025TIP3    H245271   3.967   4.168   2.051 -0.4369 -0.2210  0.2415
 7026TIP3   OH245272   1.384   0.884   2.666  0.4803  0.3058  0.2080
 7026TIP3    H145273   1.457   0.928   2.622  2.0059 -0.6397  1.7062
 7026TIP3    H245274   1.417   0.863   2.753 -1.4365 -0.5722  0.7763
 7027TIP3   OH245275   5.707   4.473   0.795  0.2401  0.2337 -0.3338
 7027TIP3    H145276   5.626   4.461   0.746 -0.2599 -0.0039  0.5326
 7027TIP3    H245277   5.700   4.412   0.869  1.6277 -0.4898 -0.7585
 7028TIP3   OH245278   5.753   2.146   1.835 -0.2409 -0.5069  0.5061
 7028TIP3    H145279   5.826   2.202   1.860 -0.6539  1.1661 -1.8165
 7028TIP3    H245280   5.677   2.188   1.874 -0.2328 -1.1075  1.1923
 7029TIP3   OH245281   6.199   0.517   3.403  0.1299  0.2824 -0.2528
 7029TIP3    H145282   6.175   0.425   3.420  0.4562  0.2513  0.0577
 7029TIP3    H245283   6.235   0.517   3.315 -0.1795  0.1722 -0.3825
 7030TIP3   OH245284   3.213   4.821   2.376  0.3756 -0.2771 -0.0412
 7030TIP3    H145285   3.162   4.898   2.403 -0.0350 -0.2107 -0.9604
 7030TIP3    H245286   3.151   4.749   2.380  0.9714 -0.7453  1.6288
 7031TIP3   OH245287   4.941   5.704   1.391  0.0488 -0.1692  0.4235
 7031TIP3    H145288   4.989   5.627   1.361 -0.6504 -0.1218 -0.8933
 7031TIP3    H245289   5.006   5.773   1.395  0.3828 -0.4577  0.0931
 7032TIP3   OH245290   7.167   3.175   2.608 -0.5412 -0.7234  0.2682
 7032TIP3    H145291   7.257   3.205   2.621  0.7637 -3.9706 -0.3657
 7032TIP3    H245292   7.119   3.208   2.684  1.5480 -0.2514  1.4420
 7033TIP3   OH245293   2.920   4.651   0.472 -0.0833  0.3478  0.4870
 7033TIP3    H145294   2.922   4.556   0.487  0.7921  0.4251  0.8925
 7033TIP3    H245295   2.831   4.668   0.440 -1.3286 -0.1679  3.3512
 7034TIP3   OH245296   1.467   2.841   1.739  0.4081  0.1035  0.2362
 7034TIP3    H145297   1.381   2.829   1.698 -0.2723  1.1102  1.2985
 7034TIP3    H245298   1.486   2.756   1.779  0.1588 -0.2827 -0.4487
 7035TIP3   OH245299   3.960   1.783   1.657 -0.3090 -0.1397  0.7720
 7035TIP3    H145300   4.050   1.755   1.673  0.2548  0.6601 -0.8538
 7035TIP3    H245301   3.968   1.865   1.608 -1.9355  0.3000  1.1664
 7036TIP3   OH245302   0.814   0.953   1.147  0.0296  0.0564  0.1886
 7036TIP3    H145303   0.838   0.863   1.166  0.8823  0.2903  0.2341
 7036TIP3    H245304   0.726   0.963   1.184 -0.1454 -0.8011  0.0243
 7037TIP3   OH245305   7.403   6.684   2.366 -0.3697 -0.4577 -0.1974
 7037TIP3    H145306   7.402   6.588   2.362  0.4862 -0.5734  1.3447
 7037TIP3    H245307   7.315   6.710   2.342 -0.8776 -1.6961  0.2293
 7038TIP3   OH245308   0.949   1.879   7.469 -0.6673  0.2139  0.3222
 7038TIP3    H145309   0.954   1.967   7.430  1.2262 -0.4273 -1.0143
 7038TIP3    H245310   0.962   1.894   7.563  2.0984  1.2370 -0.1080
 7039TIP3   OH245311   1.065   1.554   2.437  0.2179  0.0604  0.5927
 7039TIP3    H145312   1.147   1.581   2.394  0.0506  2.3133  1.5405
 7039TIP3    H245313   1.020   1.637   2.455 -3.0100 -1.1368 -1.2176
 7040TIP3   OH245314   4.349   4.783   1.578  0.1086  0.5227  0.1980
 7040TIP3    H145315   4.391   4.850   1.632  0.7927 -0.5797  1.0543
 7040TIP3    H245316   4.274   4.753   1.630  2.0987 -2.2312  1.7340
 7041TIP3   OH245317   3.145   0.270   1.143 -0.3304 -0.6755  0.1454
 7041TIP3    H145318   3.193   0.321   1.078  1.3532 -1.2972  0.8414
 7041TIP3    H245319   3.054   0.298   1.134  0.2506  1.0198 -0.7929
 7042TIP3   OH245320   0.088   1.096   0.510  0.0298 -0.2491  0.2760
 7042TIP3    H145321   0.148   1.163   0.477  1.9254 -1.2289  1.5166
 7042TIP3    H245322   0.120   1.014   0.471 -1.8855 -0.5541 -0.7524
 7043TIP3   OH245323   0.462   4.564   1.426 -0.5779 -0.6852  0.6772
 7043TIP3    H145324   0.498   4.512   1.497  0.0686 -0.6314  0.3960
 7043TIP3    H245325   0.388   4.512   1.393 -0.1201 -1.2885  0.5894
 7044TIP3   OH245326   7.405   6.586   2.083  0.0303  0.2465 -0.2414
 7044TIP3    H145327   7.346   6.575   2.008  0.6667  0.6436 -0.8114
 7044TIP3    H245328   7.376   6.520   2.146  0.3799 -1.0655 -1.4022
 7045TIP3   OH245329   3.731   0.780   3.057  0.1031  0.2898  0.2913
 7045TIP3    H145330   3.827   0.772   3.055  0.1015  0.2295  0.4559
 7045TIP3    H245331   3.715   0.850   3.121  0.1119  1.4778 -0.9763
 7046TIP3   OH245332   0.485   1.134   2.873 -0.1743 -0.3745  0.3200
 7046TIP3    H145333   0.535   1.177   2.942  0.4825 -1.9435  0.8738
 7046TIP3    H245334   0.536   1.149   2.793 -1.1221  1.7602  0.0392
 7047TIP3   OH245335   3.353   0.080   1.178 -0.2695  0.5343  0.0675
 7047TIP3    H145336   3.313   0.166   1.179  0.6068  1.0868 -3.1556
 7047TIP3    H245337   3.282   0.020   1.157 -0.6163  0.5963  0.9985
 7048TIP3   OH245338   2.063   7.344   2.188 -0.1019 -0.2642 -0.3719
 7048TIP3    H145339   2.139   7.288   2.173 -0.3994 -0.6917 -0.3258
 7048TIP3    H245340   2.052   7.391   2.105  0.6574  0.3652 -0.1251
 7049TIP3   OH245341   6.446   2.292   3.485  0.3633  0.0493 -0.3261
 7049TIP3    H145342   6.523   2.305   3.430  1.1679  1.3423  1.0232
 7049TIP3    H245343   6.476   2.238   3.558 -0.2259 -0.1830 -0.2486
 7050TIP3   OH245344   4.162   7.629   1.381  0.3172 -0.1235  0.7297
 7050TIP3    H145345   4.066   7.624   1.383  0.2677  0.5957  0.5118
 7050TIP3    H245346   4.182   7.717   1.413  0.9631 -0.6930  1.9742
 7051TIP3   OH245347   0.782   7.580   2.600 -0.4599 -0.2450 -0.3604
 7051TIP3    H145348   0.765   7.623   2.683  0.0958 -1.5530  0.4643
 7051TIP3    H245349   0.717   7.510   2.595  0.3393 -1.0119 -0.3725
 7052TIP3   OH245350   6.235   0.693   1.607 -0.1153  0.2184  0.2045
 7052TIP3    H145351   6.201   0.647   1.684  1.0092 -1.8672 -0.4664
 7052TIP3    H245352   6.204   0.783   1.617  0.6138  0.2228  3.4580
 7053TIP3   OH245353   3.939   2.068   1.556 -0.2422 -0.0809  0.5378
 7053TIP3    H145354   3.900   2.066   1.469  0.1741 -1.2439  0.3665
 7053TIP3    H245355   4.008   2.135   1.549 -0.3235 -0.0461  0.0203
 7054TIP3   OH245356   0.112   1.667   2.732  0.2697 -0.1454  0.3072
 7054TIP3    H145357   0.158   1.584   2.719 -0.2585 -0.5520  1.0033
 7054TIP3    H245358   0.171   1.732   2.694  1.7872 -0.5574  1.8301
 7055TIP3   OH245359   2.206   1.130   3.358 -0.6845 -0.0796 -0.3305
 7055TIP3    H145360   2.193   1.041   3.390 -0.4276  1.0064  3.1915
 7055TIP3    H245361   2.119   1.170   3.363 -0.1670  0.9002  1.9098
 7056TIP3   OH245362   6.991   5.789   1.082 -0.9076 -0.1837 -0.0713
 7056TIP3    H145363   6.963   5.714   1.029 -1.3205  0.2527 -0.4860
 7056TIP3    H245364   7.085   5.793   1.070 -0.8404 -0.8057  0.1821
 7057TIP3   OH245365   5.066   3.953   1.582  0.0523  0.0017  0.2430
 7057TIP3    H145366   4.977   3.921   1.589  0.6187 -1.4934  0.8922
 7057TIP3    H245367   5.095   3.965   1.672 -0.3797  3.2138  0.0722
 7058TIP3   OH245368   0.118   5.643   0.801 -0.5634 -0.5297 -0.3620
 7058TIP3    H145369   0.192   5.665   0.857 -0.4883 -2.3674  0.3291
 7058TIP3    H245370   0.122   5.707   0.729  1.9067 -0.8100 -0.5556
 7059TIP3   OH245371   7.324   4.366   1.764 -0.6704 -0.0347 -0.4142
 7059TIP3    H145372   7.294   4.378   1.854  1.6846  0.6947  0.3715
 7059TIP3    H245373   7.373   4.284   1.766 -0.8312 -0.1524 -1.0992
 7060TIP3   OH245374   4.252   5.594   1.105  0.0363 -0.0227  0.0198
 7060TIP3    H145375   4.251   5.517   1.048 -0.3827 -0.3513  0.4529
 7060TIP3    H245376   4.190   5.655   1.065 -1.6141 -0.9479  1.0096
 7061TIP3   OH245377   0.831   1.721   0.899  0.3466  0.1758 -0.4859
 7061TIP3    H145378   0.843   1.784   0.970 -0.6156  2.6768 -2.4071
 7061TIP3    H245379   0.748   1.678   0.919  0.8065 -0.2416  0.6330
 7062TIP3   OH245380   7.400   1.233   1.016  0.6066 -0.0365 -0.0675
 7062TIP3    H145381   7.424   1.143   1.036  1.4445  0.1228 -0.3370
 7062TIP3    H245382   7.369   1.230   0.926  3.5642  0.4270 -1.2120
 7063TIP3   OH245383   1.902   3.576   1.487  0.1390  0.0314 -0.3465
 7063TIP3    H145384   1.826   3.617   1.528  0.2930 -0.7976  0.8123
 7063TIP3    H245385   1.874   3.485   1.472  1.0168 -0.3838  0.4555
 7064TIP3   OH245386   3.014   6.153   1.600  0.1277  0.6006  0.6067
 7064TIP3    H145387   2.974   6.067   1.595 -1.4617  0.9544  3.9776
 7064TIP3    H245388   3.000   6.192   1.514  1.8259 -2.7542 -1.3659
 7065TIP3   OH245389   2.877   6.337   2.416  0.3501 -0.2269  0.7806
 7065TIP3    H145390   2.883   6.412   2.475 -1.9964  0.7493 -0.1182
 7065TIP3    H245391   2.909   6.370   2.332  0.4978 -0.6033  0.6889
 7066TIP3   OH245392   5.579   2.061   3.009 -0.0690  0.2454 -0.4723
 7066TIP3    H145393   5.548   1.993   3.068  1.6674 -0.0679  0.1304
 7066TIP3    H245394   5.560   2.143   3.055 -0.2410  0.0781 -0.2442
 7067TIP3   OH245395   2.734   4.568   0.871  0.1152  0.2435  0.2281
 7067TIP3    H145396   2.657   4.551   0.816  1.0210 -2.5414 -0.3431
 7067TIP3    H245397   2.699   4.611   0.949 -1.8087  0.3331 -0.6286
 7068TIP3   OH245398   5.785   5.278   2.511  0.1901  0.0407  0.6171
 7068TIP3    H145399   5.740   5.361   2.526  1.1861  0.4947  1.2299
 7068TIP3    H245400   5.716   5.217   2.487 -0.4782  1.2474 -0.7327
 7069TIP3   OH245401   6.224   4.004   2.135 -0.6685  0.7484  0.2280
 7069TIP3    H145402   6.206   4.076   2.075  0.6447  0.6896 -0.2723
 7069TIP3    H245403   6.148   3.946   2.126  0.7292 -0.8032 -3.7146
 7070TIP3   OH245404   3.123   6.169   1.966 -0.7375 -0.9792  0.1239
 7070TIP3    H145405   3.040   6.208   1.940 -1.1902 -1.4482  0.8421
 7070TIP3    H245406   3.163   6.234   2.024 -1.0003 -1.1065  0.4555
 7071TIP3   OH245407   3.843   2.103   3.396  0.2650 -0.0748 -0.2019
 7071TIP3    H145408   3.854   2.026   3.452  1.1047  1.0281  1.2094
 7071TIP3    H245409   3.749   2.105   3.377 -0.1759 -0.1168  1.7573
 7072TIP3   OH245410   3.151   2.302   1.730  0.1707 -0.1300  0.3157
 7072TIP3    H145411   3.096   2.380   1.719 -0.6892 -0.8854 -0.9450
 7072TIP3    H245412   3.091   2.234   1.760  0.3722 -0.9811 -1.1404
 7073TIP3   OH245413   6.601   2.655   1.923  0.2135  0.0677 -0.3266
 7073TIP3    H145414   6.506   2.666   1.924 -0.0284 -1.1099 -3.0272
 7073TIP3    H245415   6.619   2.591   1.992 -0.3547  3.2222  3.0578
 7074TIP3   OH245416   3.296   3.529   2.389  0.3979  0.3380 -0.4019
 7074TIP3    H145417   3.229   3.510   2.454  0.9173  0.9118  0.3150
 7074TIP3    H245418   3.283   3.463   2.320  0.4147 -0.8627  0.7119
 7075TIP3   OH245419   2.413   0.948   1.137  0.0276 -0.0657 -0.2927
 7075TIP3    H145420   2.376   0.999   1.065 -2.8268 -1.2897  0.1670
 7075TIP3    H245421   2.424   1.011   1.208 -0.8756  0.4371 -0.5828
 7076TIP3   OH245422   2.211   1.868   0.890  0.2057 -0.5559 -0.1119
 7076TIP3    H145423   2.229   1.902   0.802 -0.2750  0.1115  0.0401
 7076TIP3    H245424   2.266   1.922   0.948 -1.6646  1.0280  0.2851
 7077TIP3   OH245425   2.971   4.721   0.729  0.7912  0.2079 -0.3971
 7077TIP3    H145426   2.904   4.679   0.782  0.9245  1.4337  0.7782
 7077TIP3    H245427   2.962   4.680   0.643  0.5688 -1.8178  0.5428
 7078TIP3   OH245428   2.851   7.419   2.254 -0.4868  0.0044 -0.1945
 7078TIP3    H145429   2.914   7.395   2.186  0.1576 -1.6594  0.9331
 7078TIP3    H245430   2.768   7.429   2.207  0.0109 -0.7668 -1.2816
 7079TIP3   OH245431   2.720   1.297   1.091  0.9030 -0.1110 -0.0986
 7079TIP3    H145432   2.679   1.381   1.069 -0.5099 -0.9039 -0.6551
 7079TIP3    H245433   2.709   1.288   1.185 -2.0949 -1.1515 -0.4149
 7080TIP3   OH245434   0.447   3.078   2.115 -1.0072  0.4163 -0.1919
 7080TIP3    H145435   0.489   3.158   2.083 -0.5255  0.7596  1.2229
 7080TIP3    H245436   0.429   3.096   2.208  0.7347 -1.7594  0.6350
 7081TIP3   OH245437   0.584   4.102   1.711 -0.3064  0.1878  0.0939
 7081TIP3    H145438   0.640   4.169   1.672  0.5378 -0.2353  0.5414
 7081TIP3    H245439   0.503   4.106   1.661  0.6891 -0.2493 -1.6284
 7082TIP3   OH245440   2.019   0.136   1.028 -0.0267  0.6111  0.8726
 7082TIP3    H145441   2.001   0.212   1.083 -0.1132  0.0922  1.5888
 7082TIP3    H245442   1.934   0.093   1.018 -0.1352  1.0783 -0.2595
 7083TIP3   OH245443   3.238   4.890   2.983 -0.5728  0.2978 -0.1123
 7083TIP3    H145444   3.275   4.802   2.990 -0.6365  0.2750 -0.0565
 7083TIP3    H245445   3.144   4.877   2.996 -0.5091  0.4583  0.5326
 7084TIP3   OH245446   2.809   6.259   3.181 -0.0833 -0.0969 -0.5514
 7084TIP3    H145447   2.826   6.301   3.097 -0.9131  0.1289 -0.6111
 7084TIP3    H245448   2.788   6.331   3.241  2.1160 -0.0833  0.2913
 7085TIP3   OH245449   4.703   5.062   1.999  0.1073  0.2771  0.0878
 7085TIP3    H145450   4.788   5.089   2.034 -0.6400  0.3399  1.9174
 7085TIP3    H245451   4.645   5.136   2.015 -0.1511  0.5351 -1.8371
 7086TIP3   OH245452   6.439   3.263   1.811  0.1892 -0.2634  0.2624
 7086TIP3    H145453   6.485   3.333   1.857  0.6649  0.1906 -0.8741
 7086TIP3    H245454   6.357   3.303   1.781  1.3041  0.4646 -2.0956
 7087TIP3   OH245455   3.319   1.517   1.968 -0.0516 -0.7147  0.1822
 7087TIP3    H145456   3.259   1.489   1.900  0.2371  0.7549 -0.7240
 7087TIP3    H245457   3.402   1.474   1.947  0.5758  1.1736 -1.5865
 7088TIP3   OH245458   4.261   1.737   1.629 -0.1252  0.1038 -0.2945
 7088TIP3    H145459   4.285   1.769   1.716  0.2023  0.2435 -0.4334
 7088TIP3    H245460   4.317   1.786   1.569  0.2653 -0.5999 -0.5251
 7089TIP3   OH245461   5.848   5.639   1.617 -0.3093 -0.0344 -0.2443
 7089TIP3    H145462   5.882   5.726   1.638 -1.7140  0.1250  1.6718
 7089TIP3    H245463   5.887   5.617   1.533 -0.8328  2.9499 -1.3741
 7090TIP3   OH245464   0.206   0.820   0.448  0.5752  0.3099  0.0890
 7090TIP3    H145465   0.291   0.860   0.427  1.0070  0.0566  1.2806
 7090TIP3    H245466   0.226   0.754   0.514 -0.5657  0.3010  0.4471
 7091TIP3   OH245467   0.532   7.129   2.828 -0.1626 -0.2270 -0.0925
 7091TIP3    H145468   0.613   7.168   2.861 -0.2494  0.6866 -0.9026
 7091TIP3    H245469   0.559   7.048   2.787  0.5992  0.8151 -1.7393
 7092TIP3   OH245470   4.782   1.240   0.859  0.0709  0.3640 -0.1381
 7092TIP3    H145471   4.796   1.155   0.902 -0.0412 -0.8858 -2.3714
 7092TIP3    H245472   4.870   1.273   0.842  0.1791 -0.2945 -0.9726
 7093TIP3   OH245473   2.402   1.572   2.415  0.3324 -0.6207 -0.2501
 7093TIP3    H145474   2.401   1.647   2.356 -0.8897 -0.6991 -0.3468
 7093TIP3    H245475   2.343   1.597   2.487  0.9531 -0.9584  0.3979
 7094TIP3   OH245476   2.278   1.079   3.059 -1.0383  0.0644 -0.3634
 7094TIP3    H145477   2.274   1.075   3.155 -1.2954 -0.8251 -0.4047
 7094TIP3    H245478   2.227   1.156   3.036 -0.2798  0.7734  0.2589
 7095TIP3   OH245479   5.506   5.116   1.324 -0.5999  0.3738  0.6505
 7095TIP3    H145480   5.501   5.144   1.233  1.5688 -0.6397  0.1548
 7095TIP3    H245481   5.441   5.170   1.369 -0.9365  1.6949 -1.2800
 7096TIP3   OH245482   1.908   5.998   1.761  0.3383 -0.4203 -0.0914
 7096TIP3    H145483   1.844   5.948   1.811  0.3286 -0.3771 -0.0617
 7096TIP3    H245484   1.877   6.088   1.762 -1.8495 -0.9394 -3.5092
 7097TIP3   OH245485   1.809   2.037   2.658  0.0281  0.2567  0.4803
 7097TIP3    H145486   1.772   2.106   2.602  1.4166  1.0551  0.5016
 7097TIP3    H245487   1.735   2.008   2.712 -0.6177  1.6736  0.4158
 7098TIP3   OH245488   4.571   2.268   2.877  0.1495  0.3711  0.2419
 7098TIP3    H145489   4.632   2.273   2.804  2.4777 -1.0529  1.9605
 7098TIP3    H245490   4.586   2.348   2.927  0.1238  0.3190  0.3331
 7099TIP3   OH245491   6.782   1.228   1.266 -0.2190  0.3304 -0.1630
 7099TIP3    H145492   6.876   1.243   1.258 -0.3421  1.1368 -0.2382
 7099TIP3    H245493   6.773   1.133   1.275  0.6023  0.2507 -0.0929
 7100TIP3   OH245494   2.427   6.457   1.351 -0.0229 -0.0592  0.1451
 7100TIP3    H145495   2.401   6.365   1.355 -0.9562 -0.0254 -3.0275
 7100TIP3    H245496   2.351   6.505   1.385 -0.7121 -0.3715 -0.9041
 7101TIP3   OH245497   5.984   0.005   0.483  0.8071 -0.0876  0.2732
 7101TIP3    H145498   5.917  -0.016   0.548  0.5801 -0.3900 -0.0549
 7101TIP3    H245499   6.014  -0.081   0.452  1.3383  0.0448  0.4123
 7102TIP3   OH245500   2.517   1.905   1.306 -0.1692  0.2575 -0.9247
 7102TIP3    H145501   2.607   1.890   1.334 -0.4292  0.6411  0.1701
 7102TIP3    H245502   2.525   1.936   1.216  0.7505 -0.2633 -1.0367
 7103TIP3   OH245503   7.376   2.026   2.467  0.2866  0.3740 -0.2711
 7103TIP3    H145504   7.384   1.973   2.388  0.8386  0.3467 -0.2064
 7103TIP3    H245505   7.467   2.043   2.493  0.1332 -1.0781  1.3442
 7104TIP3   OH245506   4.365   7.528   1.570 -0.2944 -0.0665  0.3374
 7104TIP3    H145507   4.321   7.453   1.609  1.4942 -1.9645 -1.0212
 7104TIP3    H245508   4.302   7.563   1.507 -0.6253 -1.4972 -0.1775
 7105TIP3   OH245509   2.195   6.403   1.715  0.4480  0.2177  0.5544
 7105TIP3    H145510   2.099   6.406   1.719  0.3501 -1.1969 -0.0758
 7105TIP3    H245511   2.223   6.419   1.805 -0.4358 -0.3185  0.9445
 7106TIP3   OH245512   1.829   3.378   0.761 -0.4388  0.3912 -0.1296
 7106TIP3    H145513   1.754   3.320   0.747 -1.1822  1.3930 -0.4147
 7106TIP3    H245514   1.836   3.428   0.679  0.4133  0.4656 -0.0245
 7107TIP3   OH245515   2.803   7.623   0.713 -0.7393  0.3394 -0.1278
 7107TIP3    H145516   2.847   7.662   0.788 -0.8105  0.7999 -0.3178
 7107TIP3    H245517   2.769   7.698   0.664 -0.5688  0.0554 -0.6941
 7108TIP3   OH245518   0.000   3.487   1.577 -0.8836 -0.1945 -0.0496
 7108TIP3    H145519  -0.015   3.570   1.623 -1.0512 -0.1145 -0.2515
 7108TIP3    H245520  -0.062   3.426   1.616 -1.3359 -0.0124 -0.4809
 7109TIP3   OH245521   1.280   0.029   3.338  0.2553 -0.2947 -0.0590
 7109TIP3    H145522   1.342   0.058   3.271  0.4514 -0.8298 -0.1095
 7109TIP3    H245523   1.202   0.004   3.289  0.6040 -1.2436 -0.1464
 7110TIP3   OH245524   3.863   3.288   1.580 -0.1876  0.2422  0.2596
 7110TIP3    H145525   3.929   3.243   1.528  1.1306  0.0154  2.0450
 7110TIP3    H245526   3.877   3.381   1.563  0.4357  0.1825  0.4339
 7111TIP3   OH245527   1.631   7.678   2.258  0.2911 -0.1963 -0.2581
 7111TIP3    H145528   1.692   7.709   2.325 -0.3834 -1.7674  1.1583
 7111TIP3    H245529   1.628   7.583   2.270 -0.8906 -0.3782 -1.6510
 7112TIP3   OH245530   4.412   5.770   0.758  0.1947  0.0516  0.1414
 7112TIP3    H145531   4.384   5.817   0.837  0.3976 -0.5828  0.6108
 7112TIP3    H245532   4.336   5.718   0.733  0.2853 -0.1128  0.2048
 7113TIP3   OH245533   1.902   4.179   2.272  0.0700  0.3159 -0.3548
 7113TIP3    H145534   1.837   4.213   2.210  0.2056 -0.3511 -0.8743
 7113TIP3    H245535   1.897   4.239   2.347  0.5753  1.7067 -1.3960
 7114TIP3   OH245536   6.308   1.416   1.927 -0.4675 -0.1281  0.8019
 7114TIP3    H145537   6.399   1.437   1.910 -0.9544  0.4174 -1.3961
 7114TIP3    H245538   6.264   1.501   1.933 -0.9182 -0.3896  1.5161
 7115TIP3   OH245539   6.691   3.294   3.198  0.2457  0.0303 -0.1167
 7115TIP3    H145540   6.672   3.201   3.208 -0.4970  0.2570  0.7877
 7115TIP3    H245541   6.760   3.298   3.132  1.2611 -1.2537  0.8130
 7116TIP3   OH245542   3.980   3.888   3.202  0.0207 -0.6951  0.2099
 7116TIP3    H145543   3.991   3.956   3.268  0.3314 -1.5995  1.1006
 7116TIP3    H245544   3.887   3.890   3.180  0.1448  0.4589 -0.2730
 7117TIP3   OH245545   5.245   0.170   2.526  0.2906  0.7758  0.0296
 7117TIP3    H145546   5.192   0.232   2.476  1.0520  2.4469  1.1857
 7117TIP3    H245547   5.326   0.161   2.475 -0.2707 -0.1871 -0.7136
 7118TIP3   OH245548   4.960   4.713   0.697  0.1398  0.0112  0.4247
 7118TIP3    H145549   5.037   4.749   0.652  0.5217  0.6246  1.5342
 7118TIP3    H245550   4.979   4.724   0.790 -0.9454 -0.5782  0.7341
 7119TIP3   OH245551   3.712   4.559   1.000 -0.1072 -0.1276  0.6533
 7119TIP3    H145552   3.719   4.464   0.991  2.3538  0.0700 -0.1200
 7119TIP3    H245553   3.642   4.584   0.940  0.8894 -1.2358 -1.0615
 7120TIP3   OH245554   1.981   3.149   2.266 -0.1034  0.4227  0.1233
 7120TIP3    H145555   1.915   3.172   2.332 -0.6222 -0.4086 -0.0962
 7120TIP3    H245556   1.990   3.054   2.272 -0.7582  0.2147 -1.5500
 7121TIP3   OH245557   3.288   7.046   1.324 -0.1422  0.0666  0.4242
 7121TIP3    H145558   3.341   6.986   1.271 -1.6678  0.0337 -1.1616
 7121TIP3    H245559   3.270   6.998   1.405  0.7909 -0.5892  0.2584
 7122TIP3   OH245560   5.357   1.088   0.816 -0.2013  0.8953  0.6285
 7122TIP3    H145561   5.315   1.004   0.799  3.4700 -0.9874 -0.2563
 7122TIP3    H245562   5.404   1.075   0.899  0.9298  1.8230  0.1686
 7123TIP3   OH245563   4.116   1.010   3.674  0.0775  0.0470  0.3828
 7123TIP3    H145564   4.110   1.009   3.579 -0.5411 -0.7933  0.4133
 7123TIP3    H245565   4.072   0.929   3.701 -1.6388  1.2715  1.4898
 7124TIP3   OH245566   3.907   1.500   2.082  0.2744 -0.7314  0.8283
 7124TIP3    H145567   3.952   1.428   2.037 -1.7441 -1.0074 -0.8900
 7124TIP3    H245568   3.962   1.576   2.066  0.4337 -1.1490 -0.7558
 7125TIP3   OH245569   6.130   4.042   3.236 -0.0658  0.7372  0.0112
 7125TIP3    H145570   6.124   3.949   3.215  0.8953  0.7957 -0.5535
 7125TIP3    H245571   6.174   4.081   3.161 -2.9407  2.1556 -1.1036
 7126TIP3   OH245572   5.817   1.608   3.170 -0.0270  0.8532 -0.4752
 7126TIP3    H145573   5.761   1.660   3.229  0.2740  1.3885 -0.6569
 7126TIP3    H245574   5.774   1.523   3.166 -1.0999  1.4015 -0.9926
 7127TIP3   OH245575   4.437   6.713   0.966  0.2614 -0.2105 -0.1163
 7127TIP3    H145576   4.525   6.691   0.997  0.7242  1.6365 -0.0302
 7127TIP3    H245577   4.445   6.802   0.931 -1.3577 -0.3899 -1.0390
 7128TIP3   OH245578   3.601   1.772   2.136  0.6286 -0.0392 -0.2162
 7128TIP3    H145579   3.542   1.776   2.060  1.4751  0.8768 -0.8587
 7128TIP3    H245580   3.563   1.705   2.193 -0.4713 -0.1748 -1.0760
 7129TIP3   OH245581   2.594   4.069   1.334  0.2331  0.2075 -0.1519
 7129TIP3    H145582   2.647   4.083   1.256  0.0985 -1.1489 -0.5191
 7129TIP3    H245583   2.518   4.126   1.322  0.4088  0.3100 -0.8234
 7130TIP3   OH245584   2.278   3.358   0.558 -0.1316  0.6828  0.0188
 7130TIP3    H145585   2.279   3.262   0.551  0.3085  0.6714  0.1533
 7130TIP3    H245586   2.366   3.380   0.592 -0.5247  1.0712  0.8214
 7131TIP3   OH245587   4.592   5.269   2.111 -0.7002 -1.0721 -0.1349
 7131TIP3    H145588   4.578   5.248   2.203 -0.2817 -0.1029  0.1598
 7131TIP3    H245589   4.504   5.286   2.076 -0.8908 -1.7603 -0.0023
 7132TIP3   OH245590   4.853   1.290   2.614  0.0337  0.0256  0.4377
 7132TIP3    H145591   4.766   1.322   2.589 -0.1731 -0.6822  0.2380
 7132TIP3    H245592   4.914   1.351   2.571 -0.3356 -0.5031 -0.8932
 7133TIP3   OH245593   5.067   1.826   1.012 -0.0561 -0.4192 -0.8159
 7133TIP3    H145594   5.139   1.833   1.074  0.5679 -1.5320 -1.3830
 7133TIP3    H245595   5.086   1.891   0.945 -0.1943  0.0756 -0.3837
 7134TIP3   OH245596   3.886   2.105   1.281  0.2932 -0.0346 -0.8267
 7134TIP3    H145597   3.969   2.115   1.235  0.2030 -1.1841 -1.2720
 7134TIP3    H245598   3.820   2.126   1.215  0.2070  2.4734 -0.0538
 7135TIP3   OH245599   2.877   0.578   0.458 -0.1762  0.0466 -0.9806
 7135TIP3    H145600   2.899   0.652   0.401  1.9622  1.2187  1.1882
 7135TIP3    H245601   2.956   0.524   0.458  0.5753  0.9544  2.0351
 7136TIP3   OH245602   7.315   0.561   2.216 -0.5686 -0.7221  0.2669
 7136TIP3    H145603   7.225   0.529   2.223 -0.0273 -2.0524  2.0244
 7136TIP3    H245604   7.327   0.581   2.123 -3.0230  0.6537  0.1598
 7137TIP3   OH245605   0.774   7.160   2.988 -0.3745  0.0443  0.0899
 7137TIP3    H145606   0.859   7.128   2.959 -0.2217  0.4419  0.0926
 7137TIP3    H245607   0.749   7.103   3.060  0.2192  0.3702  0.5560
 7138TIP3   OH245608   6.357   5.884   2.951 -0.0372  0.2761  0.1397
 7138TIP3    H145609   6.357   5.860   3.044  0.1261 -1.1360 -0.1983
 7138TIP3    H245610   6.448   5.878   2.924 -0.2618 -0.8237 -0.4477
 7139TIP3   OH245611   4.013   5.904   2.073  0.0012  0.0390 -0.1628
 7139TIP3    H145612   3.980   5.988   2.107 -1.0305  0.6838 -2.5277
 7139TIP3    H245613   3.950   5.839   2.105  0.0297  0.3627  0.5685
 7140TIP3   OH245614   5.016   2.854   0.996 -0.0431  0.1953 -0.1607
 7140TIP3    H145615   5.038   2.842   0.904 -1.8994  0.5555 -0.7040
 7140TIP3    H245616   5.006   2.765   1.031  0.2897  0.0614 -0.4083
 7141TIP3   OH245617   7.238   6.952   2.073 -0.5822 -0.2043 -0.3619
 7141TIP3    H145618   7.325   6.914   2.064 -0.5702 -0.0834 -0.7536
 7141TIP3    H245619   7.180   6.890   2.030 -0.6374 -0.0790 -0.4699
 7142TIP3   OH245620   6.619   1.051   2.216  0.1924 -0.7165  0.3772
 7142TIP3    H145621   6.647   1.032   2.305  0.6844 -2.2857 -0.0751
 7142TIP3    H245622   6.648   1.141   2.200 -0.3900 -0.2219  1.9550
 7143TIP3   OH245623   1.558   4.957   2.365 -0.0395  0.2747 -0.3967
 7143TIP3    H145624   1.626   4.988   2.425  0.8623 -0.4053 -1.0435
 7143TIP3    H245625   1.579   4.999   2.281 -0.9319  0.7391 -0.3980
 7144TIP3   OH245626   6.434   6.722   2.433  0.3295 -0.0721  0.1338
 7144TIP3    H145627   6.418   6.628   2.433  0.5431 -0.1093 -0.2302
 7144TIP3    H245628   6.400   6.752   2.517  1.4066 -0.6712  0.8154
 7145TIP3   OH245629   3.391   1.360   3.687  0.6279 -0.4851 -0.1949
 7145TIP3    H145630   3.310   1.316   3.711  0.2293  0.3348  0.0059
 7145TIP3    H245631   3.458   1.293   3.696 -0.0942 -1.3160 -0.8823
 7146TIP3   OH245632   1.753   3.400   2.452  0.2672  0.3467  0.1260
 7146TIP3    H145633   1.787   3.462   2.387 -0.1702  2.1183  1.4992
 7146TIP3    H245634   1.668   3.437   2.477 -0.3644 -1.2501  0.4350
 7147TIP3   OH245635   4.070   1.846   3.227  0.3077 -0.0377  0.3784
 7147TIP3    H145636   4.043   1.760   3.261  0.6752 -0.2361  0.1736
 7147TIP3    H245637   4.093   1.897   3.304  4.4557 -1.5700  0.3831
 7148TIP3   OH245638   3.341   6.744   1.126  0.2120  0.2803  0.2193
 7148TIP3    H145639   3.408   6.678   1.110 -1.5162 -1.1624 -1.4954
 7148TIP3    H245640   3.319   6.778   1.040 -0.0236  2.0443  0.9297
 7149TIP3   OH245641   0.378   6.983   1.490  0.3912 -0.6768 -0.0529
 7149TIP3    H145642   0.464   6.941   1.501  0.4803 -0.2198  1.1594
 7149TIP3    H245643   0.317   6.911   1.482  0.8814 -1.0117 -0.8374
 7150TIP3   OH245644   4.505   7.198   1.719  0.1208 -0.1172  0.6642
 7150TIP3    H145645   4.501   7.277   1.665  2.8276 -0.3594 -0.0446
 7150TIP3    H245646   4.468   7.130   1.663  2.8199 -0.3546 -1.0234
 7151TIP3   OH245647   6.217   2.219   2.942 -0.2439  0.0147 -0.0760
 7151TIP3    H145648   6.174   2.262   2.868 -0.4315 -3.2226 -2.0535
 7151TIP3    H245649   6.150   2.216   3.011 -0.5701  1.7503 -0.2724
 7152TIP3   OH245650   3.025   5.908   1.876 -0.2479 -0.0726  0.0084
 7152TIP3    H145651   2.948   5.937   1.826 -0.6074  0.7704  1.0155
 7152TIP3    H245652   3.051   5.985   1.926  0.9439 -0.5092  0.0908
 7153TIP3   OH245653   2.548   5.692   1.293  0.1448 -0.2100 -0.0094
 7153TIP3    H145654   2.521   5.661   1.207  0.5167 -1.3319  0.2681
 7153TIP3    H245655   2.635   5.729   1.279 -0.3795  0.9331 -0.3778
 7154TIP3   OH245656   2.346   6.182   1.379  0.2732 -0.3992  0.2167
 7154TIP3    H145657   2.265   6.129   1.381 -1.0984  1.5170 -1.0535
 7154TIP3    H245658   2.368   6.195   1.471 -0.8072 -1.0570  0.5943
 7155TIP3   OH245659   6.099   0.893   3.275 -0.3837  0.3508  0.0164
 7155TIP3    H145660   6.026   0.865   3.331 -0.4885  0.6718  0.0391
 7155TIP3    H245661   6.070   0.872   3.186 -0.5240  0.5236  0.0213
 7156TIP3   OH245662   6.572   0.571   2.844 -0.0560 -0.3254 -0.5018
 7156TIP3    H145663   6.597   0.587   2.753 -2.2815  0.2132 -1.0910
 7156TIP3    H245664   6.522   0.649   2.869  1.4086  0.0061  1.5675
 7157TIP3   OH245665   3.399   5.119   2.836  0.2575 -0.4465  0.7476
 7157TIP3    H145666   3.352   5.061   2.896 -0.1734  0.1376  0.9858
 7157TIP3    H245667   3.489   5.084   2.835  0.1562 -0.7497  1.3575
 7158TIP3   OH245668   6.295   0.251   0.717  0.2369  0.3648 -0.9173
 7158TIP3    H145669   6.290   0.286   0.807 -0.0639 -2.6894  0.3786
 7158TIP3    H245670   6.207   0.264   0.682  0.1605  0.9723 -0.5199
 7159TIP3   OH245671   6.108   0.365   2.026 -0.1233 -0.3248  0.0447
 7159TIP3    H145672   6.128   0.438   1.967  0.1826 -1.2537 -1.0300
 7159TIP3    H245673   6.097   0.289   1.969 -0.6716 -1.0890  1.1193
 7160TIP3   OH245674   6.680   4.575   0.871 -0.7087  0.3031 -0.6574
 7160TIP3    H145675   6.744   4.639   0.901  0.5869 -1.4688  0.5555
 7160TIP3    H245676   6.732   4.501   0.839 -2.1115 -1.0752  0.1065
 7161TIP3   OH245677   5.608   2.417   1.566  0.6375  0.0688 -0.0452
 7161TIP3    H145678   5.530   2.446   1.519 -0.7586 -0.5902  1.7519
 7161TIP3    H245679   5.575   2.385   1.650  2.7421 -1.1958  0.3712
 7162TIP3   OH245680   1.487   3.434   1.425 -0.3173  0.3477  0.2166
 7162TIP3    H145681   1.406   3.463   1.466  0.5121  1.2043  1.3202
 7162TIP3    H245682   1.459   3.380   1.351 -1.8813  0.8526  0.4106
 7163TIP3   OH245683   4.221   3.962   1.805  0.2774 -0.0652 -0.1043
 7163TIP3    H145684   4.160   3.891   1.826 -1.0650  0.5904 -1.5575
 7163TIP3    H245685   4.237   3.953   1.711  2.8177 -0.4733  0.3016
 7164TIP3   OH245686   2.618   2.555   0.740  0.2467  0.1519 -0.6634
 7164TIP3    H145687   2.583   2.580   0.654 -0.3276  0.2326 -0.4140
 7164TIP3    H245688   2.672   2.630   0.767 -0.2474  0.4851 -0.5882
 7165TIP3   OH245689   4.226   7.331   1.703 -0.3595  0.1508 -0.0373
 7165TIP3    H145690   4.168   7.280   1.646 -0.3033 -1.9221  1.6054
 7165TIP3    H245691   4.168   7.387   1.754 -0.8583 -0.9057  0.6112
 7166TIP3   OH245692   2.675   0.190   0.603 -0.1279 -0.2054  0.1507
 7166TIP3    H145693   2.668   0.273   0.650  0.4953  0.3328 -0.6642
 7166TIP3    H245694   2.586   0.154   0.603 -1.1022  1.8858 -1.9711
 7167TIP3   OH245695   6.293   0.863   4.030  0.2426 -0.2681 -0.2626
 7167TIP3    H145696   6.337   0.801   3.972  0.2761  1.5292 -2.3109
 7167TIP3    H245697   6.363   0.900   4.083  0.6060 -0.2513 -0.7445
 7168TIP3   OH245698   3.730   1.281   1.026  0.1304 -0.1865  0.0864
 7168TIP3    H145699   3.778   1.364   1.034  1.3879 -0.7926 -0.7846
 7168TIP3    H245700   3.751   1.234   1.107 -0.3434  0.2125  0.4478
 7169TIP3   OH245701   6.866   3.150   2.370  0.2218 -0.3218  0.1032
 7169TIP3    H145702   6.908   3.065   2.382  0.4668 -0.2727 -0.4013
 7169TIP3    H245703   6.783   3.130   2.327  1.0828 -0.1676 -1.7311
 7170TIP3   OH245704   0.015   2.389   1.158  0.2151 -0.4413 -0.0106
 7170TIP3    H145705   0.028   2.479   1.188  0.3272 -0.9672  1.6145
 7170TIP3    H245706   0.083   2.338   1.202  0.1251 -1.3330 -0.8583
 7171TIP3   OH245707   3.296   2.667   1.911  0.0450 -0.1574 -0.1021
 7171TIP3    H145708   3.307   2.660   2.006 -0.6633  1.4774  0.1305
 7171TIP3    H245709   3.325   2.582   1.877  1.0684 -0.4821  1.4980
 7172TIP3   OH245710   1.731   4.972   0.696  0.1376  0.2190 -0.0905
 7172TIP3    H145711   1.741   4.877   0.705  0.4114  0.0170 -1.9851
 7172TIP3    H245712   1.808   4.999   0.646 -1.6960  0.8211 -2.8122
 7173TIP3   OH245713   0.195   1.116   2.049 -0.0442  0.7765  0.3410
 7173TIP3    H145714   0.188   1.025   2.019  0.3465  0.7359  0.3682
 7173TIP3    H245715   0.148   1.117   2.132  0.9000  0.3315  0.8985
 7174TIP3   OH245716   1.740   1.188   2.429 -0.1904  0.7431 -0.3587
 7174TIP3    H145717   1.829   1.222   2.430  0.0396  0.2196 -1.4986
 7174TIP3    H245718   1.726   1.158   2.339 -1.2813  0.1956 -0.0343
 7175TIP3   OH245719   3.891   4.673   0.634 -0.0587  0.6027  0.4845
 7175TIP3    H145720   3.884   4.581   0.659  1.0389  0.3565 -0.0637
 7175TIP3    H245721   3.955   4.710   0.695 -1.2418  1.2711  1.3680
 7176TIP3   OH245722   5.789   4.896   3.251  0.3785 -0.2213 -0.1896
 7176TIP3    H145723   5.857   4.838   3.287  0.0422 -0.4008  0.1626
 7176TIP3    H245724   5.771   4.860   3.164 -0.3401 -1.0812  0.3071
 7177TIP3   OH245725   4.587   3.266   2.349  0.1122 -0.1945  0.0417
 7177TIP3    H145726   4.565   3.176   2.326  1.0608 -0.4137 -0.0236
 7177TIP3    H245727   4.652   3.293   2.284  0.4405  0.2596  0.5472
 7178TIP3   OH245728   2.259   1.078   1.467  0.2735 -0.1829  0.2376
 7178TIP3    H145729   2.211   0.996   1.473  1.2627 -1.0174 -1.9393
 7178TIP3    H245730   2.343   1.054   1.428  0.3766  1.9173 -1.0077
 7179TIP3   OH245731   0.009   6.525   1.538 -0.2939 -0.0013 -0.3821
 7179TIP3    H145732   0.048   6.463   1.600 -1.6847 -0.6077 -0.0856
 7179TIP3    H245733   0.083   6.580   1.510  0.6412 -0.6881  0.6446
 7180TIP3   OH245734   7.411   2.375   1.196  0.1559 -0.4537  0.3526
 7180TIP3    H145735   7.389   2.295   1.150  0.5131 -1.6359  2.1333
 7180TIP3    H245736   7.503   2.390   1.177  0.1405 -0.5725  0.1862
 7181TIP3   OH245737   6.075   7.294   1.911  0.7780 -0.0858 -0.3838
 7181TIP3    H145738   6.027   7.359   1.961  1.0313  1.5278 -2.1375
 7181TIP3    H245739   6.094   7.224   1.974 -0.0526  1.2197  1.3907
 7182TIP3   OH245740   0.557   3.253   0.993 -0.4101  0.2388  0.2807
 7182TIP3    H145741   0.614   3.187   1.032 -0.4693  0.1704  0.2529
 7182TIP3    H245742   0.473   3.243   1.038  0.0513  1.4165  1.4518
 7183TIP3   OH245743   6.407   2.168   2.701  0.0856 -0.1206 -0.3961
 7183TIP3    H145744   6.467   2.191   2.772 -1.8031 -1.2389  1.6829
 7183TIP3    H245745   6.331   2.223   2.716 -0.4797 -0.6302 -1.3510
 7184TIP3   OH245746   1.768   7.644   0.940  0.2853  0.1673 -0.0696
 7184TIP3    H145747   1.673   7.658   0.939  0.6054  2.8696 -1.3277
 7184TIP3    H245748   1.778   7.549   0.935 -2.3242 -0.2319  0.6267
 7185TIP3   OH245749   1.516   6.680   2.841  0.1148 -0.1047 -0.3656
 7185TIP3    H145750   1.513   6.774   2.825 -0.8725 -0.1789 -0.6583
 7185TIP3    H245751   1.463   6.642   2.771  0.5693 -0.8862 -0.2975
 7186TIP3   OH245752   6.318   6.220   2.939 -0.3706  0.5638 -0.0897
 7186TIP3    H145753   6.350   6.310   2.950 -0.1013  0.5790 -0.9469
 7186TIP3    H245754   6.318   6.184   3.028  2.3521  0.4312 -0.0724
 7187TIP3   OH245755   1.110   0.302   0.857  0.7124  0.0888 -0.0329
 7187TIP3    H145756   1.098   0.230   0.920  1.0616  0.8395  0.9242
 7187TIP3    H245757   1.026   0.347   0.857 -0.7590 -2.2700 -3.2741
 7188TIP3   OH245758   1.892   7.098   1.353  0.2271 -0.1020  0.2308
 7188TIP3    H145759   1.849   7.019   1.386  0.7778 -0.6340 -0.3028
 7188TIP3    H245760   1.907   7.080   1.261 -0.0372  0.8130  0.0011
 7189TIP3   OH245761   0.726   7.478   2.163 -0.2522 -0.2745  0.0335
 7189TIP3    H145762   0.776   7.509   2.239  0.6144  1.6018 -1.2203
 7189TIP3    H245763   0.777   7.508   2.087 -0.8097 -2.5290 -1.3373
 7190TIP3   OH245764   3.494   3.353   1.850  0.2949 -0.3517  0.1902
 7190TIP3    H145765   3.427   3.363   1.918 -1.3127 -1.8751 -1.0891
 7190TIP3    H245766   3.576   3.377   1.894 -0.9188  0.5112  2.1196
 7191TIP3   OH245767   3.925   5.056   0.875 -0.1443  0.7664  0.1716
 7191TIP3    H145768   3.837   5.079   0.847  0.2851  1.1323 -0.9311
 7191TIP3    H245769   3.950   4.983   0.818 -0.1754 -0.1512  1.2902
 7192TIP3   OH245770   4.596   5.229   1.340  0.4901  0.1023 -0.3792
 7192TIP3    H145771   4.605   5.135   1.323 -0.6033  0.0995 -1.0163
 7192TIP3    H245772   4.636   5.241   1.426  0.3483 -1.0096 -0.1402
 7193TIP3   OH245773   2.004   0.589   1.391  0.5588 -0.1180 -0.2926
 7193TIP3    H145774   2.095   0.584   1.362  0.0462 -0.4046 -1.9341
 7193TIP3    H245775   1.986   0.503   1.429 -0.0631 -1.4230 -3.3049
 7194TIP3   OH245776   1.000   1.898   1.032  0.3296 -0.2414  0.4859
 7194TIP3    H145777   1.034   1.958   0.966  0.2916 -1.9803 -1.1955
 7194TIP3    H245778   1.025   1.937   1.116  1.8011  1.2096 -0.5838
 7195TIP3   OH245779   5.061   3.687   1.879 -0.0639 -0.5563 -0.4473
 7195TIP3    H145780   4.978   3.731   1.862  0.7853  1.5801  0.5598
 7195TIP3    H245781   5.113   3.703   1.800  1.4054  3.3274  1.0671
 7196TIP3   OH245782   6.834   3.780   0.910 -0.3883 -0.0502 -0.1520
 7196TIP3    H145783   6.770   3.833   0.863 -1.2068 -0.1000  0.8666
 7196TIP3    H245784   6.857   3.710   0.849  1.8413  2.2230 -2.0939
 7197TIP3   OH245785   6.945   2.144   2.396 -0.1466 -0.4115  0.8687
 7197TIP3    H145786   6.855   2.114   2.407 -1.3409  2.0676 -1.0352
 7197TIP3    H245787   6.950   2.225   2.448  0.3092  0.5226 -0.5622
 7198TIP3   OH245788   1.338   3.157   3.181  0.2048 -0.2811 -0.2247
 7198TIP3    H145789   1.377   3.153   3.094  2.7240 -0.1036  0.8261
 7198TIP3    H245790   1.409   3.182   3.239 -1.2048 -1.1425  2.0344
 7199TIP3   OH245791   4.013   1.276   1.974  0.6188 -0.1988 -0.7471
 7199TIP3    H145792   4.036   1.263   1.882 -0.8163 -3.1414 -0.8252
 7199TIP3    H245793   4.061   1.206   2.020 -0.4195 -0.1958  0.3931
 7200TIP3   OH245794   3.771   2.078   3.049 -0.5480 -0.3055 -0.6814
 7200TIP3    H145795   3.783   2.107   2.959 -0.3297 -1.6645 -1.0998
 7200TIP3    H245796   3.856   2.044   3.076 -1.3738 -2.8858 -1.0801
 7201TIP3   OH245797   1.116   7.050   0.710  0.1381  0.0199 -0.1686
 7201TIP3    H145798   1.028   7.086   0.706 -0.5615 -1.5824  0.2476
 7201TIP3    H245799   1.149   7.076   0.797 -0.3367 -0.2851  0.1056
 7202TIP3   OH245800   3.970   2.376   1.272 -0.5116  0.3545  0.0516
 7202TIP3    H145801   4.053   2.350   1.233 -0.3028  1.1363 -0.0351
 7202TIP3    H245802   3.923   2.422   1.203 -0.9954 -0.0120  0.1234
 7203TIP3   OH245803   1.497   5.818   0.983 -0.4888  0.2200 -0.4383
 7203TIP3    H145804   1.574   5.874   0.990 -1.1546  1.0712  0.3379
 7203TIP3    H245805   1.445   5.839   1.061 -1.4981 -0.3358 -0.9416
 7204TIP3   OH245806   4.594   4.477   1.460 -0.3220 -0.1758  0.0885
 7204TIP3    H145807   4.569   4.552   1.514 -1.5298  0.6668 -1.5698
 7204TIP3    H245808   4.512   4.432   1.442 -0.1078  0.1301 -1.8469
 7205TIP3   OH245809   6.876   5.227   0.909 -0.4120 -0.2844 -0.0899
 7205TIP3    H145810   6.808   5.211   0.974  1.9428  1.0268  2.9891
 7205TIP3    H245811   6.958   5.217   0.958  1.6487 -1.1170 -3.3963
 7206TIP3   OH245812   5.496   6.244   3.204 -0.3706  0.8092 -0.3512
 7206TIP3    H145813   5.513   6.168   3.259 -0.2284  1.7699  0.9937
 7206TIP3    H245814   5.575   6.255   3.152 -0.5379 -0.1699 -0.8246
 7207TIP3   OH245815   1.788   4.582   0.731  0.1941  0.6094 -0.1930
 7207TIP3    H145816   1.834   4.664   0.712  2.1801 -0.1854  0.8615
 7207TIP3    H245817   1.737   4.602   0.810  2.7947  0.1801  1.7042
 7208TIP3   OH245818   4.118   3.090   2.551  0.1094 -0.1283 -0.1929
 7208TIP3    H145819   4.051   3.127   2.608 -0.1579 -1.3303  0.2960
 7208TIP3    H245820   4.073   3.074   2.468  0.1903  0.5025 -0.3596
 7209TIP3   OH245821   7.474   6.086   0.937  0.0809 -0.6191 -0.0195
 7209TIP3    H145822   7.398   6.142   0.951  2.4582  2.6427  0.9437
 7209TIP3    H245823   7.450   6.003   0.979 -1.9003  1.2470  2.9453
 7210TIP3   OH245824   2.105   2.708   0.482  0.2355  0.3018 -0.4195
 7210TIP3    H145825   2.187   2.754   0.497  0.7383  0.6013 -3.4432
 7210TIP3    H245826   2.045   2.775   0.451  0.0586 -0.5074 -1.9288
 7211TIP3   OH245827   3.683   7.033   1.463 -0.0809 -0.1318  0.0535
 7211TIP3    H145828   3.777   7.016   1.449 -0.5869 -1.1902 -2.7911
 7211TIP3    H245829   3.646   6.946   1.482 -0.5174  0.2616  1.0459
 7212TIP3   OH245830   1.458   5.210   2.249  0.0591 -0.2086  0.2032
 7212TIP3    H145831   1.369   5.210   2.214  0.2093  0.4335 -0.1906
 7212TIP3    H245832   1.503   5.139   2.203  0.0268  0.1052 -0.3070
 7213TIP3   OH245833   2.342   3.088   2.587 -0.3454 -0.0139 -0.0548
 7213TIP3    H145834   2.393   3.045   2.518  0.9272  0.3745  0.6056
 7213TIP3    H245835   2.310   3.168   2.546  4.3804  2.7433  0.9396
 7214TIP3   OH245836   5.198   0.679   2.302  0.4389  0.0500 -0.0173
 7214TIP3    H145837   5.208   0.767   2.267  1.3732 -0.3836 -0.8712
 7214TIP3    H245838   5.127   0.687   2.366  2.5465  2.1304  2.3106
 7215TIP3   OH245839   3.634   1.279   2.419  0.4395 -0.4846  0.3352
 7215TIP3    H145840   3.670   1.364   2.395 -1.0957  0.0183 -0.3293
 7215TIP3    H245841   3.596   1.245   2.338  1.8233 -2.2502  0.3712
 7216TIP3   OH245842   7.148   6.816   1.704 -0.4344 -0.3580 -0.2423
 7216TIP3    H145843   7.093   6.810   1.626  0.4182 -0.7161 -0.8347
 7216TIP3    H245844   7.178   6.907   1.705 -1.0994 -0.1403  0.1304
 7217TIP3   OH245845   0.532   1.565   0.519 -0.2571  0.8017 -0.0087
 7217TIP3    H145846   0.611   1.577   0.466  0.1888 -1.9733 -0.1418
 7217TIP3    H245847   0.539   1.631   0.588  0.5868  2.6206 -1.7157
 7218TIP3   OH245848   6.645   3.893   1.756  0.4692 -0.6918  0.5711
 7218TIP3    H145849   6.608   3.912   1.670 -0.0247  0.2674  0.9859
 7218TIP3    H245850   6.720   3.835   1.738  0.6698 -0.1098 -0.5359
 7219TIP3   OH245851   1.851   5.391   0.979 -0.0519 -0.2318  0.2255
 7219TIP3    H145852   1.820   5.350   0.898 -0.4623  1.0971 -0.3220
 7219TIP3    H245853   1.790   5.464   0.993  1.4316  0.9949  0.4387
 7220TIP3   OH245854   3.054   2.573   1.758  0.0948  0.4339  0.3049
 7220TIP3    H145855   2.959   2.560   1.747  0.2595  0.4337 -1.3137
 7220TIP3    H245856   3.066   2.667   1.752  0.1651  0.4705  0.9349
 7221TIP3   OH245857   3.733   0.803   1.840  0.2909  0.2123  0.1059
 7221TIP3    H145858   3.734   0.758   1.924  0.5655 -0.7828 -0.4118
 7221TIP3    H245859   3.819   0.844   1.834  0.1494  0.5645  0.4525
 7222TIP3   OH245860   3.180   6.102   2.241  0.6835 -0.2396  0.4159
 7222TIP3    H145861   3.208   6.109   2.150 -1.2754 -1.1173 -0.3090
 7222TIP3    H245862   3.213   6.182   2.283 -0.8707  1.6676 -1.7785
 7223TIP3   OH245863   7.605   5.763   1.341 -0.2008 -0.5443  0.2906
 7223TIP3    H145864   7.569   5.675   1.325 -1.5453 -0.0006  0.1992
 7223TIP3    H245865   7.529   5.820   1.343  0.7288  0.8235 -0.8803
 7224TIP3   OH245866   6.102   7.053   2.049 -0.1284 -0.5505 -0.4465
 7224TIP3    H145867   6.194   7.051   2.075 -0.4130 -0.0077  0.6740
 7224TIP3    H245868   6.074   6.962   2.052  0.5001 -0.7869 -1.3254
 7225TIP3   OH245869   6.332   7.116   1.616 -0.2062 -0.7806 -0.3479
 7225TIP3    H145870   6.290   7.035   1.644  1.5909 -1.7234 -0.2404
 7225TIP3    H245871   6.364   7.098   1.528 -1.9538  0.6998 -1.3720
 7226TIP3   OH245872   4.255   3.168   0.571 -0.0148 -0.1143 -0.7425
 7226TIP3    H145873   4.327   3.106   0.560  1.1593  0.9267  0.6593
 7226TIP3    H245874   4.245   3.208   0.485  2.3326  0.9940 -0.5702
 7227TIP3   OH245875   5.318   4.287   1.871  0.1908  0.2657 -0.0160
 7227TIP3    H145876   5.275   4.373   1.866 -0.1988  0.1503  1.0069
 7227TIP3    H245877   5.311   4.251   1.783 -1.6509  0.3260  0.0788
 7228TIP3   OH245878   6.072   0.835   0.864  0.0355  0.1904  0.1032
 7228TIP3    H145879   6.038   0.921   0.892 -1.0129 -0.2792  0.3074
 7228TIP3    H245880   6.036   0.822   0.776 -0.2045 -0.2452  0.2620
 7229TIP3   OH245881   5.740   0.272   2.444  0.3627 -0.5159 -0.5885
 7229TIP3    H145882   5.787   0.326   2.380 -0.2113 -0.8789 -1.3281
 7229TIP3    H245883   5.723   0.190   2.398  0.8064 -1.1517  0.3753
 7230TIP3   OH245884   1.300   5.598   3.075  0.0353 -0.9888 -0.0882
 7230TIP3    H145885   1.245   5.525   3.047 -0.3332 -0.6105 -0.3667
 7230TIP3    H245886   1.259   5.675   3.036  0.7573 -0.6984 -0.2872
 7231TIP3   OH245887   1.201   0.545   1.710 -0.4421  0.0184  0.0358
 7231TIP3    H145888   1.218   0.616   1.648  2.3460  0.0140  0.6660
 7231TIP3    H245889   1.285   0.532   1.755 -1.5625 -1.9960  1.6988
 7232TIP3   OH245890   2.727   0.587   3.462  0.1961  0.0757  0.6568
 7232TIP3    H145891   2.731   0.656   3.528 -0.7016 -2.0929  3.1677
 7232TIP3    H245892   2.641   0.596   3.423  0.0671  0.3603  1.0016
 7233TIP3   OH245893   3.111   5.458   1.804 -0.0175  0.0719  0.6298
 7233TIP3    H145894   3.158   5.445   1.886 -0.0171 -0.3910  0.5629
 7233TIP3    H245895   3.041   5.392   1.806  1.2088 -1.3653 -0.6361
 7234TIP3   OH245896   7.145   7.058   1.501 -0.1794 -0.1291 -0.4063
 7234TIP3    H145897   7.059   7.066   1.543  0.0322  1.3163 -0.1860
 7234TIP3    H245898   7.132   7.093   1.413 -0.0002 -0.6999 -0.6655
 7235TIP3   OH245899   3.539   4.333   1.067  0.2099  0.3070 -0.1702
 7235TIP3    H145900   3.474   4.264   1.082 -0.5779  1.2053  0.6727
 7235TIP3    H245901   3.497   4.392   1.004  0.0723  1.0471  0.5966
 7236TIP3   OH245902   5.819   0.687   2.175 -0.4285 -0.1533  0.5386
 7236TIP3    H145903   5.733   0.651   2.198 -0.0533 -0.9543  0.7095
 7236TIP3    H245904   5.822   0.772   2.218 -1.3111  0.0728  0.1745
 7237TIP3   OH245905   1.362   2.164   0.848 -0.4473  0.3945  0.0884
 7237TIP3    H145906   1.309   2.089   0.876 -0.6396 -0.0803 -1.4430
 7237TIP3    H245907   1.348   2.230   0.915 -0.9745 -0.6267  1.0173
 7238TIP3   OH245908   3.197   6.906   1.539 -0.3690  0.1327 -0.1506
 7238TIP3    H145909   3.186   6.817   1.574  0.0284  0.7102  1.5692
 7238TIP3    H245910   3.110   6.945   1.544 -0.2756  0.2769  0.4156
 7239TIP3   OH245911   2.944   0.355   3.188 -0.0198  0.2342 -0.9357
 7239TIP3    H145912   2.858   0.346   3.147 -1.1611 -1.5213  1.5881
 7239TIP3    H245913   2.977   0.266   3.195  2.4692  0.9227 -2.5733
 7240TIP3   OH245914   1.984   4.881   0.985 -0.3657  0.2302 -0.0478
 7240TIP3    H145915   2.000   4.963   1.032 -1.7465  0.0283  0.8319
 7240TIP3    H245916   2.036   4.815   1.032  0.7532  0.5748 -0.7617
 7241TIP3   OH245917   7.496   5.659   2.486  0.4570 -0.3062  0.3979
 7241TIP3    H145918   7.523   5.588   2.545 -0.7834 -0.2692  1.0466
 7241TIP3    H245919   7.454   5.723   2.543  0.9457  0.6367 -0.2790
 7242TIP3   OH245920   4.870   2.682   2.061  0.2151  0.3827 -0.4687
 7242TIP3    H145921   4.843   2.601   2.018  1.4657 -0.3717  0.0968
 7242TIP3    H245922   4.928   2.653   2.132  0.4796  1.7595 -0.0936
 7243TIP3   OH245923   6.560   7.013   0.689 -0.4975  0.4353  0.2149
 7243TIP3    H145924   6.625   6.963   0.737 -0.7892  0.5213  0.7046
 7243TIP3    H245925   6.610   7.065   0.627 -0.2114 -0.8913 -0.7258
 7244TIP3   OH245926   2.290   2.497   1.586  0.3761 -0.0612  0.2783
 7244TIP3    H145927   2.283   2.429   1.653 -0.2006 -0.1874  0.0965
 7244TIP3    H245928   2.377   2.485   1.548  1.2887  0.8899  1.9490
 7245TIP3   OH245929   3.252   0.589   1.185 -0.9249 -0.4335  0.5055
 7245TIP3    H145930   3.182   0.601   1.122  0.5304 -3.2065 -1.8598
 7245TIP3    H245931   3.294   0.675   1.191 -1.2667 -0.0010 -2.1952
 7246TIP3   OH245932   2.691   1.599   2.054  0.3999 -0.3498  0.4430
 7246TIP3    H145933   2.728   1.673   2.102 -0.9658  1.1860 -0.7188
 7246TIP3    H245934   2.761   1.570   1.996  0.4228  1.3609 -0.4675
 7247TIP3   OH245935   6.727   2.344   1.839 -0.4648 -0.3216 -0.3716
 7247TIP3    H145936   6.713   2.357   1.933 -0.5751 -2.2462 -0.0772
 7247TIP3    H245937   6.669   2.408   1.797 -2.6465 -1.3377  0.8760
 7248TIP3   OH245938   5.141   1.213   1.030 -0.6636 -0.0169 -0.1212
 7248TIP3    H145939   5.134   1.272   0.956  1.1688 -0.4145 -0.6459
 7248TIP3    H245940   5.127   1.126   0.992 -1.2784 -0.1025  0.2866
 7249TIP3   OH245941   4.730   4.511   0.716  0.7761  0.2808  0.4191
 7249TIP3    H145942   4.771   4.426   0.702 -0.8599 -0.4271 -0.4986
 7249TIP3    H245943   4.799   4.575   0.698  1.6272 -0.8377 -0.4400
 7250TIP3   OH245944   2.740   0.363   1.880  0.2712  0.0064 -0.6053
 7250TIP3    H145945   2.671   0.352   1.946 -0.4517  0.1994 -1.3037
 7250TIP3    H245946   2.733   0.283   1.826 -0.7926  0.9163 -1.9016
 7251TIP3   OH245947   3.610   7.013   2.489  0.2258 -0.3267 -0.1273
 7251TIP3    H145948   3.522   7.012   2.526 -0.0976 -0.0346 -0.8741
 7251TIP3    H245949   3.668   7.028   2.564 -0.3642 -0.4455  0.3532
 7252TIP3   OH245950   5.735   2.931   3.282  0.3183 -1.0488 -0.0027
 7252TIP3    H145951   5.746   2.894   3.370 -0.0195  1.9625  1.4352
 7252TIP3    H245952   5.821   2.923   3.241  0.7260 -1.6729  0.9441
 7253TIP3   OH245953   2.508   5.822   2.102 -0.2598 -0.3560  0.5595
 7253TIP3    H145954   2.550   5.843   2.019  1.1649 -0.7505  1.1475
 7253TIP3    H245955   2.442   5.757   2.080 -0.5871  0.2695 -0.3952
 7254TIP3   OH245956   5.077   1.777   2.547  0.1365 -0.0809 -0.8456
 7254TIP3    H145957   5.170   1.753   2.550  0.6530  1.5291 -2.2998
 7254TIP3    H245958   5.037   1.726   2.617  2.0462 -1.1046 -0.4277
 7255TIP3   OH245959   2.676   0.355   2.356  0.1631 -0.2000  0.2032
 7255TIP3    H145960   2.610   0.293   2.386 -0.9809  0.7023 -0.3812
 7255TIP3    H245961   2.644   0.385   2.271  1.0884  0.6258  0.1258
 7256TIP3   OH245962   3.615   5.918   1.636 -0.1193  0.1267 -0.3161
 7256TIP3    H145963   3.638   5.840   1.586 -0.7387 -0.4111  0.2129
 7256TIP3    H245964   3.565   5.972   1.574  3.8488  2.1638 -2.0801
 7257TIP3   OH245965   2.009   3.790   0.499 -0.4303  0.2384  0.5548
 7257TIP3    H145966   2.075   3.858   0.492 -0.4143  0.1515 -0.2114
 7257TIP3    H245967   2.058   3.711   0.523 -0.4420  0.4682  1.3830
 7258TIP3   OH245968   2.570   1.044   2.068 -0.2032 -0.3742 -0.1001
 7258TIP3    H145969   2.645   1.097   2.043 -0.2488 -0.2907 -0.0583
 7258TIP3    H245970   2.576   0.967   2.012  0.1647 -0.5770  0.2117
 7259TIP3   OH245971   1.522   5.680   2.864 -0.3905  0.5312  0.2985
 7259TIP3    H145972   1.441   5.679   2.916  0.0399 -0.3458  0.9936
 7259TIP3    H245973   1.504   5.619   2.792 -0.6753  1.0583 -0.0773
 7260TIP3   OH245974   5.401   4.697   2.370  0.1702 -0.3532 -0.1431
 7260TIP3    H145975   5.364   4.739   2.448 -1.8527 -1.4785 -0.4250
 7260TIP3    H245976   5.359   4.610   2.368 -0.4539 -0.0735 -2.8942
 7261TIP3   OH245977   1.581   7.563   2.556 -0.7086  0.0954  0.1149
 7261TIP3    H145978   1.667   7.599   2.533 -0.7949  0.2384  0.0164
 7261TIP3    H245979   1.519   7.631   2.532 -0.6314  1.4801  3.3216
 7262TIP3   OH245980   7.312   1.301   1.642 -0.1853  0.0663 -0.5907
 7262TIP3    H145981   7.292   1.327   1.732 -1.9080 -1.8859 -0.3258
 7262TIP3    H245982   7.226   1.284   1.603  0.6346 -1.3935 -1.8722
 7263TIP3   OH245983   7.537   1.080   1.906 -0.0659 -0.4434  0.1610
 7263TIP3    H145984   7.468   1.134   1.867  0.6295  1.5921  1.5356
 7263TIP3    H245985   7.609   1.084   1.843  0.5131  1.5734  0.8545
 7264TIP3   OH245986   3.586   3.273   1.594 -0.3905  0.5726 -0.0609
 7264TIP3    H145987   3.679   3.252   1.583 -0.3857  0.4830  0.1511
 7264TIP3    H245988   3.575   3.283   1.689 -0.6338  0.4086 -0.0714
 7265TIP3   OH245989   3.313   0.042   8.317  0.2124  0.3897 -0.1840
 7265TIP3    H145990   3.287  -0.023   8.383  1.4552 -0.0733 -0.1269
 7265TIP3    H245991   3.295   0.126   8.358  0.7587  0.1042  0.6560
 7266TIP3   OH245992   2.526   4.659   1.921 -0.2759  0.1332 -0.1370
 7266TIP3    H145993   2.519   4.612   1.838 -1.0464  1.1242 -0.6519
 7266TIP3    H245994   2.437   4.657   1.957  0.5141 -2.7307  2.0982
 7267TIP3   OH245995   3.858   0.196   3.157  0.0015  0.1380 -0.0507
 7267TIP3    H145996   3.902   0.219   3.239 -0.1126 -1.3772  0.4632
 7267TIP3    H245997   3.908   0.122   3.123 -2.0668 -1.6479  0.5570
 7268TIP3   OH245998   3.261   3.320   1.698  0.0709 -0.1832  0.3266
 7268TIP3    H145999   3.190   3.334   1.761  0.0926 -0.5045  0.4221
 7268TIP3    H246000   3.340   3.345   1.746 -0.0580  1.0517 -0.0705
 7269TIP3   OH246001   0.035   3.891   1.045  0.7369 -0.1658  0.1890
 7269TIP3    H146002   0.067   3.836   0.973  0.0850 -1.1742  0.6399
 7269TIP3    H246003   0.016   3.829   1.115 -0.5983  0.5763  0.5113
 7270TIP3   OH246004   2.871   1.823   1.722  0.0969  0.0747 -0.4660
 7270TIP3    H146005   2.783   1.833   1.760 -0.2046 -0.1747 -1.0728
 7270TIP3    H246006   2.911   1.753   1.773 -0.4416 -0.5169 -0.8393
 7271TIP3   OH246007   0.550   7.513   3.144 -0.3172 -0.0217  0.0587
 7271TIP3    H146008   0.542   7.592   3.091  1.0535 -0.3916 -0.7311
 7271TIP3    H246009   0.488   7.527   3.216 -0.7090  1.3924 -0.5147
 7272TIP3   OH246010   6.450   5.271   1.020  0.7644 -0.0344 -0.0770
 7272TIP3    H146011   6.356   5.286   1.034  0.7744  0.5459 -0.5739
 7272TIP3    H246012   6.470   5.193   1.072  0.0571 -0.0282  0.2210
 7273TIP3   OH246013   3.720   6.113   2.515  0.1776  0.3026  0.3834
 7273TIP3    H146014   3.747   6.049   2.581 -0.3396  0.9395  1.2360
 7273TIP3    H246015   3.624   6.114   2.519  0.0294 -0.8334 -1.5454
 7274TIP3   OH246016   0.746   2.621   0.984 -0.4470  0.1330 -0.4138
 7274TIP3    H146017   0.789   2.537   0.965 -1.0243 -0.1064 -0.6685
 7274TIP3    H246018   0.818   2.680   1.005  0.0410 -0.1642 -1.2059
 7275TIP3   OH246019   2.933   0.452   2.202  0.4296 -0.0841 -0.3337
 7275TIP3    H146020   2.856   0.394   2.207  0.5963 -0.2175  1.0142
 7275TIP3    H246021   2.937   0.478   2.110  0.9528 -3.0494 -1.2540
 7276TIP3   OH246022   3.294   5.010   0.499  0.3003 -0.6025  0.2330
 7276TIP3    H146023   3.298   4.959   0.579 -2.2782 -0.8630  0.2684
 7276TIP3    H246024   3.216   4.978   0.454  0.6681  0.7967 -1.5061
 7277TIP3   OH246025   2.302   2.201   2.472 -0.5699  0.4244  0.0639
 7277TIP3    H146026   2.307   2.107   2.454 -0.3052  0.8014 -2.1771
 7277TIP3    H246027   2.226   2.211   2.529 -1.2363 -1.0471 -0.5135
 7278TIP3   OH246028   4.308   6.934   1.204 -0.2665 -1.0648  0.1033
 7278TIP3    H146029   4.283   6.975   1.121 -1.9206 -0.9473  0.6344
 7278TIP3    H246030   4.404   6.932   1.201 -0.1523  1.5482 -0.5689
 7279TIP3   OH246031   6.185   4.582   1.994 -0.0588  0.6542 -0.4398
 7279TIP3    H146032   6.154   4.544   2.076  0.0498 -1.0769 -1.1575
 7279TIP3    H246033   6.105   4.606   1.948 -0.1533  0.8033 -0.1991
 7280TIP3   OH246034   0.137   7.214   1.072 -0.0237  0.3176 -0.4719
 7280TIP3    H146035   0.055   7.210   1.023  0.8318  0.4066 -1.9670
 7280TIP3    H246036   0.152   7.308   1.085 -0.5951  0.2734  0.5983
 7281TIP3   OH246037   4.394   4.278   1.168  0.4024 -0.0254 -0.4024
 7281TIP3    H146038   4.485   4.261   1.193  0.8242  0.5638 -1.4901
 7281TIP3    H246039   4.381   4.371   1.186 -0.5694 -0.4773  1.4607
 7282TIP3   OH246040   0.476   6.780   0.651  0.1333  0.2318 -0.1350
 7282TIP3    H146041   0.473   6.686   0.666  0.4593 -0.1220 -1.9714
 7282TIP3    H246042   0.384   6.804   0.638  0.0956  0.0515 -0.2132
 7283TIP3   OH246043   3.311   1.104   2.838 -0.0717 -0.1749  0.0060
 7283TIP3    H146044   3.307   1.197   2.859 -0.8176 -0.1848 -0.0631
 7283TIP3    H246045   3.359   1.065   2.912  0.5837  0.3082 -0.1539
 7284TIP3   OH246046   5.149   4.093   1.372  0.5029  0.1535  0.1622
 7284TIP3    H146047   5.078   4.139   1.328  0.6971 -0.5784 -0.9826
 7284TIP3    H246048   5.109   4.056   1.451 -0.2117  0.3175 -0.1193
 7285TIP3   OH246049   1.208   1.485   2.062  0.0449 -0.4997  0.1156
 7285TIP3    H146050   1.262   1.449   2.132  1.9544 -0.4669 -1.2461
 7285TIP3    H246051   1.152   1.549   2.105 -0.1159 -1.7413  1.8549
 7286TIP3   OH246052   0.455   2.781   1.698  0.1128  0.4112  0.0749
 7286TIP3    H146053   0.428   2.690   1.709  2.3168 -0.4978 -1.2561
 7286TIP3    H246054   0.397   2.831   1.755 -1.5000 -1.7587  0.4570
 7287TIP3   OH246055   6.315   5.280   2.873  0.2420  0.3425 -0.0817
 7287TIP3    H146056   6.354   5.193   2.863 -0.2547 -0.3387  2.8155
 7287TIP3    H246057   6.364   5.335   2.812  1.3589 -1.7196 -1.1717
 7288TIP3   OH246058   5.272   2.620   1.592 -0.9180 -0.6007  0.1168
 7288TIP3    H146059   5.307   2.532   1.577  1.0957  0.0379  0.8021
 7288TIP3    H246060   5.196   2.606   1.649 -0.7519 -1.9004  0.0568
 7289TIP3   OH246061   3.436   6.266   1.845 -0.2735  0.1575  0.1973
 7289TIP3    H146062   3.435   6.339   1.783 -0.3039  1.5147  1.7387
 7289TIP3    H246063   3.389   6.196   1.799 -2.1150  1.7885 -0.5535
 7290TIP3   OH246064   5.425   5.688   0.860 -0.4834  0.2116  0.4306
 7290TIP3    H146065   5.414   5.776   0.825 -1.2129 -0.0001  0.0888
 7290TIP3    H246066   5.358   5.680   0.928 -0.4758 -0.0937  0.4068
 7291TIP3   OH246067   3.188   3.231   3.295 -0.1122  0.3920 -0.0297
 7291TIP3    H146068   3.140   3.186   3.365  0.3081  1.1698  0.7811
 7291TIP3    H246069   3.238   3.161   3.252 -1.7265 -0.3925 -0.7354
 7292TIP3   OH246070   5.652   2.277   0.568  0.7564 -0.1739  0.6859
 7292TIP3    H146071   5.640   2.191   0.607  1.2529 -0.6504 -0.1632
 7292TIP3    H246072   5.720   2.263   0.502 -0.8115  0.3298 -1.1117
 7293TIP3   OH246073   4.944   4.779   2.097 -0.0197  0.3229 -0.1452
 7293TIP3    H146074   4.869   4.813   2.147  0.4035  0.4871  0.3771
 7293TIP3    H246075   4.905   4.715   2.038 -0.5548  0.2806  0.2444
 7294TIP3   OH246076   2.019   0.580   0.969 -0.1584  0.0510  0.0861
 7294TIP3    H146077   1.952   0.636   1.008 -1.0684 -1.3171  0.5391
 7294TIP3    H246078   2.058   0.634   0.899 -0.1121  1.6917  1.3166
 7295TIP3   OH246079   3.754   6.585   0.902 -0.5454 -0.2611 -0.0616
 7295TIP3    H146080   3.825   6.521   0.910 -1.0647 -0.8365  0.0085
 7295TIP3    H246081   3.792   6.667   0.933  0.1669 -0.5054 -0.2663
 7296TIP3   OH246082   4.945   7.248   2.225  0.1893  0.0286 -0.3044
 7296TIP3    H146083   4.850   7.259   2.228  0.0452 -1.0799 -0.2615
 7296TIP3    H246084   4.975   7.313   2.162 -0.7501 -0.4643 -1.2936
 7297TIP3   OH246085   2.903   1.618   1.516 -0.1047  0.4933 -0.1724
 7297TIP3    H146086   2.905   1.694   1.574  0.8880  1.0694 -0.9220
 7297TIP3    H246087   2.812   1.611   1.487 -0.3330  1.0103  0.4049
 7298TIP3   OH246088   4.060   7.160   0.997 -0.1455  0.1224 -0.5580
 7298TIP3    H146089   4.029   7.206   0.920  0.5075  0.0692 -0.8605
 7298TIP3    H246090   4.031   7.069   0.984  0.2195  0.0509 -0.8870
 7299TIP3   OH246091   5.827   0.881   1.380  0.2864 -0.5258  0.1356
 7299TIP3    H146092   5.749   0.915   1.336  0.6697 -0.6176 -0.6342
 7299TIP3    H246093   5.801   0.796   1.414 -0.5983  0.3707  1.8305
 7300TIP3   OH246094   3.305   3.060   2.646  0.1904  0.0481  0.1087
 7300TIP3    H146095   3.289   3.044   2.553 -0.3338  2.5074 -0.2940
 7300TIP3    H246096   3.286   2.977   2.688 -0.1627 -0.9603 -1.9132
 7301TIP3   OH246097   6.328   0.373   1.676 -0.3300 -0.3442 -0.2564
 7301TIP3    H146098   6.305   0.283   1.653  0.3688 -0.3446 -1.0218
 7301TIP3    H246099   6.245   0.420   1.672 -0.3043 -0.3305 -3.0385
 7302TIP3   OH246100   0.845   3.244   1.136  0.3939 -0.3239 -0.2723
 7302TIP3    H146101   0.803   3.172   1.089 -0.3488 -1.2766  1.7116
 7302TIP3    H246102   0.870   3.205   1.221  2.4990  1.0423 -0.1951
 7303TIP3   OH246103   2.719   2.167   2.214  1.0158  0.0557  0.1335
 7303TIP3    H146104   2.773   2.143   2.290  1.6185 -0.6253 -0.4900
 7303TIP3    H246105   2.649   2.221   2.250  2.1880  1.0765  0.9441
 7304TIP3   OH246106   4.652   2.509   3.005  1.1172 -0.1289 -0.1925
 7304TIP3    H146107   4.721   2.500   3.071 -0.4216  1.5318  1.7797
 7304TIP3    H246108   4.590   2.571   3.043 -0.6547 -0.2779 -2.5837
 7305TIP3   OH246109   6.211   1.894   1.938 -0.2667  0.0161  0.6234
 7305TIP3    H146110   6.266   1.949   1.993  0.2732 -0.9183  1.0397
 7305TIP3    H246111   6.163   1.956   1.882  1.2861  0.8495  0.1611
 7306TIP3   OH246112   0.892   1.965   2.183  0.2063 -0.1124 -0.1414
 7306TIP3    H146113   0.880   1.999   2.095 -1.4251 -1.5881 -0.5454
 7306TIP3    H246114   0.821   2.003   2.234  1.2972  0.9460  0.6418
 7307TIP3   OH246115   6.159   4.157   1.921  0.3087  0.0978 -0.0138
 7307TIP3    H146116   6.110   4.236   1.897  0.6942  0.0951 -0.8149
 7307TIP3    H246117   6.126   4.089   1.862  0.3266 -0.2381  0.3501
 7308TIP3   OH246118   5.353   1.145   3.403  0.5154  0.4208 -0.2807
 7308TIP3    H146119   5.392   1.064   3.371  1.2024  0.7325 -0.2456
 7308TIP3    H246120   5.390   1.214   3.347  0.5672  0.7956  0.2041
 7309TIP3   OH246121   1.080   6.468   2.104  0.0894  0.0375 -0.3923
 7309TIP3    H146122   1.003   6.438   2.055 -0.3293  0.3014  0.0879
 7309TIP3    H246123   1.111   6.389   2.149  0.1781 -0.0998 -0.6940
 7310TIP3   OH246124   3.283   4.950   1.656 -0.3071 -0.0120 -0.0032
 7310TIP3    H146125   3.314   4.949   1.565  0.9293 -1.0598  0.3940
 7310TIP3    H246126   3.360   4.973   1.708 -1.3103  1.9767  0.7265
 7311TIP3   OH246127   0.668   2.848   2.730 -0.4885  0.0421  0.2073
 7311TIP3    H146128   0.580   2.879   2.706 -0.4611  0.1223  0.2114
 7311TIP3    H246129   0.706   2.919   2.781 -0.6423 -0.2341  0.7154
 7312TIP3   OH246130   7.543   0.534   2.973 -0.6212 -0.7393  0.0058
 7312TIP3    H146131   7.536   0.478   3.050 -0.8481 -0.5268  0.1393
 7312TIP3    H246132   7.487   0.493   2.908 -2.4383  0.4258  0.7534
 7313TIP3   OH246133   1.047   1.817   1.830  0.2776 -0.8340 -0.0493
 7313TIP3    H146134   1.105   1.751   1.793 -1.0465 -1.2132 -1.5849
 7313TIP3    H246135   1.066   1.896   1.780 -1.9760 -1.5099 -2.1634
 7314TIP3   OH246136   3.818   2.761   1.736 -0.0965  0.3262 -0.4171
 7314TIP3    H146137   3.724   2.750   1.754 -0.0527  1.9334  1.0154
 7314TIP3    H246138   3.850   2.813   1.810  1.8376  0.2064 -1.1391
 7315TIP3   OH246139   3.507   4.849   1.110 -0.0495 -0.1476  0.0526
 7315TIP3    H146140   3.444   4.864   1.040  1.0278 -0.5688 -1.0397
 7315TIP3    H246141   3.489   4.759   1.140  0.0016 -0.2471 -0.2166
 7316TIP3   OH246142   0.729   0.332   1.397  0.4163 -0.1304 -0.5001
 7316TIP3    H146143   0.746   0.333   1.491  0.9257  0.2643 -0.5889
 7316TIP3    H246144   0.720   0.425   1.374 -0.8110 -0.2684 -0.6536
 7317TIP3   OH246145   6.091   5.610   2.024  0.1368 -0.3468 -0.4666
 7317TIP3    H146146   6.027   5.672   1.992 -0.6991 -1.1576 -0.4055
 7317TIP3    H246147   6.105   5.549   1.952  0.2699 -0.6144 -0.2214
 7318TIP3   OH246148   5.300   0.923   1.421 -0.6374  0.0785  0.4121
 7318TIP3    H146149   5.376   0.961   1.465 -1.5849  1.8578  0.5960
 7318TIP3    H246150   5.233   0.991   1.425 -1.8157 -0.9337 -0.9337
 7319TIP3   OH246151   4.352   4.410   2.953  0.1685  0.2397 -0.3268
 7319TIP3    H146152   4.328   4.502   2.941  0.6424  0.1645 -2.1968
 7319TIP3    H246153   4.272   4.362   2.930  0.2954  0.1474 -0.5708
 7320TIP3   OH246154   4.627   1.730   1.028  0.0424 -0.3762  0.3278
 7320TIP3    H146155   4.542   1.720   0.986  0.4390  0.7149 -0.8013
 7320TIP3    H246156   4.688   1.680   0.974  0.2023 -0.7580  0.8535
 7321TIP3   OH246157   4.141   2.577   1.150  0.3286 -0.0065  0.1263
 7321TIP3    H146158   4.088   2.598   1.227  0.4159  0.4371  0.0670
 7321TIP3    H246159   4.122   2.647   1.088 -1.3254 -1.4186 -1.0757
 7322TIP3   OH246160   6.394   1.331   3.434  0.6193  0.4715 -0.5880
 7322TIP3    H146161   6.460   1.372   3.379  0.7037 -0.4632 -1.2006
 7322TIP3    H246162   6.426   1.242   3.448  0.1967  0.4495  0.3060
 7323TIP3   OH246163   6.868   5.712   1.306  0.1110 -0.6828  0.2032
 7323TIP3    H146164   6.868   5.751   1.219  1.0989  0.0430  0.5121
 7323TIP3    H246165   6.961   5.696   1.326 -0.2085 -3.0265  0.1857
 7324TIP3   OH246166   2.957   5.383   2.287 -0.1735 -0.2042 -0.0534
 7324TIP3    H146167   2.994   5.407   2.372  1.7902 -0.0353 -0.8804
 7324TIP3    H246168   3.002   5.441   2.225 -1.7330 -0.1638 -1.1983
 7325TIP3   OH246169   6.722   5.730   3.461 -0.3510  0.4726  0.4141
 7325TIP3    H146170   6.721   5.735   3.366  1.6763  0.6869  0.3650
 7325TIP3    H246171   6.699   5.639   3.480  0.1571  0.1738 -0.3337
 7326TIP3   OH246172   0.030   6.259   3.033  0.1218  0.7963 -0.0631
 7326TIP3    H146173  -0.004   6.173   3.058 -1.8044  0.4393 -3.3900
 7326TIP3    H246174   0.125   6.252   3.046 -0.2031 -0.9550  1.9316
 7327TIP3   OH246175   3.429   6.740   0.694  0.4258  0.4264  0.0050
 7327TIP3    H146176   3.477   6.783   0.623  0.5570  1.7058  0.8395
 7327TIP3    H246177   3.470   6.773   0.774 -0.1614 -0.4756  0.6989
 7328TIP3   OH246178   0.788   2.502   1.527  0.3776 -0.0321  1.0801
 7328TIP3    H146179   0.760   2.427   1.578 -2.6685  0.1486 -0.1147
 7328TIP3    H246180   0.762   2.578   1.580 -2.1683  0.1470 -0.2960
 7329TIP3   OH246181   6.348   7.067   3.004 -0.0575  0.3327  0.3181
 7329TIP3    H146182   6.314   7.057   2.915  0.5570  0.8091  0.0249
 7329TIP3    H246183   6.358   7.161   3.015  1.1516  0.2031  0.4014
 7330TIP3   OH246184   6.167   2.422   1.441 -0.5916 -0.0982 -0.8423
 7330TIP3    H146185   6.211   2.358   1.385  2.2098  1.0699 -0.1306
 7330TIP3    H246186   6.196   2.401   1.530  0.4469  2.1136 -0.5927
 7331TIP3   OH246187   0.137   2.175   2.154 -0.5250 -0.4092  0.2932
 7331TIP3    H146188   0.086   2.144   2.079 -0.1515 -0.6503  0.1361
 7331TIP3    H246189   0.098   2.260   2.177 -0.6764 -0.3639 -0.1339
 7332TIP3   OH246190   7.165   2.545   1.892 -0.2921 -0.1327 -0.0840
 7332TIP3    H146191   7.084   2.590   1.917 -0.1347  0.1854 -0.1348
 7332TIP3    H246192   7.224   2.616   1.865 -0.1145 -0.3881 -0.3784
 7333TIP3   OH246193   0.732   3.449   0.977 -0.4629  0.3099  0.5610
 7333TIP3    H146194   0.669   3.379   0.992 -0.5604  0.6666  1.9905
 7333TIP3    H246195   0.816   3.405   0.966 -0.8706 -0.1420 -0.8731
 7334TIP3   OH246196   2.731   6.561   1.608 -0.0444 -0.5943  0.2566
 7334TIP3    H146197   2.822   6.538   1.625  0.4438  1.9411  1.5870
 7334TIP3    H246198   2.736   6.635   1.547 -1.2817 -0.8741 -0.2220
 7335TIP3   OH246199   7.665   0.072   0.539  0.1287 -0.4845 -0.6321
 7335TIP3    H146200   7.605   0.122   0.484  1.4769  1.2138 -0.6170
 7335TIP3    H246201   7.699   0.135   0.602 -0.5780 -2.1328  1.5459
 7336TIP3   OH246202   7.027   0.183   0.862  0.1777 -0.4590  0.3741
 7336TIP3    H146203   6.976   0.108   0.893  1.1019 -1.2637 -0.0113
 7336TIP3    H246204   6.980   0.214   0.785  0.5996 -1.6057 -0.3671
 7337TIP3   OH246205   0.083   0.758   1.424 -0.3832 -0.3583 -0.7740
 7337TIP3    H146206   0.030   0.734   1.500 -0.0004  0.0543 -0.3636
 7337TIP3    H246207   0.124   0.842   1.450 -0.7488  0.1068 -1.6800
 7338TIP3   OH246208   2.274   2.663   1.794 -0.2962 -0.8696 -0.4470
 7338TIP3    H146209   2.275   2.597   1.725 -2.1648 -0.6023 -0.7754
 7338TIP3    H246210   2.190   2.651   1.837  0.9233 -1.1954  1.9914
 7339TIP3   OH246211   2.510   5.190   1.077 -0.1176 -0.1789  0.4326
 7339TIP3    H146212   2.566   5.125   1.035 -0.4526 -0.0370 -0.2485
 7339TIP3    H246213   2.555   5.273   1.064  0.1967 -0.2368  1.1035
 7340TIP3   OH246214   4.427   3.956   2.860  0.0804 -0.1681  0.2263
 7340TIP3    H146215   4.430   3.921   2.949 -0.0642  0.1073  0.3384
 7340TIP3    H246216   4.371   3.895   2.812 -0.7169  0.2802  0.5846
 7341TIP3   OH246217   1.605   0.830   1.274 -0.2197  0.1066 -0.4658
 7341TIP3    H146218   1.521   0.810   1.234 -0.0076  2.0448 -1.9688
 7341TIP3    H246219   1.670   0.799   1.211  0.1813  0.1203 -0.0681
 7342TIP3   OH246220   7.537   6.957   0.994 -0.2742 -0.4731 -0.1077
 7342TIP3    H146221   7.449   6.923   0.985 -0.4334 -0.2650  0.5604
 7342TIP3    H246222   7.565   6.929   1.082 -0.4117  1.0703  0.4609
 7343TIP3   OH246223   5.151   1.996   0.795 -0.2221 -0.1286 -0.2122
 7343TIP3    H146224   5.120   1.921   0.745 -1.2043 -0.3096  0.6503
 7343TIP3    H246225   5.245   1.980   0.806  0.0728  0.0231 -2.1558
 7344TIP3   OH246226   1.675   6.028   0.940 -0.2099  0.3231 -0.1054
 7344TIP3    H146227   1.679   6.124   0.947  0.1899  0.2978  0.0478
 7344TIP3    H246228   1.751   5.997   0.989 -0.3464 -0.0770 -0.1392
 7345TIP3   OH246229   7.098   3.937   2.881  0.3527 -0.2262  0.4301
 7345TIP3    H146230   7.190   3.964   2.874  0.0121  0.7024 -0.8499
 7345TIP3    H246231   7.050   4.001   2.828 -0.7186 -2.2440 -1.1613
 7346TIP3   OH246232   5.729   7.385   3.710 -0.0994  0.0398  0.4749
 7346TIP3    H146233   5.634   7.383   3.699 -0.3001 -2.7400  1.9549
 7346TIP3    H246234   5.743   7.365   3.803  1.9720 -0.8338  0.0311
 7347TIP3   OH246235   0.051   4.433   2.969 -0.0121  0.0918 -0.1720
 7347TIP3    H146236   0.133   4.468   2.934 -0.3080  0.4929 -0.4625
 7347TIP3    H246237   0.008   4.393   2.893  0.3362 -0.9453  0.1559
 7348TIP3   OH246238   1.068   7.512   1.268 -0.2963  0.3185 -0.3672
 7348TIP3    H146239   1.076   7.460   1.348  0.7371  1.3450  0.2336
 7348TIP3    H246240   1.018   7.589   1.295 -2.1847 -0.5037 -1.3497
 7349TIP3   OH246241   1.342   6.777   2.292 -0.0325 -0.1512 -0.0057
 7349TIP3    H146242   1.412   6.808   2.233  0.7432  0.3211  1.1307
 7349TIP3    H246243   1.380   6.701   2.336  0.2940  0.8958  1.6018
 7350TIP3   OH246244   0.984   4.116   1.753 -0.0744  0.0676  0.0852
 7350TIP3    H146245   0.979   4.041   1.693 -0.8109  1.0031 -1.0583
 7350TIP3    H246246   0.913   4.102   1.815 -0.5052  0.0427 -0.4063
 7351TIP3   OH246247   6.035   6.374   1.118  0.2126  0.3561 -0.3231
 7351TIP3    H146248   6.069   6.409   1.200  0.6139 -0.5267 -0.1032
 7351TIP3    H246249   6.013   6.283   1.137 -1.9817  0.7833 -0.5581
 7352TIP3   OH246250   2.632   4.609   0.552  0.1444 -0.2047  0.1754
 7352TIP3    H146251   2.540   4.591   0.531 -0.3699  0.6595  1.5842
 7352TIP3    H246252   2.652   4.690   0.505  0.5905 -1.0139 -1.1079
 7353TIP3   OH246253   3.712   5.430   1.388  0.2636  0.5065 -0.6825
 7353TIP3    H146254   3.735   5.458   1.299 -0.6298  0.7514 -0.8414
 7353TIP3    H246255   3.781   5.367   1.412  0.3090  0.1607 -1.6888
 7354TIP3   OH246256   2.326   1.276   1.997  0.2214  0.2810 -0.7927
 7354TIP3    H146257   2.347   1.299   1.906 -0.2432  0.1252 -0.9410
 7354TIP3    H246258   2.326   1.360   2.042 -1.2285  0.5683 -1.2890
 7355TIP3   OH246259   0.341   7.224   1.610 -0.1275  0.5075  0.5996
 7355TIP3    H146260   0.268   7.205   1.551 -0.6873  2.0384  0.7630
 7355TIP3    H246261   0.394   7.144   1.608 -1.3951 -0.3615 -0.1057
 7356TIP3   OH246262   0.532   3.950   0.877  0.1942  0.1778  0.7175
 7356TIP3    H146263   0.540   4.026   0.820  0.9614 -0.9264 -0.7464
 7356TIP3    H246264   0.604   3.893   0.850 -0.2261 -0.9688  1.9150
 7357TIP3   OH246265   3.341   3.304   2.772  0.3523 -0.0986  0.4148
 7357TIP3    H146266   3.304   3.223   2.736  2.0391 -0.5760 -0.3239
 7357TIP3    H246267   3.435   3.293   2.766  0.6377  1.7844  0.6368
 7358TIP3   OH246268   3.802   5.986   2.261  0.0243  0.3449  0.0394
 7358TIP3    H146269   3.745   5.987   2.338 -0.4163 -0.2771 -0.2755
 7358TIP3    H246270   3.820   5.894   2.246  2.4564  0.5604  1.1143
 7359TIP3   OH246271   1.885   4.435   1.186 -0.2145 -0.1221  0.2998
 7359TIP3    H146272   1.790   4.442   1.182 -0.4386 -2.3390  0.4125
 7359TIP3    H246273   1.903   4.343   1.167  1.8100 -0.1228  1.8647
 7360TIP3   OH246274   2.574   3.505   1.680 -1.0873  0.1746  0.3226
 7360TIP3    H146275   2.606   3.422   1.643  0.0040  0.1550  1.2455
 7360TIP3    H246276   2.493   3.523   1.632 -1.2016 -1.2815 -0.0868
 7361TIP3   OH246277   7.240   3.372   1.306 -0.1875 -0.2381 -0.2246
 7361TIP3    H146278   7.235   3.358   1.212  1.5441 -0.1089 -0.3676
 7361TIP3    H246279   7.151   3.358   1.337 -0.7600 -0.4213 -1.8549
 7362TIP3   OH246280   6.692   7.076   2.747  0.5333 -0.0289  0.0384
 7362TIP3    H146281   6.689   6.999   2.804  0.1684 -0.2021 -0.2146
 7362TIP3    H246282   6.694   7.040   2.658 -0.8649  0.2699 -0.1238
 7363TIP3   OH246283   3.976   7.326   1.566 -0.2080  0.2065 -0.1728
 7363TIP3    H146284   3.974   7.337   1.661 -1.9840 -0.0096 -0.1561
 7363TIP3    H246285   3.937   7.405   1.531  1.0137  0.5728 -0.7941
 7364TIP3   OH246286   0.751   3.763   0.886  0.7284 -0.1118  0.0935
 7364TIP3    H146287   0.710   3.677   0.891  1.1858 -0.4228 -1.2877
 7364TIP3    H246288   0.810   3.765   0.962 -1.0904 -0.0091  1.5902
 7365TIP3   OH246289   4.239   6.149   1.431 -0.4216  0.2975 -0.5130
 7365TIP3    H146290   4.211   6.075   1.485 -1.5391 -0.3062 -1.8478
 7365TIP3    H246291   4.174   6.218   1.448 -0.8274  0.0746 -1.1291
 7366TIP3   OH246292   7.425   5.706   1.579  0.0180 -0.5404 -0.7326
 7366TIP3    H146293   7.344   5.673   1.618 -0.9473  1.2777 -1.0789
 7366TIP3    H246294   7.494   5.661   1.627 -1.1451 -0.1225  1.5248
 7367TIP3   OH246295   1.147   3.153   2.973  0.3214  0.0958  0.7824
 7367TIP3    H146296   1.135   3.240   2.936 -2.9646 -0.2541  0.7011
 7367TIP3    H246297   1.143   3.166   3.068  0.1816  0.0867  0.7783
 7368TIP3   OH246298   3.260   5.630   2.344 -0.3667  0.1314 -0.4881
 7368TIP3    H146299   3.307   5.686   2.407 -0.9036 -1.0140  1.0000
 7368TIP3    H246300   3.256   5.682   2.264  1.1400  1.2950  0.1422
 7369TIP3   OH246301   5.260   1.259   2.321 -0.2115  0.1681 -0.0722
 7369TIP3    H146302   5.322   1.209   2.374  1.2596  2.0826  0.1010
 7369TIP3    H246303   5.292   1.349   2.324 -1.2694  0.7103 -2.4821
 7370TIP3   OH246304   0.477   7.517   1.314  0.2033 -0.0210  1.1506
 7370TIP3    H146305   0.386   7.538   1.333 -0.4660 -2.9078  1.5866
 7370TIP3    H246306   0.516   7.601   1.288 -2.7916  1.1280 -0.0918
 7371TIP3   OH246307   3.487   5.322   2.499 -0.4268 -0.1730 -0.3859
 7371TIP3    H146308   3.406   5.273   2.487  0.4976 -1.4047 -1.9680
 7371TIP3    H246309   3.499   5.368   2.416  1.0418 -0.8891 -0.6005
 7372TIP3   OH246310   4.238   0.715   1.330 -0.0672 -0.2826  0.2663
 7372TIP3    H146311   4.245   0.808   1.354  1.5484 -0.6464  1.3575
 7372TIP3    H246312   4.257   0.712   1.236  0.3610  0.4437  0.3255
 7373TIP3   OH246313   0.215   0.875   2.314 -0.5907 -0.0719 -0.5311
 7373TIP3    H146314   0.268   0.797   2.331 -0.6858 -0.0600 -0.1598
 7373TIP3    H246315   0.278   0.947   2.312 -0.6568  0.0380  0.6085
 7374TIP3   OH246316   6.392   7.209   0.788 -0.2930  0.0567  0.7285
 7374TIP3    H146317   6.447   7.278   0.752  0.6323 -1.1599 -0.2865
 7374TIP3    H246318   6.437   7.127   0.764 -0.3137 -0.8845  3.5536
 7375TIP3   OH246319   0.525   4.872   1.422  0.1265 -0.1538  0.0210
 7375TIP3    H146320   0.504   4.778   1.427  1.0203 -0.4901 -1.7610
 7375TIP3    H246321   0.460   4.908   1.363  1.1795 -0.1356 -1.1652
 7376TIP3   OH246322   6.047   4.371   1.354  0.7527  0.2247  0.4978
 7376TIP3    H146323   6.017   4.285   1.384  2.3546 -1.2280 -1.7038
 7376TIP3    H246324   6.140   4.359   1.336  1.2610  2.7494  1.0646
 7377TIP3   OH246325   0.066   3.138   1.663  0.2374 -0.5800 -0.1449
 7377TIP3    H146326   0.086   3.129   1.756 -1.6208  0.3252  0.3988
 7377TIP3    H246327   0.035   3.051   1.637  0.2437 -0.6968  0.2305
 7378TIP3   OH246328   5.323   1.230   3.090 -0.1575  0.5842 -0.3969
 7378TIP3    H146329   5.313   1.312   3.139 -1.0641 -0.1579  0.7133
 7378TIP3    H246330   5.253   1.233   3.025 -0.9722  0.1950  0.4228
 7379TIP3   OH246331   6.234   0.766   1.071  0.3921 -0.0830  0.3456
 7379TIP3    H146332   6.261   0.858   1.073  0.9742 -0.2210 -0.6207
 7379TIP3    H246333   6.181   0.759   0.991  0.9096 -0.7330  0.0502
 7380TIP3   OH246334   3.328   6.104   3.179  0.4217 -0.1119  0.3057
 7380TIP3    H146335   3.380   6.102   3.098 -1.7030 -1.3279 -1.1269
 7380TIP3    H246336   3.386   6.066   3.245  1.9121  0.0731 -0.8269
 7381TIP3   OH246337   1.689   3.811   1.909 -0.0214 -0.3133 -0.4084
 7381TIP3    H146338   1.654   3.840   1.825  0.1401 -1.0887 -0.7475
 7381TIP3    H246339   1.613   3.811   1.968 -0.1677  0.0564 -0.5916
 7382TIP3   OH246340   7.665   2.891   1.576 -0.0774 -0.1667 -0.4677
 7382TIP3    H146341   7.691   2.811   1.621  0.6491  0.6684  0.6769
 7382TIP3    H246342   7.641   2.863   1.488  0.7528 -1.5488 -0.2818
 7383TIP3   OH246343   1.709   5.300   2.355  0.6937 -0.1666 -0.2777
 7383TIP3    H146344   1.614   5.288   2.349  0.8087 -1.4016  0.1184
 7383TIP3    H246345   1.721   5.395   2.366 -0.5329 -0.0835  0.4821
 7384TIP3   OH246346   0.459   1.062   3.489 -0.6271 -1.1214 -0.1979
 7384TIP3    H146347   0.549   1.073   3.460  0.3013 -1.0608  2.3920
 7384TIP3    H246348   0.409   1.129   3.441  0.4671 -1.8043 -2.3947
 7385TIP3   OH246349   3.247   4.804   0.710  0.0087  0.7447  0.5835
 7385TIP3    H146350   3.263   4.723   0.661  0.2724 -1.3344  3.7677
 7385TIP3    H246351   3.154   4.801   0.733  0.7217 -0.7914  3.8692
 7386TIP3   OH246352   4.351   1.769   0.975 -0.3135  0.5151  0.2248
 7386TIP3    H146353   4.263   1.806   0.968 -0.7695 -0.4790  0.5268
 7386TIP3    H246354   4.337   1.677   0.995  0.8077  0.3909  0.5121
 7387TIP3   OH246355   5.855   0.614   0.514 -0.1129  0.1773 -0.2285
 7387TIP3    H146356   5.922   0.576   0.457 -0.0565  0.3847 -0.3053
 7387TIP3    H246357   5.878   0.707   0.517 -1.1238  0.4823 -1.2704
 7388TIP3   OH246358   3.229   6.286   2.454 -0.4118  0.0298  0.5050
 7388TIP3    H146359   3.197   6.366   2.498  1.3685  0.3720  1.2912
 7388TIP3    H246360   3.256   6.229   2.526  2.5055  0.5635 -0.0068
 7389TIP3   OH246361   2.263   4.262   2.680 -0.5249  0.2882  0.2506
 7389TIP3    H146362   2.237   4.224   2.597 -0.3345  1.2845 -0.2805
 7389TIP3    H246363   2.190   4.242   2.739 -0.0395 -1.6438  0.2526
 7390TIP3   OH246364   6.378   1.045   1.093  0.2897  0.0485  0.1777
 7390TIP3    H146365   6.432   1.124   1.095  0.4938  0.0066 -1.6042
 7390TIP3    H246366   6.294   1.075   1.059 -0.6463 -0.0190  2.2725
 7391TIP3   OH246367   1.494   3.416   1.809  0.0827 -0.1750  0.6572
 7391TIP3    H146368   1.588   3.431   1.813  0.2048 -0.8080  0.2436
 7391TIP3    H246369   1.485   3.322   1.791 -0.6138 -0.0341  0.2227
 7392TIP3   OH246370   7.219   2.684   2.306 -0.1075 -0.8814 -0.4053
 7392TIP3    H146371   7.185   2.745   2.372  0.8820 -1.0060  0.2435
 7392TIP3    H246372   7.189   2.720   2.223 -0.9330 -0.4272  0.0746
 7393TIP3   OH246373   0.206   0.960   1.583  0.1520  0.2182 -0.4733
 7393TIP3    H146374   0.137   1.018   1.616 -0.8065 -1.4741  0.6394
 7393TIP3    H246375   0.282   0.981   1.637  0.5064  1.9193 -1.5398
 7394TIP3   OH246376   5.857   3.011   1.163 -0.0698 -0.0357  0.6371
 7394TIP3    H146377   5.855   2.938   1.100 -1.1890  0.2165  0.3632
 7394TIP3    H246378   5.766   3.038   1.172  0.4384  2.3448 -0.4687
 7395TIP3   OH246379   0.514   6.757   1.271  0.0029 -0.1485  0.0276
 7395TIP3    H146380   0.432   6.737   1.316 -0.4594  2.6694  0.5769
 7395TIP3    H246381   0.578   6.699   1.313 -1.3353 -1.0750  0.8878
 7396TIP3   OH246382   3.399   1.053   1.435 -0.5019 -0.2317  0.5302
 7396TIP3    H146383   3.398   1.003   1.353  0.6042 -0.2351  0.5096
 7396TIP3    H246384   3.415   0.987   1.503 -2.4060 -0.3866  0.8990
 7397TIP3   OH246385   0.560   0.206   2.744  0.0583 -0.3285 -0.1774
 7397TIP3    H146386   0.558   0.259   2.665  0.2160  0.9583  0.6485
 7397TIP3    H246387   0.469   0.197   2.770  0.1275  1.5555  0.9322
 7398TIP3   OH246388   0.742   1.773   1.294  0.1179 -0.2265  0.0858
 7398TIP3    H146389   0.696   1.710   1.238  1.9432 -0.2365 -1.5209
 7398TIP3    H246390   0.831   1.738   1.301  0.9097  1.6448 -0.0191
 7399TIP3   OH246391   3.562   6.880   0.909  0.7176  0.1512  0.1041
 7399TIP3    H146392   3.599   6.893   0.996 -0.5051 -1.9536  1.0481
 7399TIP3    H246393   3.637   6.884   0.850  1.7611  0.4690  1.3947
 7400TIP3   OH246394   2.250   0.150   2.845  0.2089  0.4738 -0.7169
 7400TIP3    H146395   2.279   0.237   2.873 -0.3389  0.3608  0.2618
 7400TIP3    H246396   2.173   0.132   2.900  0.8414 -0.9920 -0.2797
 7401TIP3   OH246397   7.285   7.481   0.993 -0.0828 -0.1630  0.4142
 7401TIP3    H146398   7.285   7.576   0.982  2.4976 -0.1501 -0.2775
 7401TIP3    H246399   7.365   7.463   1.043 -1.2259 -1.8922  1.7265
 7402TIP3   OH246400   4.685   7.336   2.287  0.3148 -0.3438 -0.0100
 7402TIP3    H146401   4.642   7.393   2.223  1.0539 -0.4382 -0.5984
 7402TIP3    H246402   4.671   7.380   2.371 -0.6644 -0.2177 -0.2266
 7403TIP3   OH246403   3.420   1.368   2.206 -0.1019 -0.0572  0.6412
 7403TIP3    H146404   3.359   1.363   2.132  0.6952 -2.5353  0.0393
 7403TIP3    H246405   3.499   1.407   2.169  0.1201 -0.8256  0.2719
 7404TIP3   OH246406   3.371   3.070   1.663  0.2321 -0.0645  0.0833
 7404TIP3    H146407   3.460   3.099   1.680  1.0427 -1.6192 -1.2571
 7404TIP3    H246408   3.324   3.150   1.641  2.4666  0.4186 -3.8555
 7405TIP3   OH246409   5.057   1.633   1.478  1.0705  0.1421 -0.6478
 7405TIP3    H146410   5.117   1.686   1.530  1.4213  0.0870 -0.9988
 7405TIP3    H246411   5.065   1.544   1.514  0.4528  0.3206 -0.0334
 7406TIP3   OH246412   6.247   0.022   2.449 -0.1123 -0.6967 -0.2865
 7406TIP3    H146413   6.288   0.085   2.390 -1.1089 -0.0911 -0.3550
 7406TIP3    H246414   6.289  -0.061   2.427  1.0467 -0.1144 -0.3684
 7407TIP3   OH246415   0.924   0.148   2.585 -0.4841  0.9297 -0.0778
 7407TIP3    H146416   0.932   0.155   2.490  0.3811  3.4588  0.1064
 7407TIP3    H246417   0.833   0.124   2.600 -0.8809  1.4367 -1.5271
 7408TIP3   OH246418   1.689   1.836   1.906 -0.7370  0.5579 -0.6255
 7408TIP3    H146419   1.758   1.800   1.850 -0.9798 -0.9600 -0.0113
 7408TIP3    H246420   1.628   1.762   1.919 -1.6890  1.4338  0.0529
 7409TIP3   OH246421   2.790   0.471   2.930  0.6012  0.1402 -0.4454
 7409TIP3    H146422   2.725   0.460   2.860 -0.0896  0.1693  0.1844
 7409TIP3    H246423   2.762   0.412   2.999  1.4133 -0.0593 -0.2746
 7410TIP3   OH246424   5.682   4.748   1.929 -0.2987 -0.2641  0.6835
 7410TIP3    H146425   5.611   4.783   1.983 -0.9009 -0.9929  0.3941
 7410TIP3    H246426   5.642   4.672   1.885 -0.2358  1.0169 -1.7523
 7411TIP3   OH246427   6.936   6.452   0.797 -0.2405  0.0893  0.0821
 7411TIP3    H146428   6.873   6.481   0.731 -0.5816 -2.8802 -1.0753
 7411TIP3    H246429   6.901   6.369   0.828  1.3704  0.0636  2.0147
 7412TIP3   OH246430   4.605   0.117   1.996  0.0467  0.5249 -0.3715
 7412TIP3    H146431   4.657   0.068   1.932  1.5704  1.8778 -0.2339
 7412TIP3    H246432   4.555   0.050   2.043 -0.2437 -0.6014 -2.1849
 7413TIP3   OH246433   6.297   3.426   0.488 -0.0524 -0.1268 -0.3005
 7413TIP3    H146434   6.226   3.366   0.511 -0.3811  0.2971 -0.2091
 7413TIP3    H246435   6.287   3.500   0.548 -0.5447  0.7044 -1.3939
 7414TIP3   OH246436   5.753   6.179   3.100  0.2109  0.0624  0.5709
 7414TIP3    H146437   5.693   6.131   3.043  0.2640  1.7547 -1.0050
 7414TIP3    H246438   5.798   6.112   3.151 -1.0031 -1.4015 -0.2322
 7415TIP3   OH246439   3.346   0.025   1.874  0.4286 -0.5017  1.0874
 7415TIP3    H146440   3.301   0.105   1.901 -1.5979 -1.0075 -0.5942
 7415TIP3    H246441   3.413   0.012   1.942  1.7152  3.2511  0.8027
 7416TIP3   OH246442   5.636   5.976   0.758  0.4678 -0.3985  0.4091
 7416TIP3    H146443   5.560   5.958   0.702  1.5477 -0.9773 -0.9341
 7416TIP3    H246444   5.616   5.933   0.841 -2.6400  3.1744  1.7865
 7417TIP3   OH246445   4.178   4.223   1.484  0.2321 -0.5713 -0.2804
 7417TIP3    H146446   4.189   4.168   1.561 -0.1888 -0.5950 -0.2339
 7417TIP3    H246447   4.172   4.312   1.519 -1.2852 -0.6995 -0.1648
 7418TIP3   OH246448   7.370   6.221   1.937 -0.1861  0.4358 -0.1628
 7418TIP3    H146449   7.309   6.249   1.869 -0.3890 -0.6716 -0.4523
 7418TIP3    H246450   7.323   6.237   2.019 -0.0472  1.5144 -0.2833
 7419TIP3   OH246451   3.532   2.847   0.544  0.2648 -0.6725  0.6362
 7419TIP3    H146452   3.616   2.880   0.512  0.4260 -2.1862 -0.5784
 7419TIP3    H246453   3.469   2.917   0.524  1.0332 -0.0064  0.5179
 7420TIP3   OH246454   6.200   6.298   0.876  0.2651 -0.6407  0.1453
 7420TIP3    H146455   6.167   6.314   0.965  0.6654  0.0423  0.1759
 7420TIP3    H246456   6.184   6.380   0.829  1.6008 -0.4008  0.0687
 7421TIP3   OH246457   1.489   0.049   0.722  0.3879 -0.0893  0.4596
 7421TIP3    H146458   1.506   0.095   0.805 -1.6538  0.6458  0.5078
 7421TIP3    H246459   1.501  -0.044   0.744  1.9152  0.2013  1.0229
 7422TIP3   OH246460   6.700   6.713   2.284  0.6710 -0.3846  0.6531
 7422TIP3    H146461   6.611   6.748   2.271  1.3617  1.5749  0.8271
 7422TIP3    H246462   6.697   6.626   2.245 -1.0873 -0.0277 -0.1371
 7423TIP3   OH246463   3.617   2.612   2.191 -0.0957 -0.0056 -0.2558
 7423TIP3    H146464   3.689   2.586   2.248  0.3166  0.1701 -0.6982
 7423TIP3    H246465   3.648   2.594   2.102  0.0889  1.7253 -0.5672
 7424TIP3   OH246466   5.985   6.226   2.771 -0.0317  0.2881  0.0846
 7424TIP3    H146467   5.995   6.162   2.841 -0.6382 -0.0972 -0.1772
 7424TIP3    H246468   5.919   6.287   2.803  1.3933  1.5264  0.8532
 7425TIP3   OH246469   4.980   2.589   1.106 -0.1622 -0.0063 -0.5206
 7425TIP3    H146470   5.042   2.516   1.099 -1.1106 -1.0010  1.0481
 7425TIP3    H246471   4.895   2.550   1.087 -0.7444  0.5635  0.8184
 7426TIP3   OH246472   5.506   1.870   2.479  0.0142  0.1158 -0.2265
 7426TIP3    H146473   5.538   1.904   2.395  1.2115 -2.6190 -0.9783
 7426TIP3    H246474   5.585   1.860   2.532 -0.5888  0.6466  0.8037
 7427TIP3   OH246475   1.014   7.006   2.149  0.0681  0.4984  0.8565
 7427TIP3    H146476   0.974   6.923   2.125 -0.1370  0.6677  0.6010
 7427TIP3    H246477   1.041   6.995   2.240 -0.1322  0.2219  0.8818
 7428TIP3   OH246478   7.294   3.073   1.053 -0.2045 -0.1055  0.1567
 7428TIP3    H146479   7.218   3.054   0.998  1.5155 -0.1531 -2.3594
 7428TIP3    H246480   7.311   3.166   1.040  1.0557 -0.4100 -0.5845
 7429TIP3   OH246481   6.714   3.446   2.390  0.3708  0.1166 -0.7477
 7429TIP3    H146482   6.750   3.535   2.383  1.4889 -0.1692  0.7883
 7429TIP3    H246483   6.781   3.397   2.438  0.4625 -1.9656 -2.8052
 7430TIP3   OH246484   1.213   5.595   1.347  0.3049  0.0808 -0.1784
 7430TIP3    H146485   1.224   5.689   1.336  2.7244 -0.0122  0.8572
 7430TIP3    H246486   1.292   5.557   1.307  0.0726 -1.3972  0.6936
 7431TIP3   OH246487   2.165   2.347   1.071 -0.4031  0.2051 -0.5110
 7431TIP3    H146488   2.220   2.310   1.140 -0.5854  2.1509  0.7801
 7431TIP3    H246489   2.212   2.328   0.990  0.2562 -1.3982  0.2061
 7432TIP3   OH246490   4.531   3.273   1.123  0.3492  0.8708  0.1355
 7432TIP3    H146491   4.488   3.345   1.077 -1.0926 -0.6949 -1.1401
 7432TIP3    H246492   4.596   3.240   1.060  0.0905  0.2713  0.1676
 7433TIP3   OH246493   5.048   1.592   1.781 -0.1250 -0.2830 -0.3131
 7433TIP3    H146494   5.026   1.654   1.712  1.2880 -0.2976 -0.8104
 7433TIP3    H246495   4.971   1.590   1.838 -1.2824 -0.2042 -1.8302
 7434TIP3   OH246496   6.814   5.734   2.577  0.6617  0.4029  0.4002
 7434TIP3    H146497   6.856   5.707   2.496  0.1219  2.1238 -0.4924
 7434TIP3    H246498   6.868   5.807   2.609 -0.6933  1.5903  0.0750
 7435TIP3   OH246499   4.771   0.783   3.698 -0.0063 -0.1443  0.7417
 7435TIP3    H146500   4.847   0.816   3.650 -1.1043  1.8324  0.2611
 7435TIP3    H246501   4.803   0.771   3.787  0.9317  0.4735  0.5065
 7436TIP3   OH246502   4.731   3.957   2.892 -0.1326  0.3380  0.0929
 7436TIP3    H146503   4.654   3.902   2.876  0.9647 -1.2441  0.0243
 7436TIP3    H246504   4.755   3.990   2.805 -1.6172  2.1417  0.3125
 7437TIP3   OH246505   6.236   3.016   1.616  0.5184 -0.0698 -0.1055
 7437TIP3    H146506   6.191   3.097   1.642 -0.4935 -0.9697  1.0516
 7437TIP3    H246507   6.270   3.034   1.529 -2.4125  0.5246 -1.2201
 7438TIP3   OH246508   7.212   0.989   0.901  0.1170  0.4390 -0.2242
 7438TIP3    H146509   7.122   0.974   0.874 -0.3083  1.1200  0.7242
 7438TIP3    H246510   7.232   0.916   0.960 -1.0867  2.0634  2.3984
 7439TIP3   OH246511   6.202   0.553   1.866  0.2350 -0.0934  0.3960
 7439TIP3    H146512   6.296   0.570   1.861  0.0249  0.8411 -0.6380
 7439TIP3    H246513   6.166   0.627   1.914 -0.2165  0.6227 -0.9870
 7440TIP3   OH246514   6.291   5.611   1.000  0.1614  0.1376 -0.3486
 7440TIP3    H146515   6.307   5.560   0.921  0.2239 -0.4182  0.0160
 7440TIP3    H246516   6.300   5.702   0.972 -1.1325  0.0151 -1.2843
 7441TIP3   OH246517   7.341   2.880   0.843 -0.1054  0.0693  0.0484
 7441TIP3    H146518   7.251   2.910   0.832 -0.1857  0.0030  0.5215
 7441TIP3    H246519   7.348   2.859   0.936 -0.0997 -1.5609 -0.3036
 7442TIP3   OH246520   1.144   4.714   0.871 -0.1596  0.5339  0.4147
 7442TIP3    H146521   1.136   4.802   0.910 -0.1891  1.5876 -1.7899
 7442TIP3    H246522   1.232   4.712   0.834  0.2698 -0.8550  1.4284
 7443TIP3   OH246523   4.992   3.766   0.879  0.0876  0.1533  0.4412
 7443TIP3    H146524   5.002   3.716   0.960  2.0312 -0.0512  0.1113
 7443TIP3    H246525   5.055   3.726   0.819 -2.3134 -0.6708 -1.7022
 7444TIP3   OH246526   5.249   5.094   2.118  0.1663 -0.6181 -0.5837
 7444TIP3    H146527   5.318   5.151   2.150  0.1186 -1.6736  1.5947
 7444TIP3    H246528   5.295   5.020   2.079  0.3226 -1.3333  0.8903
 7445TIP3   OH246529   1.365   6.154   2.347 -0.2169 -0.0504  0.0241
 7445TIP3    H146530   1.429   6.152   2.276 -0.2418 -1.4077  0.0045
 7445TIP3    H246531   1.377   6.070   2.392 -1.8665 -0.2667  0.1182
 7446TIP3   OH246532   5.903   0.130   2.964  0.2686 -0.1168  0.1101
 7446TIP3    H146533   5.984   0.182   2.966  0.1005  0.1381  1.4885
 7446TIP3    H246534   5.884   0.119   2.871  2.4566 -1.0680 -0.2995
 7447TIP3   OH246535   6.775   0.829   0.790 -0.2320  0.3982 -0.5399
 7447TIP3    H146536   6.720   0.779   0.851 -0.9839  1.8525  0.0136
 7447TIP3    H246537   6.714   0.859   0.722  0.3778 -0.1734 -1.3584
 7448TIP3   OH246538   1.596   5.301   3.438  0.4803  0.0440  0.0068
 7448TIP3    H146539   1.588   5.393   3.413  2.5861  0.2717  0.0373
 7448TIP3    H246540   1.548   5.254   3.370 -2.1172  1.1942  0.8967
 7449TIP3   OH246541   3.685   0.121   0.722 -0.0659 -0.0892 -0.1878
 7449TIP3    H146542   3.757   0.169   0.680 -0.8879  1.4831  0.1371
 7449TIP3    H246543   3.712   0.113   0.813  0.0396 -0.2023 -0.2278
 7450TIP3   OH246544   3.501   6.908   1.680 -0.1185 -0.2674  0.3988
 7450TIP3    H146545   3.532   6.911   1.770  0.6051  1.1200  0.1340
 7450TIP3    H246546   3.487   6.815   1.661  1.5953 -0.7379  1.3027
 7451TIP3   OH246547   1.861   7.646   1.715 -0.0634  0.4446 -0.2854
 7451TIP3    H146548   1.944   7.635   1.669  1.5890 -1.9218  2.8385
 7451TIP3    H246549   1.870   7.729   1.762  0.4698  0.3087 -0.1434
 7452TIP3   OH246550   2.525   5.996   0.602 -0.0716  0.0673 -0.7181
 7452TIP3    H146551   2.494   5.999   0.512 -0.4931  0.7569 -0.5608
 7452TIP3    H246552   2.489   5.914   0.637 -1.8781  0.8959 -0.5119
 7453TIP3   OH246553   2.578   6.533   0.908 -0.0929 -0.7445  0.3794
 7453TIP3    H146554   2.667   6.499   0.893  0.3151  0.4736 -0.1265
 7453TIP3    H246555   2.556   6.578   0.826 -0.6540  0.0756  0.9641
 7454TIP3   OH246556   0.628   7.425   0.715  0.5160 -0.3828  0.4698
 7454TIP3    H146557   0.542   7.405   0.678  1.0683 -1.7039 -0.1447
 7454TIP3    H246558   0.632   7.375   0.796  1.1289 -1.2754 -0.0833
 7455TIP3   OH246559   2.518   1.083   1.375 -0.5274  0.0281 -0.7833
 7455TIP3    H146560   2.564   1.063   1.456  0.8421 -1.3213 -1.8214
 7455TIP3    H246561   2.524   1.178   1.366 -1.8078  0.3596  1.2634
 7456TIP3   OH246562   3.756   2.547   1.973 -0.3243 -0.0314  0.5025
 7456TIP3    H146563   3.758   2.501   1.889 -0.1158 -1.4750  1.2622
 7456TIP3    H246564   3.811   2.624   1.959  0.1060 -0.5049 -0.5472
 7457TIP3   OH246565   2.223   0.171   2.402  0.1355 -1.1592 -0.0864
 7457TIP3    H146566   2.161   0.170   2.329 -0.2369  0.5274  0.1513
 7457TIP3    H246567   2.283   0.243   2.381  2.7807 -3.4327 -0.8617
 7458TIP3   OH246568   6.075   3.231   2.203  0.3852 -0.0421  0.2352
 7458TIP3    H146569   6.137   3.290   2.247  0.4050 -0.9895  1.5739
 7458TIP3    H246570   6.026   3.191   2.275  0.3197 -1.5818 -0.6147
 7459TIP3   OH246571   4.651   0.384   2.845 -0.1841  0.1034 -0.3961
 7459TIP3    H146572   4.596   0.322   2.798 -1.5460  0.8578  0.1446
 7459TIP3    H246573   4.674   0.339   2.927 -2.4417  0.8010  0.7027
 7460TIP3   OH246574   1.356   1.325   2.251  0.0105 -0.1928  0.0887
 7460TIP3    H146575   1.387   1.238   2.229  0.0969  0.1663 -1.2571
 7460TIP3    H246576   1.357   1.327   2.347  1.6390 -1.0836  0.1213
 7461TIP3   OH246577   7.108   5.709   2.094  0.0171 -0.4111 -0.3617
 7461TIP3    H146578   7.197   5.694   2.063  0.8398  2.4817  0.2490
 7461TIP3    H246579   7.059   5.733   2.015  0.4791  0.5525 -0.3755
 7462TIP3   OH246580   3.353   2.668   2.176  0.7546  0.6198  0.2227
 7462TIP3    H146581   3.307   2.629   2.251  0.4921  0.0439 -0.2326
 7462TIP3    H246582   3.445   2.657   2.197  0.7406 -1.9472 -0.7026
 7463TIP3   OH246583   5.620   1.348   1.262  0.0998 -0.3757 -0.4122
 7463TIP3    H146584   5.578   1.423   1.305  1.1230 -0.5540  0.9605
 7463TIP3    H246585   5.551   1.282   1.259 -0.4797  0.2159 -0.5987
 7464TIP3   OH246586   5.464   0.360   3.705  0.3147 -0.0926 -0.7434
 7464TIP3    H146587   5.531   0.297   3.731 -0.1274 -0.7526 -1.1462
 7464TIP3    H246588   5.399   0.307   3.657 -0.8779  0.3788  0.2937
 7465TIP3   OH246589   6.995   0.774   2.146  0.1012  0.3672  0.1286
 7465TIP3    H146590   6.928   0.708   2.164  0.6458 -0.3547 -0.4059
 7465TIP3    H246591   7.041   0.741   2.069  1.2850  0.6849  0.6780
 7466TIP3   OH246592   4.572   1.256   2.925  0.5076  0.6682  0.1954
 7466TIP3    H146593   4.581   1.352   2.925 -0.0520  0.7306 -0.3540
 7466TIP3    H246594   4.610   1.228   3.008 -1.1364  1.5549  1.2932
 7467TIP3   OH246595   4.775   2.322   1.420 -0.1569 -0.7447  0.1395
 7467TIP3    H146596   4.722   2.386   1.371 -0.8130 -1.5856 -0.2919
 7467TIP3    H246597   4.834   2.285   1.354 -0.2727 -1.0892  0.2285
 7468TIP3   OH246598   3.847   2.922   3.576  0.1432 -0.4558  0.2102
 7468TIP3    H146599   3.858   3.010   3.610  2.8075 -0.4168 -0.5067
 7468TIP3    H246600   3.836   2.867   3.654  0.5876  0.2759  0.7986
 7469TIP3   OH246601   4.571   1.267   1.466 -0.1236 -0.5389  0.5148
 7469TIP3    H146602   4.593   1.220   1.386 -0.3098  0.6200 -0.2490
 7469TIP3    H246603   4.655   1.280   1.510  0.3285  0.7577 -0.6302
 7470TIP3   OH246604   4.502   0.254   1.412 -0.5452 -0.6978 -0.2481
 7470TIP3    H146605   4.464   0.333   1.373 -0.2092  0.7689  2.2117
 7470TIP3    H246606   4.592   0.253   1.379 -0.6206 -0.1694 -0.4876
 7471TIP3   OH246607   5.892   5.315   1.518  0.0453 -0.2878 -0.3013
 7471TIP3    H146608   5.872   5.256   1.446 -0.8372 -0.5094  0.1108
 7471TIP3    H246609   5.881   5.402   1.482 -0.6132 -0.3995 -0.3903
 7472TIP3   OH246610   1.164   2.406   2.318  0.2343  0.0534  0.0452
 7472TIP3    H146611   1.210   2.343   2.262 -0.3689 -0.7110  0.3910
 7472TIP3    H246612   1.227   2.429   2.385 -0.7980 -3.6308  2.6143
 7473TIP3   OH246613   2.013   4.587   1.798 -0.2139 -0.6770 -0.3406
 7473TIP3    H146614   1.986   4.675   1.826  1.7488 -0.4763  1.0998
 7473TIP3    H246615   1.931   4.538   1.792 -1.1104  0.3902  1.9567
 7474TIP3   OH246616   4.770   6.978   2.679 -0.2525 -0.1673 -0.4769
 7474TIP3    H146617   4.732   6.899   2.639  1.8028 -0.2785 -2.3916
 7474TIP3    H246618   4.709   7.048   2.657 -1.2256 -0.9192 -0.2541
 7475TIP3   OH246619   0.860   0.089   0.417  0.6473  0.7050  0.9097
 7475TIP3    H146620   0.853   0.178   0.453  0.4408  0.8982  0.4042
 7475TIP3    H246621   0.929   0.048   0.468  1.6667  1.5926  0.2790
 7476TIP3   OH246622   4.543   5.443   1.045  0.1808 -0.0081 -0.6704
 7476TIP3    H146623   4.566   5.518   0.991  1.0342 -0.8133 -1.4583
 7476TIP3    H246624   4.583   5.368   1.000 -0.6215 -0.9267  0.1105
 7477TIP3   OH246625   2.841   7.536   1.190 -0.2039 -0.4622 -0.7819
 7477TIP3    H146626   2.757   7.573   1.218 -0.8753 -0.7240 -2.3469
 7477TIP3    H246627   2.860   7.581   1.108  0.7687 -1.0484 -0.8902
 7478TIP3   OH246628   3.580   0.500   1.463  0.4938  0.0902 -0.7860
 7478TIP3    H146629   3.499   0.548   1.482  0.5230 -0.3015  0.3699
 7478TIP3    H246630   3.552   0.432   1.401  0.4375  1.4904 -2.3789
 7479TIP3   OH246631   1.507   4.139   7.237 -0.2263  0.3272  0.6382
 7479TIP3    H146632   1.440   4.071   7.249 -1.2777  1.0361 -0.8906
 7479TIP3    H246633   1.479   4.186   7.159  1.4081  1.4559  0.6932
 7480TIP3   OH246634   3.567   0.837   1.604  0.2720  0.6226  0.1945
 7480TIP3    H146635   3.624   0.826   1.679  0.8956  1.1567 -0.1874
 7480TIP3    H246636   3.622   0.879   1.537  0.3077 -1.5891 -1.2548
 7481TIP3   OH246637   0.279   4.432   0.963 -0.3613 -0.2322 -0.0217
 7481TIP3    H146638   0.204   4.439   1.021  1.5607 -1.5561  2.8626
 7481TIP3    H246639   0.292   4.338   0.951 -0.2624 -0.0102 -2.1078
 7482TIP3   OH246640   2.226   5.716   1.634 -0.6082  0.1144  0.0382
 7482TIP3    H146641   2.185   5.636   1.668  0.1598  0.1549  1.0871
 7482TIP3    H246642   2.312   5.688   1.603 -0.4221  0.5046  0.2037
 7483TIP3   OH246643   4.359   7.149   1.035  0.1930 -0.2065  0.0304
 7483TIP3    H146644   4.268   7.163   1.008 -0.0212 -0.0988  0.7940
 7483TIP3    H246645   4.403   7.231   1.014  0.1792 -0.3547 -0.5952
 7484TIP3   OH246646   0.259   0.800   1.063 -0.2538 -0.3827 -0.2423
 7484TIP3    H146647   0.255   0.853   1.143  0.4212 -0.6978  0.0091
 7484TIP3    H246648   0.182   0.743   1.068  1.0285 -2.1201  1.4474
 7485TIP3   OH246649   7.119   6.649   2.352  0.7293  0.1150  0.4138
 7485TIP3    H146650   7.125   6.623   2.444  1.6163 -0.7401  0.1314
 7485TIP3    H246651   7.066   6.581   2.310 -0.7402  1.1595  0.5080
 7486TIP3   OH246652   3.535   2.729   1.724 -0.0481 -0.3453  0.3038
 7486TIP3    H146653   3.526   2.639   1.756 -4.8144 -0.2673 -0.1978
 7486TIP3    H246654   3.556   2.719   1.631  0.5115 -0.8508  0.4753
 7487TIP3   OH246655   4.519   6.187   1.420  0.6993  0.3799 -0.7569
 7487TIP3    H146656   4.425   6.202   1.408  0.4061  3.1686  3.2178
 7487TIP3    H246657   4.560   6.243   1.354 -0.4827  1.8010 -0.3373
 7488TIP3   OH246658   6.349   4.847   1.234  0.2940  0.8055 -0.1219
 7488TIP3    H146659   6.274   4.828   1.178 -0.4473  2.1110  0.3956
 7488TIP3    H246660   6.321   4.824   1.322  1.0699 -0.1772 -0.1091
 7489TIP3   OH246661   0.027   1.125   1.094  0.3517 -0.1028 -0.0617
 7489TIP3    H146662   0.119   1.106   1.077  0.3003 -0.8304  0.4313
 7489TIP3    H246663   0.029   1.199   1.155  0.6530 -0.9216  0.9563
 7490TIP3   OH246664   0.535   3.479   1.577 -0.6292  0.0487  0.0865
 7490TIP3    H146665   0.445   3.454   1.554 -0.6351  0.1798 -0.0378
 7490TIP3    H246666   0.590   3.430   1.515 -0.6841  1.0130 -0.7540
 7491TIP3   OH246667   4.277   4.133   2.691 -0.3050  0.7552  0.1276
 7491TIP3    H146668   4.334   4.077   2.744 -0.8851  0.3240  0.3064
 7491TIP3    H246669   4.202   4.151   2.748 -1.3484 -0.4115 -0.8272
 7492TIP3   OH246670   3.530   4.653   0.788 -0.3039  0.2182  0.1942
 7492TIP3    H146671   3.557   4.680   0.700 -0.8541 -1.6223 -0.5798
 7492TIP3    H246672   3.435   4.662   0.787 -0.7280 -3.0168 -0.6587
 7493TIP3   OH246673   2.218   0.797   2.972  0.6617 -0.3780  0.4943
 7493TIP3    H146674   2.230   0.884   3.011  1.5204 -0.1841 -0.1724
 7493TIP3    H246675   2.227   0.737   3.046 -2.4999  0.1521  1.4798
 7494TIP3   OH246676   1.633   1.805   0.842 -0.2065  0.5109 -0.7586
 7494TIP3    H146677   1.697   1.738   0.865  0.3426  0.8747 -1.1953
 7494TIP3    H246678   1.615   1.851   0.925 -0.3908 -0.0050 -0.5111
 7495TIP3   OH246679   3.888   2.327   2.964 -0.3111  0.0165 -0.3540
 7495TIP3    H146680   3.870   2.421   2.951 -0.5523  0.0519  0.2028
 7495TIP3    H246681   3.896   2.317   3.058  1.4573 -0.2216 -0.4910
 7496TIP3   OH246682   5.520   6.533   2.404  0.5180  0.3375 -0.0336
 7496TIP3    H146683   5.575   6.467   2.445  0.7821  0.9344  0.5795
 7496TIP3    H246684   5.566   6.615   2.417 -0.0685  0.7211 -0.3182
 7497TIP3   OH246685   4.078   1.303   1.703  0.2310 -0.1647 -0.4704
 7497TIP3    H146686   4.006   1.358   1.673  1.3978  0.6921 -1.8436
 7497TIP3    H246687   4.051   1.214   1.683 -1.3177 -0.0763  0.9922
 7498TIP3   OH246688   1.513   4.720   1.971  0.4603 -0.3900 -0.4888
 7498TIP3    H146689   1.427   4.740   2.008  0.8838 -0.1208  0.3810
 7498TIP3    H246690   1.566   4.694   2.046  0.7732 -1.8749 -1.2019
 7499TIP3   OH246691   6.927   2.196   1.710  0.2335  0.6550  0.1775
 7499TIP3    H146692   6.865   2.257   1.751 -0.2910 -0.8246  1.6824
 7499TIP3    H246693   7.002   2.194   1.770 -0.2383 -1.0002  0.7452
 7500TIP3   OH246694   2.189   6.882   2.454  0.0631 -0.3615  0.4001
 7500TIP3    H146695   2.141   6.964   2.467 -1.8620 -1.3129 -0.3229
 7500TIP3    H246696   2.227   6.890   2.367 -1.0715 -0.6472 -0.1429
 7501TIP3   OH246697   4.787   0.750   2.322 -0.0664 -0.0232  0.5619
 7501TIP3    H146698   4.869   0.757   2.370  0.2498 -0.1018  0.0314
 7501TIP3    H246699   4.780   0.657   2.299  0.0776  0.1210 -0.0674
 7502TIP3   OH246700   1.464   6.929   2.519  0.1647 -0.0834 -0.0909
 7502TIP3    H146701   1.412   6.874   2.460 -0.3996  0.9334 -0.5820
 7502TIP3    H246702   1.432   6.908   2.606  0.2329 -0.8107 -0.2343
 7503TIP3   OH246703   1.437   6.005   0.785  0.1729 -0.3145 -0.0130
 7503TIP3    H146704   1.483   6.074   0.833  1.3267  0.0534 -1.5586
 7503TIP3    H246705   1.456   5.925   0.835  0.1792  0.2393  0.8967
 7504TIP3   OH246706   2.953   6.224   0.816  0.4279  0.4595 -0.1979
 7504TIP3    H146707   2.961   6.299   0.757  0.8556  0.1641 -0.5190
 7504TIP3    H246708   2.897   6.256   0.887 -0.5783  0.6355 -1.0463
 7505TIP3   OH246709   1.459   1.928   2.156 -0.3194 -0.1948 -0.2723
 7505TIP3    H146710   1.425   1.945   2.244 -0.1890 -3.1427  0.4554
 7505TIP3    H246711   1.514   2.004   2.137 -2.3948  1.8005  1.0316
 7506TIP3   OH246712   5.101   6.659   0.971 -0.7735  0.5257 -0.0177
 7506TIP3    H146713   5.120   6.622   0.885  1.8040  3.6218 -0.9795
 7506TIP3    H246714   5.178   6.637   1.024 -0.5878  1.8161  0.2836
 7507TIP3   OH246715   0.087   3.149   2.046 -0.1185  0.3700 -0.1677
 7507TIP3    H146716   0.167   3.171   1.997  2.3837 -3.3472  1.7790
 7507TIP3    H246717   0.076   3.221   2.108  1.1751  1.4015 -1.0771
 7508TIP3   OH246718   4.692   0.906   1.580 -0.1141 -0.2963 -0.4932
 7508TIP3    H146719   4.612   0.919   1.631  0.2412  0.0209 -0.0041
 7508TIP3    H246720   4.756   0.966   1.620  0.1534  0.0205 -1.3623
 7509TIP3   OH246721   6.059   6.073   0.812 -0.0779  0.3242 -0.0513
 7509TIP3    H146722   6.119   6.147   0.802  0.9596 -0.2292  1.6010
 7509TIP3    H246723   5.999   6.080   0.738  0.1185  2.6712 -0.0611
 7510TIP3   OH246724   0.724   2.737   3.078  0.2139  0.3433 -0.5151
 7510TIP3    H146725   0.740   2.712   3.169  1.6170  0.0386 -0.8110
 7510TIP3    H246726   0.790   2.805   3.060  1.2350 -0.9303 -1.8435
 7511TIP3   OH246727   6.765   3.719   2.420 -0.3507 -0.6939  0.4335
 7511TIP3    H146728   6.860   3.730   2.424 -0.4539  0.6865 -0.2313
 7511TIP3    H246729   6.731   3.782   2.484 -0.9096  1.3174 -1.7252
 7512TIP3   OH246730   2.103   3.710   1.397  0.3244 -0.4168 -0.3464
 7512TIP3    H146731   2.020   3.665   1.411  0.6817 -0.3776  2.7382
 7512TIP3    H246732   2.112   3.717   1.302 -1.6304 -3.3050 -0.8577
 7513TIP3   OH246733   3.884   0.441   1.397  0.1478  0.2046  0.3157
 7513TIP3    H146734   3.797   0.400   1.400  1.3700 -2.7414 -0.7123
 7513TIP3    H246735   3.866   0.535   1.399 -3.0697 -0.2748 -0.2064
 7514TIP3   OH246736   3.279   2.844   1.484 -0.0993 -0.3894 -0.5775
 7514TIP3    H146737   3.321   2.928   1.504 -0.1746 -0.3317 -0.6630
 7514TIP3    H246738   3.350   2.791   1.446 -0.3724  0.1103 -1.8395
 7515TIP3   OH246739   1.117   0.813   2.570  0.1103  0.1177 -0.5813
 7515TIP3    H146740   1.175   0.880   2.608 -0.3632 -0.8674  2.0336
 7515TIP3    H246741   1.071   0.775   2.644 -2.3961 -0.6080 -2.3642
 7516TIP3   OH246742   2.318   7.091   3.345 -0.4097 -0.3009  0.5042
 7516TIP3    H146743   2.334   7.178   3.381  0.3991  0.3161 -1.2332
 7516TIP3    H246744   2.271   7.107   3.263  3.9892 -0.9783 -2.4851
 7517TIP3   OH246745   5.872   7.583   1.526 -0.4512  0.3415 -0.2538
 7517TIP3    H146746   5.964   7.593   1.550 -0.6128 -0.5526  0.8676
 7517TIP3    H246747   5.866   7.495   1.489 -0.7608  0.6029 -0.8395
 7518TIP3   OH246748   7.606   5.557   1.692  0.5061  0.0577  0.0355
 7518TIP3    H146749   7.657   5.548   1.612 -0.9859  1.0728 -1.1033
 7518TIP3    H246750   7.596   5.468   1.725  0.8756 -0.4156 -1.0833
 7519TIP3   OH246751   3.100   4.749   1.247  0.1954 -0.1781 -0.4601
 7519TIP3    H146752   3.195   4.733   1.253  0.6109  1.8451 -0.9844
 7519TIP3    H246753   3.086   4.831   1.294 -1.5755 -1.2171  0.9312
 7520TIP3   OH246754   3.494   1.461   0.836  0.0675  0.0555 -0.0384
 7520TIP3    H146755   3.511   1.375   0.797 -0.1562  0.7621 -1.7939
 7520TIP3    H246756   3.580   1.496   0.858  0.0925 -1.2402  2.2344
 7521TIP3   OH246757   3.061   2.074   2.917 -0.2901 -0.1033 -0.1320
 7521TIP3    H146758   2.987   2.022   2.887 -0.2495 -1.0842  1.3340
 7521TIP3    H246759   3.022   2.156   2.948 -0.3853  0.6758 -2.1631
 7522TIP3   OH246760   1.657   2.230   1.236  0.2692 -0.0092  0.0618
 7522TIP3    H146761   1.639   2.151   1.288 -1.2411  0.0410 -0.3266
 7522TIP3    H246762   1.714   2.199   1.165  0.7315 -0.4850  0.6323
 7523TIP3   OH246763   1.332   0.421   3.431  0.1251 -0.0505 -0.4598
 7523TIP3    H146764   1.275   0.349   3.458  1.4301 -0.9935 -0.1196
 7523TIP3    H246765   1.304   0.443   3.343  0.7701 -2.1157 -1.2200
 7524TIP3   OH246766   5.483   0.705   2.044  0.4778  0.1491  0.1468
 7524TIP3    H146767   5.514   0.763   1.974 -0.5501  0.8466  0.2443
 7524TIP3    H246768   5.407   0.661   2.007 -0.4651  1.0035  1.0119
 7525TIP3   OH246769   5.273   7.020   0.758  0.0192  0.2854 -0.7786
 7525TIP3    H146770   5.324   7.068   0.693  0.2930 -1.9160 -2.3155
 7525TIP3    H246771   5.184   7.053   0.748  0.0817  0.0938 -2.2413
 7526TIP3   OH246772   0.151   4.201   0.799 -0.2809  0.8916  0.2331
 7526TIP3    H146773   0.103   4.128   0.761  1.2618  0.2961 -0.6605
 7526TIP3    H246774   0.161   4.263   0.726  0.9504  0.6447  0.1649
 7527TIP3   OH246775   4.772   5.448   1.230 -0.0241  0.0681  0.1360
 7527TIP3    H146776   4.712   5.417   1.162  0.7410 -0.3758 -0.3493
 7527TIP3    H246777   4.717   5.456   1.308 -0.7464 -0.1819 -0.3310
 7528TIP3   OH246778   6.976   0.080   2.825 -0.3374  0.5847  0.1868
 7528TIP3    H146779   6.953   0.161   2.779  0.7044  0.4994 -0.4901
 7528TIP3    H246780   7.036   0.034   2.767 -0.6389 -0.5302  0.7161
 7529TIP3   OH246781   7.399   6.441   1.072  0.3350  0.1124  0.0982
 7529TIP3    H146782   7.367   6.527   1.100 -1.1483 -0.4389  0.2302
 7529TIP3    H246783   7.380   6.384   1.146 -0.3217 -0.6519 -0.6311
 7530TIP3   OH246784   5.402   0.419   0.578  0.2297  0.5728 -0.2680
 7530TIP3    H146785   5.446   0.485   0.630 -0.0670 -0.0899  0.8685
 7530TIP3    H246786   5.468   0.351   0.563  0.0155  0.2507  0.2053
 7531TIP3   OH246787   2.449   3.365   3.134 -0.2642  0.4252 -0.1661
 7531TIP3    H146788   2.429   3.449   3.175  0.2202 -0.3399  1.7273
 7531TIP3    H246789   2.364   3.320   3.131 -0.2502  0.3598  0.3225
 7532TIP3   OH246790   7.569   2.086   2.997 -0.4563  0.6730  0.1493
 7532TIP3    H146791   7.536   2.137   2.923 -1.8990 -0.0255  0.2802
 7532TIP3    H246792   7.549   2.140   3.074  1.2872  1.5245  0.0555
 7533TIP3   OH246793   4.822   3.370   1.158  0.1229 -0.3044  0.0967
 7533TIP3    H146794   4.734   3.407   1.148 -0.2850 -1.4694 -0.9577
 7533TIP3    H246795   4.808   3.287   1.203  0.7371 -0.3101  0.2820
 7534TIP3   OH246796   7.172   1.693   2.562 -0.4938  0.5618  0.3802
 7534TIP3    H146797   7.088   1.699   2.607 -0.3635 -0.0350  0.7153
 7534TIP3    H246798   7.164   1.753   2.487  0.0553  3.3852  2.3891
 7535TIP3   OH246799   0.310   2.339   0.925  0.5179  0.0445  0.1821
 7535TIP3    H146800   0.308   2.245   0.911  0.8228  0.2669 -1.6841
 7535TIP3    H246801   0.218   2.365   0.926  0.4401  0.0091 -1.9157
 7536TIP3   OH246802   6.778   6.854   0.787  0.5610 -0.4895  0.2493
 7536TIP3    H146803   6.769   6.823   0.877  0.4881 -1.5289 -0.1015
 7536TIP3    H246804   6.846   6.921   0.791 -0.8669  0.9713  1.4119
 7537TIP3   OH246805   2.204   6.863   1.016  0.1084  0.3718 -0.2374
 7537TIP3    H146806   2.157   6.945   1.029  0.4005  0.5093 -0.0243
 7537TIP3    H246807   2.185   6.838   0.926 -0.9931  0.0268  0.0776
 7538TIP3   OH246808   4.633   3.962   1.026 -0.3706 -0.1292  0.0368
 7538TIP3    H146809   4.704   4.023   1.045 -0.4240 -0.0654  0.0327
 7538TIP3    H246810   4.557   4.018   1.011 -0.5840 -0.2285  0.7271
 7539TIP3   OH246811   5.885   6.406   3.123 -0.0530 -0.2978 -0.7389
 7539TIP3    H146812   5.892   6.424   3.217  0.9347  0.4116 -0.9269
 7539TIP3    H246813   5.843   6.320   3.118  0.4167 -0.6162  0.3651
 7540TIP3   OH246814   2.890   0.340   1.087  0.4552 -0.8428  0.5599
 7540TIP3    H146815   2.880   0.401   1.160 -1.8968  0.0737 -0.4335
 7540TIP3    H246816   2.807   0.292   1.085  1.1088 -1.9822 -0.5292
 7541TIP3   OH246817   3.793   6.436   1.858 -0.6557 -0.1347  0.7288
 7541TIP3    H146818   3.767   6.379   1.785 -0.0474 -0.0666  0.4581
 7541TIP3    H246819   3.886   6.420   1.869 -0.1671  1.7459 -0.2098
 7542TIP3   OH246820   7.601   6.877   2.323  0.4089 -0.1839  0.4582
 7542TIP3    H146821   7.566   6.791   2.347  0.0574 -0.3310 -0.5287
 7542TIP3    H246822   7.671   6.894   2.386  0.2117 -1.0130  0.9053
 7543TIP3   OH246823   2.681   0.332   3.120 -0.0425 -0.5700 -0.5962
 7543TIP3    H146824   2.667   0.240   3.101  0.9558 -0.4573 -2.0130
 7543TIP3    H246825   2.600   0.361   3.161 -0.3660 -2.0679 -0.1376
 7544TIP3   OH246826   4.573   3.064   1.514 -0.4565  0.0980  0.1219
 7544TIP3    H146827   4.627   3.007   1.569 -0.6836 -1.5577 -1.2755
 7544TIP3    H246828   4.630   3.090   1.442 -0.8611  0.2112 -0.1661
 7545TIP3   OH246829   5.790   0.022   2.318  0.2132 -0.0044  1.0135
 7545TIP3    H146830   5.792   0.008   2.224  1.3806  0.2417  0.9992
 7545TIP3    H246831   5.860  -0.034   2.353  0.7137  0.9618  1.5906
 7546TIP3   OH246832   4.718   3.318   2.118 -0.1022 -0.0459  0.1014
 7546TIP3    H146833   4.674   3.330   2.034  1.4420  1.6849 -0.5335
 7546TIP3    H246834   4.808   3.293   2.094  0.3267  0.3394  1.2365
 7547TIP3   OH246835   7.021   7.351   0.682 -0.0444 -0.0491  0.3363
 7547TIP3    H146836   7.115   7.357   0.692  0.1224 -2.4026  0.5828
 7547TIP3    H246837   6.985   7.404   0.753  1.0541  1.2154 -0.0171
 7548TIP3   OH246838   5.636   4.342   1.024 -0.3147 -0.3340 -0.0125
 7548TIP3    H146839   5.590   4.267   1.061 -0.9081 -0.0366 -0.1264
 7548TIP3    H246840   5.570   4.411   1.022 -0.4781 -0.4964 -2.1477
 7549TIP3   OH246841   2.833   4.180   3.191 -0.2027  0.6029 -0.0309
 7549TIP3    H146842   2.869   4.100   3.230 -0.5905  0.2666 -0.3434
 7549TIP3    H246843   2.869   4.251   3.243 -1.4251  0.1230  1.5569
 7550TIP3   OH246844   1.732   0.274   2.967  0.4073 -0.4926 -0.7939
 7550TIP3    H146845   1.700   0.199   3.016  0.9648 -1.1957 -1.4795
 7550TIP3    H246846   1.655   0.307   2.920 -0.1754  0.3005  0.6432
 7551TIP3   OH246847   2.832   5.640   1.517 -0.4387 -1.2687  0.1041
 7551TIP3    H146848   2.757   5.682   1.557  0.2528 -1.2578  1.4511
 7551TIP3    H246849   2.820   5.547   1.535 -0.1285 -1.2666  0.3215
 7552TIP3   OH246850   4.661   0.948   2.446  0.2300  0.8197  0.0600
 7552TIP3    H146851   4.674   0.864   2.402  0.6662  0.5187  0.7428
 7552TIP3    H246852   4.689   0.933   2.536 -3.7372  0.4670  1.3986
 7553TIP3   OH246853   3.635   4.814   2.025  1.2317 -0.5159  0.0289
 7553TIP3    H146854   3.547   4.778   2.037  0.7679  0.6024  0.1365
 7553TIP3    H246855   3.673   4.816   2.113  0.7048  0.5812  0.2517
 7554TIP3   OH246856   6.218   0.644   1.297  0.3514  0.3339  0.4489
 7554TIP3    H146857   6.249   0.702   1.367  2.0569  0.4545 -0.3399
 7554TIP3    H246858   6.229   0.695   1.217 -0.2649 -0.2865 -0.0477
 7555TIP3   OH246859   4.346   5.322   2.000 -0.3795  0.2028 -0.6271
 7555TIP3    H146860   4.331   5.275   1.918 -2.1584 -0.8357  0.2313
 7555TIP3    H246861   4.265   5.310   2.050  1.1378 -0.3946  1.8720
 7556TIP3   OH246862   2.200   1.352   1.508 -0.7750  0.1341  0.3850
 7556TIP3    H146863   2.191   1.257   1.498 -0.8792  0.1755  0.0922
 7556TIP3    H246864   2.142   1.389   1.442  0.6944  0.3986 -0.8017
 7557TIP3   OH246865   2.151   2.384   2.347  0.2115 -0.0506  0.3615
 7557TIP3    H146866   2.067   2.342   2.332 -0.4493  0.6757  1.8273
 7557TIP3    H246867   2.212   2.311   2.361 -0.4875 -0.5605  0.7968
 7558TIP3   OH246868   4.654   4.529   1.133 -0.6363  0.1747 -0.0757
 7558TIP3    H146869   4.609   4.535   1.218 -1.2873 -0.5709 -0.3534
 7558TIP3    H246870   4.645   4.437   1.108 -1.4620  0.6144 -1.4980
 7559TIP3   OH246871   1.177   6.118   0.928 -0.0997 -0.3194 -0.4988
 7559TIP3    H146872   1.273   6.122   0.923 -0.1652  2.3890 -0.8640
 7559TIP3    H246873   1.157   6.138   1.020 -0.3383  0.6835 -0.7608
 7560TIP3   OH246874   6.508   3.394   2.211  0.4926  0.4548 -0.0722
 7560TIP3    H146875   6.570   3.430   2.275  1.6624  1.7715 -1.8358
 7560TIP3    H246876   6.462   3.471   2.176 -0.1161 -0.2258 -0.8064
 7561TIP3   OH246877   5.032   7.250   3.649  0.3128  0.5336 -0.2080
 7561TIP3    H146878   5.082   7.304   3.710  0.2446  0.6069 -0.2161
 7561TIP3    H246879   5.096   7.193   3.608  0.5862  1.4640 -1.1265
 7562TIP3   OH246880   3.409   6.208   2.656  0.1553  0.4265  0.2523
 7562TIP3    H146881   3.382   6.267   2.727 -1.3856  0.3905 -0.2688
 7562TIP3    H246882   3.398   6.120   2.692 -1.0153  0.3985 -0.1373
 7563TIP3   OH246883   3.530   0.973   1.132 -0.2168  0.3403  0.5060
 7563TIP3    H146884   3.519   0.959   1.038  0.4898 -0.2741  0.5129
 7563TIP3    H246885   3.560   0.889   1.166 -1.5159  0.2310  1.4643
 7564TIP3   OH246886   5.338   2.378   1.483  0.0153 -0.5103 -0.5071
 7564TIP3    H146887   5.353   2.288   1.452 -0.2913 -0.7875  0.1399
 7564TIP3    H246888   5.276   2.414   1.420 -0.7222 -1.1196 -0.1448
 7565TIP3   OH246889   1.229   3.074   1.097 -0.1845  0.1362 -1.2288
 7565TIP3    H146890   1.222   3.005   1.164  0.9057 -0.1331 -1.3672
 7565TIP3    H246891   1.167   3.049   1.029 -1.2210  0.3442 -0.3888
 7566TIP3   OH246892   6.808   0.323   1.081  0.9313  0.0436  0.1101
 7566TIP3    H146893   6.725   0.331   1.128  0.9978 -0.6328  0.3490
 7566TIP3    H246894   6.786   0.276   1.001  0.9291  0.6592 -0.2620
 7567TIP3   OH246895   0.637   7.264   1.294 -0.3692  0.7188 -0.4388
 7567TIP3    H146896   0.688   7.261   1.375 -0.4682  1.1725 -0.3529
 7567TIP3    H246897   0.595   7.350   1.296 -1.4890  0.1830 -0.2903
 7568TIP3   OH246898   6.799   4.734   2.111  0.1915  0.8395 -0.3870
 7568TIP3    H146899   6.868   4.745   2.177 -0.1508 -1.6856  0.4992
 7568TIP3    H246900   6.845   4.740   2.027  2.3184 -3.7571  0.1138
 7569TIP3   OH246901   2.051   0.686   3.295  0.1415  0.5150  0.9419
 7569TIP3    H146902   1.998   0.705   3.217 -1.0575 -1.6012  1.1687
 7569TIP3    H246903   2.131   0.646   3.261 -0.8020 -1.3400  0.7476
 7570TIP3   OH246904   6.461   2.645   1.551 -0.0077 -0.6955  0.1032
 7570TIP3    H146905   6.437   2.670   1.640  1.4617  1.9647 -0.1178
 7570TIP3    H246906   6.378   2.634   1.505 -0.8186  1.1031  1.0419
 7571TIP3   OH246907   0.159   7.399   1.963 -0.5628  0.2579  0.0186
 7571TIP3    H146908   0.242   7.388   2.010 -0.5712 -0.3782 -0.1124
 7571TIP3    H246909   0.099   7.337   2.004 -0.7127  0.0525 -0.5008
 7572TIP3   OH246910   7.324   4.835   1.875 -0.4442  0.0548 -0.1060
 7572TIP3    H146911   7.357   4.788   1.798  0.5611 -0.2462  0.4903
 7572TIP3    H246912   7.402   4.870   1.917 -1.0461  0.8061  0.4112
 7573TIP3   OH246913   2.644   5.118   1.985 -0.1499  0.1164 -0.2875
 7573TIP3    H146914   2.574   5.137   1.923  0.8115  0.7402 -1.2125
 7573TIP3    H246915   2.601   5.119   2.071 -1.1358  1.2666 -0.7660
 7574TIP3   OH246916   5.144   2.366   1.071  0.1675  0.2003  0.3823
 7574TIP3    H146917   5.234   2.335   1.067 -0.1373 -0.7159  0.4931
 7574TIP3    H246918   5.109   2.349   0.983  0.0479  0.3905  0.3919
 7575TIP3   OH246919   4.965   7.253   0.876  0.5511 -0.2152 -0.1191
 7575TIP3    H146920   5.046   7.204   0.891  0.9352  0.6276  0.7042
 7575TIP3    H246921   4.992   7.345   0.879 -0.1844  0.0570 -1.4350
 7576TIP3   OH246922   6.990   6.084   1.926  0.0933  0.0509  0.3193
 7576TIP3    H146923   6.915   6.108   1.981 -1.1979 -0.2112 -1.2706
 7576TIP3    H246924   6.978   5.991   1.908  0.4807  0.1371 -0.4186
 7577TIP3   OH246925   4.587   7.346   1.319 -0.0596  0.5265 -0.0119
 7577TIP3    H146926   4.518   7.405   1.348  0.1873  0.3991  0.8422
 7577TIP3    H246927   4.607   7.375   1.230 -0.3263  1.3725  0.1957
 7578TIP3   OH246928   2.462   3.906   1.023  0.4956  0.1445  0.1556
 7578TIP3    H146929   2.369   3.912   0.998  0.5154 -1.2607 -0.3709
 7578TIP3    H246930   2.501   3.986   0.988 -0.1624 -0.1342 -1.3116
 7579TIP3   OH246931   7.046   3.965   1.922  0.2546  0.7762  0.1372
 7579TIP3    H146932   7.086   3.980   1.837 -1.2361  0.3626 -0.6682
 7579TIP3    H246933   6.955   3.995   1.912 -1.7243 -4.3617 -0.2674
 7580TIP3   OH246934   2.967   3.391   0.562  0.3102  0.1957  0.4370
 7580TIP3    H146935   2.915   3.463   0.596  0.9780  1.1239 -0.4527
 7580TIP3    H246936   2.921   3.312   0.591 -2.8249  0.9050 -2.0795
 7581TIP3   OH246937   5.333   1.150   4.209  0.5068  0.2460  0.7318
 7581TIP3    H146938   5.401   1.217   4.216  0.5790  0.4616 -1.3573
 7581TIP3    H246939   5.256   1.188   4.252  0.3921  1.9278 -0.8536
 7582TIP3   OH246940   2.058   7.431   2.446 -0.2914 -0.6011 -0.0776
 7582TIP3    H146941   2.036   7.405   2.356 -1.9931  1.9246 -0.4893
 7582TIP3    H246942   2.138   7.483   2.437 -0.1062 -0.8811 -0.0458
 7583TIP3   OH246943   7.030   0.900   0.699  0.2557  0.1159  0.0646
 7583TIP3    H146944   6.939   0.873   0.715  0.0004  0.8260 -0.1414
 7583TIP3    H246945   7.083   0.831   0.738 -0.3746 -0.0333  0.6702
 7584TIP3   OH246946   6.495   4.429   1.062 -0.2601  0.0166  0.1331
 7584TIP3    H146947   6.560   4.469   1.004  1.4142 -1.5234  0.8412
 7584TIP3    H246948   6.499   4.483   1.141 -0.5615  0.4948 -0.1699
 7585TIP3   OH246949   0.366   0.898   1.359 -0.7701 -0.1700  0.1378
 7585TIP3    H146950   0.360   0.991   1.337 -3.8010 -0.2549  0.2198
 7585TIP3    H246951   0.323   0.891   1.444  2.2857 -1.2574  1.7326
 7586TIP3   OH246952   4.652   6.946   1.726  0.9366  0.1155  0.2525
 7586TIP3    H146953   4.600   7.018   1.690 -1.2379 -0.8705  1.2199
 7586TIP3    H246954   4.722   6.932   1.662 -1.6919 -0.4201 -2.7606
 7587TIP3   OH246955   5.095   7.340   1.444 -0.1151 -0.0163  0.3052
 7587TIP3    H146956   5.069   7.331   1.352 -0.2172 -0.3866  0.3705
 7587TIP3    H246957   5.119   7.433   1.453  0.4472 -0.1019 -0.2348
 7588TIP3   OH246958   7.581   0.751   1.614  0.0761  0.1017 -0.1791
 7588TIP3    H146959   7.618   0.793   1.691  1.8560  0.4911 -1.2075
 7588TIP3    H246960   7.544   0.822   1.562  0.8348  0.1233 -0.7092
 7589TIP3   OH246961   6.114   1.640   2.646 -0.0576 -0.3663 -0.0457
 7589TIP3    H146962   6.135   1.547   2.648  0.9965 -0.3408 -3.3755
 7589TIP3    H246963   6.077   1.654   2.558 -0.0747  2.3589  0.3166
 7590TIP3   OH246964   5.505   5.183   1.051  0.0490  0.7302 -0.2904
 7590TIP3    H146965   5.499   5.089   1.039  2.0867  0.3081  1.4717
 7590TIP3    H246966   5.539   5.216   0.968 -0.9247 -0.0147 -1.0075
 7591TIP3   OH246967   5.105   5.383   1.661 -1.0017  0.5923 -0.3136
 7591TIP3    H146968   5.061   5.393   1.745  0.3611  0.3239  0.4587
 7591TIP3    H246969   5.192   5.349   1.683 -1.2355 -1.2516 -1.9516
 7592TIP3   OH246970   0.644   6.761   1.851  0.1676 -0.1808  0.0165
 7592TIP3    H146971   0.570   6.782   1.794 -0.5427  0.0827  1.0081
 7592TIP3    H246972   0.617   6.683   1.899  0.5049 -0.0391  0.4426
 7593TIP3   OH246973   3.722   5.657   2.617  0.1729 -0.3451  0.2494
 7593TIP3    H146974   3.719   5.670   2.523 -1.1081 -1.4211  0.1040
 7593TIP3    H246975   3.811   5.680   2.643  0.4288  0.3007 -1.1610
 7594TIP3   OH246976   0.818   7.445   3.050  0.2016 -0.1620 -0.4818
 7594TIP3    H146977   0.738   7.462   3.100  0.5650  0.1529  0.0085
 7594TIP3    H246978   0.808   7.356   3.017 -0.3265 -0.1447 -0.3760
 7595TIP3   OH246979   3.138   0.204   1.866 -0.0311 -0.2748 -0.4057
 7595TIP3    H146980   3.127   0.253   1.947  0.2300 -1.3459  0.2968
 7595TIP3    H246981   3.112   0.115   1.887 -1.1181 -0.3345 -1.8294
 7596TIP3   OH246982   2.368   5.866   0.954  0.0869  0.0154  0.3822
 7596TIP3    H146983   2.336   5.955   0.940  0.2221  0.0462  0.2748
 7596TIP3    H246984   2.294   5.810   0.929  0.8945  0.0014 -2.1573
 7597TIP3   OH246985   3.163   7.568   0.679 -0.5741  0.0494  0.6068
 7597TIP3    H146986   3.084   7.519   0.657 -0.2445 -1.3861  2.3396
 7597TIP3    H246987   3.230   7.534   0.620 -0.5929 -0.8983  1.1127
 7598TIP3   OH246988   7.043   7.357   1.074  0.7999  0.5294  0.1702
 7598TIP3    H146989   7.115   7.419   1.063 -0.1610  1.3322 -2.3218
 7598TIP3    H246990   7.065   7.283   1.019 -0.2163  0.7735 -0.6068
 7599TIP3   OH246991   6.574   2.159   2.912 -0.1493  0.1754  0.2176
 7599TIP3    H146992   6.608   2.076   2.946  1.0692 -0.1251 -1.5541
 7599TIP3    H246993   6.647   2.220   2.921  0.2439  0.0660 -1.7787
 7600TIP3   OH246994   1.649   6.563   2.548  0.6424 -0.0412  0.2324
 7600TIP3    H146995   1.661   6.611   2.630 -0.9726  2.2100 -0.7450
 7600TIP3    H246996   1.734   6.567   2.505  0.3245  3.1348 -0.3217
 7601TIP3   OH246997   0.422   7.110   1.243 -0.1025  0.0739  0.3610
 7601TIP3    H146998   0.506   7.155   1.255 -0.6734  1.2763  0.0580
 7601TIP3    H246999   0.395   7.087   1.331 -1.0466  2.7593  0.8655
 7602TIP3   OH247000   7.596   7.667   1.705 -0.3359 -0.1326 -0.6737
 7602TIP3    H147001   7.612   7.575   1.686 -2.3522 -1.1471  1.9593
 7602TIP3    H247002   7.506   7.682   1.676 -0.5805  0.5411  0.4038
 7603TIP3   OH247003   3.225   4.243   0.543  0.3636 -0.0382 -0.2521
 7603TIP3    H147004   3.258   4.240   0.633 -0.6405  1.3058  0.1766
 7603TIP3    H247005   3.304   4.234   0.489  0.9098 -1.6649  0.7215
 7604TIP3   OH247006   4.292   2.733   1.878 -0.1697  0.0835  0.6235
 7604TIP3    H147007   4.321   2.771   1.960  0.4312 -0.5957  0.7407
 7604TIP3    H247008   4.373   2.705   1.834 -0.6067 -3.0949  1.5617
 7605TIP3   OH247009   6.319   2.625   1.842 -0.3765  0.3444  0.0473
 7605TIP3    H147010   6.280   2.712   1.835 -1.1334  0.0414  0.4443
 7605TIP3    H247011   6.304   2.599   1.933  0.5848  0.1376  0.1635
 7606TIP3   OH247012   4.957   4.813   1.367  0.0398  0.2203 -0.6192
 7606TIP3    H147013   4.878   4.861   1.342  0.5052  1.4511  0.1913
 7606TIP3    H247014   4.979   4.762   1.289 -0.9702  0.6477 -1.2104
 7607TIP3   OH247015   7.313   2.766   3.052  0.3155 -0.4304  0.3635
 7607TIP3    H147016   7.275   2.708   3.118  1.4622 -2.0809 -0.3494
 7607TIP3    H247017   7.395   2.722   3.027  1.4662  1.7430  0.1038
 7608TIP3   OH247018   6.817   0.701   2.902 -0.6387 -0.1383 -0.3782
 7608TIP3    H147019   6.742   0.649   2.930 -1.3267  0.0185 -1.8379
 7608TIP3    H247020   6.811   0.702   2.806 -0.6593  2.5615 -0.4249
 7609TIP3   OH247021   1.424   5.037   1.882  0.7827 -0.2648  0.6194
 7609TIP3    H147022   1.475   4.990   1.948  0.5857  0.9132  1.6485
 7609TIP3    H247023   1.490   5.078   1.826  0.9597 -0.0101  1.0124
 7610TIP3   OH247024   6.296   6.514   1.317 -0.4473 -0.7448  0.5346
 7610TIP3    H147025   6.356   6.440   1.328  1.5378  1.0012  2.3167
 7610TIP3    H247026   6.342   6.574   1.259 -1.4019 -0.2634  0.2571
 7611TIP3   OH247027   1.220   1.117   1.125 -0.1058  0.2807 -0.0787
 7611TIP3    H147028   1.127   1.127   1.145 -0.0964  1.3432 -0.5421
 7611TIP3    H247029   1.221   1.081   1.036 -0.0687 -0.2084  0.1130
 7612TIP3   OH247030   1.174   3.518   1.413  0.4140 -0.1261  0.0814
 7612TIP3    H147031   1.169   3.481   1.325  1.7711 -1.8543  0.6698
 7612TIP3    H247032   1.182   3.612   1.400  3.9713 -0.5434 -1.8492
 7613TIP3   OH247033   4.460   3.994   1.920  0.2135 -0.1961 -0.0211
 7613TIP3    H147034   4.369   3.987   1.894  0.4136 -0.4768 -0.6627
 7613TIP3    H247035   4.498   4.058   1.860  0.6690 -0.8081 -0.3994
 7614TIP3   OH247036   5.502   1.053   3.029 -0.1695 -0.7932 -0.6691
 7614TIP3    H147037   5.465   1.141   3.040  1.3235  0.0158 -1.7086
 7614TIP3    H247038   5.450   0.997   3.086 -0.6824  0.9036  0.5855
 7615TIP3   OH247039   3.832   5.186   2.067 -0.2791  0.4364  0.9744
 7615TIP3    H147040   3.776   5.157   2.138 -2.4183 -0.4187 -0.9345
 7615TIP3    H247041   3.832   5.282   2.074 -1.2943  0.4091  1.5384
 7616TIP3   OH247042   2.992   4.365   0.620  0.1118 -0.6847  0.1739
 7616TIP3    H147043   3.082   4.341   0.602  0.8296  1.7013  0.2332
 7616TIP3    H247044   2.991   4.389   0.713  0.1730  2.0712 -0.4558
 7617TIP3   OH247045   5.693   2.867   2.365  0.1077  0.4311  0.9630
 7617TIP3    H147046   5.755   2.804   2.401 -0.1067 -0.3344  0.0329
 7617TIP3    H247047   5.744   2.916   2.300 -0.0342  0.3857  0.8164
 7618TIP3   OH247048   3.041   2.347   2.642  0.4873  0.1641 -0.4885
 7618TIP3    H147049   2.991   2.288   2.586 -2.2290  1.0985  0.7932
 7618TIP3    H247050   3.013   2.435   2.615  0.3402  0.6723  1.2054
 7619TIP3   OH247051   1.532   4.364   1.430 -0.3796 -0.1021 -0.1201
 7619TIP3    H147052   1.617   4.324   1.448 -0.9639 -2.1651 -1.6164
 7619TIP3    H247053   1.492   4.375   1.516  0.5441 -1.1294  0.4618
 7620TIP3   OH247054   2.687   4.328   0.561 -0.0195  0.4102  0.2465
 7620TIP3    H147055   2.677   4.420   0.588 -1.1794 -0.3863  2.8759
 7620TIP3    H247056   2.782   4.314   0.563  0.1426  1.3967  0.3825
 7621TIP3   OH247057   5.259   4.751   1.402 -0.1859 -0.2472  0.4600
 7621TIP3    H147058   5.219   4.779   1.485  0.6886  1.5411  0.3323
 7621TIP3    H247059   5.352   4.765   1.415  0.1579 -1.7702 -0.2003
 7622TIP3   OH247060   2.991   2.417   0.839  0.6128  0.1707 -0.5349
 7622TIP3    H147061   3.068   2.370   0.869 -0.0698 -0.4295  0.3162
 7622TIP3    H247062   2.952   2.360   0.772 -0.7130 -0.9554  1.1294
 7623TIP3   OH247063   4.040   5.513   0.500 -0.1735  0.4392 -0.0134
 7623TIP3    H147064   3.965   5.572   0.511 -0.7928 -0.5530  1.3950
 7623TIP3    H247065   4.010   5.430   0.537  2.0781  0.3841  1.8585
 7624TIP3   OH247066   0.371   4.955   1.218 -0.0312  0.0807 -0.6846
 7624TIP3    H147067   0.329   4.890   1.163  0.8170 -1.3380  0.2719
 7624TIP3    H247068   0.439   4.993   1.163 -0.5393  0.1829 -1.2546
 7625TIP3   OH247069   2.059   0.880   1.458  0.5117 -0.0227 -0.6561
 7625TIP3    H147070   2.048   0.789   1.433  1.0862 -0.3470  0.2413
 7625TIP3    H247071   1.980   0.902   1.507  0.4102 -0.0581 -0.8030
 7626TIP3   OH247072   4.800   3.031   1.044 -0.0443 -0.1597 -0.2542
 7626TIP3    H147073   4.751   3.088   0.985  0.8318 -2.1454 -3.0761
 7626TIP3    H247074   4.875   3.002   0.993  1.2227 -1.3853  2.1544
 7627TIP3   OH247075   7.085   2.898   2.959 -0.2520  0.1589  0.4796
 7627TIP3    H147076   7.081   2.980   3.009 -0.5909 -0.4303  1.4572
 7627TIP3    H247077   7.173   2.863   2.978  0.1015  0.5469 -0.3759
 7628TIP3   OH247078   4.054   2.947   0.624  0.2882 -0.4844  0.2315
 7628TIP3    H147079   4.121   2.880   0.635 -0.7828 -1.8175 -0.8733
 7628TIP3    H247080   4.098   3.018   0.578  0.5721 -2.1310 -2.2427
 7629TIP3   OH247081   4.007   0.495   1.661 -0.1430 -0.2082  0.3944
 7629TIP3    H147082   4.031   0.586   1.644  1.7891 -0.7486 -0.0889
 7629TIP3    H247083   3.975   0.462   1.577  0.9326 -0.4540  0.0636
 7630TIP3   OH247084   3.187   1.434   1.738  0.0154  0.0345  0.2102
 7630TIP3    H147085   3.157   1.503   1.678  0.1306  0.3856  0.5534
 7630TIP3    H247086   3.205   1.360   1.681  2.3785  1.0722 -0.5301
 7631TIP3   OH247087   1.626   2.117   0.883 -0.2451  0.2098 -0.2922
 7631TIP3    H147088   1.597   2.057   0.952  0.2822  0.4141  0.1105
 7631TIP3    H247089   1.545   2.141   0.837 -0.4618 -0.7829 -0.4450
 7632TIP3   OH247090   2.520   4.675   1.407 -0.4173 -0.1233 -0.1285
 7632TIP3    H147091   2.561   4.675   1.493  0.1883 -0.4706 -0.4172
 7632TIP3    H247092   2.459   4.750   1.410  0.2144  0.3852  0.3046
 7633TIP3   OH247093   3.035   2.753   1.443  0.1672 -0.6982  0.4641
 7633TIP3    H147094   3.117   2.782   1.483  0.6304 -1.0574 -0.1996
 7633TIP3    H247095   3.051   2.759   1.349 -0.1021 -2.0247  0.3152
 7634TIP3   OH247096   1.421   5.866   1.450  0.0378  0.0632 -0.1154
 7634TIP3    H147097   1.512   5.866   1.482 -0.0857 -0.4404  0.2393
 7634TIP3    H247098   1.370   5.833   1.523 -0.2834 -0.8333 -0.7303
 7635TIP3   OH247099   0.375   4.170   1.549  0.4778  0.0287  0.4367
 7635TIP3    H147100   0.387   4.104   1.481 -0.2187 -1.2009  1.4627
 7635TIP3    H247101   0.349   4.249   1.501 -0.9107 -1.0542 -0.6870
 7636TIP3   OH247102   0.717   5.394   0.892 -0.5553  0.4049  0.0492
 7636TIP3    H147103   0.767   5.471   0.920 -1.0817  0.7767 -0.0145
 7636TIP3    H247104   0.726   5.393   0.797 -1.2569  0.8958 -0.0323
 7637TIP3   OH247105   3.744   1.970   2.664 -0.0909 -0.3372  0.4447
 7637TIP3    H147106   3.836   1.996   2.663 -0.3210  0.5108  0.3859
 7637TIP3    H247107   3.702   2.033   2.722 -0.4523 -1.4082  1.3788
 7638TIP3   OH247108   4.696   4.924   1.128  0.2007  0.3334 -0.7149
 7638TIP3    H147109   4.697   4.982   1.204 -1.2440 -0.3491 -0.1323
 7638TIP3    H247110   4.603   4.906   1.113  0.5605 -1.0652 -1.4539
 7639TIP3   OH247111   6.212   7.623   3.961 -0.1325  0.6851  0.4619
 7639TIP3    H147112   6.278   7.691   3.951  0.8615 -0.2787  0.3767
 7639TIP3    H247113   6.252   7.544   3.926 -1.3565  0.0899  0.3368
 7640TIP3   OH247114   5.552   7.461   0.904 -0.0184 -0.1116 -0.0742
 7640TIP3    H147115   5.537   7.373   0.870 -0.2579 -0.1083  0.0252
 7640TIP3    H247116   5.615   7.450   0.975 -1.6218 -0.4697  1.3473
 7641TIP3   OH247117   6.704   7.201   1.358 -0.3904  0.2052  0.2577
 7641TIP3    H147118   6.680   7.170   1.445 -0.8875 -0.1055  0.0163
 7641TIP3    H247119   6.684   7.294   1.359 -1.7410 -0.0560  0.0395
 7642TIP3   OH247120   3.620   7.651   3.131 -0.0511  0.1895  0.1978
 7642TIP3    H147121   3.585   7.579   3.184  1.2870 -0.7480 -0.1460
 7642TIP3    H247122   3.616   7.728   3.188 -0.7946 -0.3115  0.8371
 7643TIP3   OH247123   3.057   1.032   0.901 -0.1295 -0.0779  0.2565
 7643TIP3    H147124   3.038   1.125   0.903 -1.7370 -0.3002 -1.7250
 7643TIP3    H247125   3.139   1.024   0.852 -0.9115  0.2208 -1.1476
 7644TIP3   OH247126   5.523   0.481   3.006 -0.7880  0.4215 -0.1977
 7644TIP3    H147127   5.536   0.415   2.938 -0.7464  1.9024 -1.6680
 7644TIP3    H247128   5.429   0.499   3.006 -0.8508  0.1323  0.4426
 7645TIP3   OH247129   2.612   1.910   2.781  0.1119  0.1959 -0.0290
 7645TIP3    H147130   2.579   1.971   2.847 -0.8852  0.7593 -1.0095
 7645TIP3    H247131   2.533   1.879   2.735  0.6666 -1.2024 -0.0991
 7646TIP3   OH247132   7.340   2.894   1.573  0.5841 -0.1466 -0.0825
 7646TIP3    H147133   7.273   2.959   1.554  0.4062 -0.6070 -1.0980
 7646TIP3    H247134   7.421   2.944   1.582 -0.0410  0.5444  2.2978
 7647TIP3   OH247135   2.139   6.055   3.194  0.2500 -0.1418  0.2319
 7647TIP3    H147136   2.070   6.053   3.128  1.0758  1.2745 -0.7393
 7647TIP3    H247137   2.187   5.973   3.181 -1.3206 -1.2377  1.0556
 7648TIP3   OH247138   5.006   2.482   2.951 -0.2071  0.1761  0.6566
 7648TIP3    H147139   5.086   2.508   2.906  0.1221  0.8027  1.5685
 7648TIP3    H247140   4.976   2.404   2.904 -0.1136  1.0473 -0.8817
 7649TIP3   OH247141   1.336   0.823   2.941  0.7659 -0.1807  0.2017
 7649TIP3    H147142   1.386   0.889   2.990  1.6636 -1.2092  0.7171
 7649TIP3    H247143   1.349   0.742   2.990 -1.4675 -0.4835  0.3579
 7650TIP3   OH247144   6.817   6.199   0.788  0.2526  0.1089  0.3875
 7650TIP3    H147145   6.844   6.131   0.850  2.0682 -0.0255 -0.4850
 7650TIP3    H247146   6.814   6.155   0.703  2.8157  1.3211 -0.4364
 7651TIP3   OH247147   7.212   5.997   2.440  0.6655 -0.2573 -0.1541
 7651TIP3    H147148   7.186   5.912   2.478 -3.1867  1.1793  0.8804
 7651TIP3    H247149   7.253   6.043   2.513  1.3836 -0.6602 -0.2936
 7652TIP3   OH247150   3.382   1.227   1.959  0.3003 -0.2738 -0.1383
 7652TIP3    H147151   3.428   1.153   1.999  1.8889  1.4774  1.4562
 7652TIP3    H247152   3.447   1.268   1.902 -0.6170 -0.1834 -1.1525
 7653TIP3   OH247153   1.025   0.341   1.757  0.3141  0.1203  0.2362
 7653TIP3    H147154   1.000   0.330   1.849 -1.0170 -0.5113 -0.1678
 7653TIP3    H247155   1.105   0.394   1.759  1.7320 -1.9257  1.8809
 7654TIP3   OH247156   7.282   7.601   1.256 -0.0328  0.8192 -0.3578
 7654TIP3    H147157   7.366   7.567   1.225 -1.1330 -0.6319 -1.9427
 7654TIP3    H247158   7.231   7.523   1.277 -0.8699  1.6834  0.9856
 7655TIP3   OH247159   3.680   4.357   1.301  0.1948  0.1245  0.4180
 7655TIP3    H147160   3.637   4.341   1.385  1.0127  0.5560  0.9353
 7655TIP3    H247161   3.610   4.346   1.236 -0.7695  1.0819  1.2442
 7656TIP3   OH247162   1.344   1.672   2.672  0.6215  0.2835 -0.6089
 7656TIP3    H147163   1.310   1.726   2.601 -1.4630 -1.2059 -0.8414
 7656TIP3    H247164   1.375   1.735   2.737 -1.6098  1.8132 -0.8905
 7657TIP3   OH247165   1.567   7.177   2.453 -0.2011 -0.0309 -0.0360
 7657TIP3    H147166   1.647   7.165   2.504  1.6103 -0.1977 -2.7122
 7657TIP3    H247167   1.521   7.093   2.461  0.8484 -0.6267  0.0721
 7658TIP3   OH247168   6.806   0.275   0.720  0.0696 -0.1325  0.2420
 7658TIP3    H147169   6.725   0.225   0.717 -0.2579  0.4060 -2.3824
 7658TIP3    H247170   6.777   0.367   0.721  0.6785  0.0666  0.9760
 7659TIP3   OH247171   7.183   5.746   2.557 -0.2746 -0.1098 -0.1383
 7659TIP3    H147172   7.267   5.769   2.597 -0.3361  0.5408 -0.3719
 7659TIP3    H247173   7.125   5.728   2.630  0.0989 -0.6678  0.0224
 7660TIP3   OH247174   4.984   4.293   1.275  0.0124 -0.3410  0.0980
 7660TIP3    H147175   4.952   4.356   1.210  0.2672  0.7074  0.9603
 7660TIP3    H247176   5.038   4.345   1.335 -2.0656 -0.7534  2.5184
 7661TIP3   OH247177   4.180   5.344   0.974 -0.0483 -0.5596 -0.5401
 7661TIP3    H147178   4.205   5.252   0.969  1.6749 -0.3448  2.1961
 7661TIP3    H247179   4.087   5.343   0.999  0.1958 -1.5921  0.3918
 7662TIP3   OH247180   5.911   6.821   1.033  0.1098 -0.1010  0.1593
 7662TIP3    H147181   5.924   6.730   1.007 -0.4036 -0.2331  0.3632
 7662TIP3    H247182   5.921   6.821   1.128  0.0671  0.0509  0.1645
 7663TIP3   OH247183   4.284   3.626   2.477 -0.4020 -0.4230  0.0974
 7663TIP3    H147184   4.366   3.585   2.506 -0.4781 -2.1174 -1.8260
 7663TIP3    H247185   4.311   3.700   2.424 -0.1313 -0.4183  0.2413
 7664TIP3   OH247186   6.732   1.635   1.343 -0.1681 -0.1564  0.3705
 7664TIP3    H147187   6.743   1.640   1.438 -1.1973 -0.6475  0.5307
 7664TIP3    H247188   6.678   1.710   1.320  0.9966  0.5908  0.0049
 7665TIP3   OH247189   4.961   0.642   3.232 -0.4595  1.2187 -0.3175
 7665TIP3    H147190   5.034   0.643   3.295 -0.3441  0.5304 -0.4283
 7665TIP3    H247191   4.965   0.555   3.193 -1.9429  0.8124  0.3630
 7666TIP3   OH247192   4.817   2.102   2.197 -0.3015  0.2836  0.3245
 7666TIP3    H147193   4.904   2.080   2.230  0.3816  1.9160 -0.2796
 7666TIP3    H247194   4.770   2.019   2.195  1.3351 -0.6801  0.4172
 7667TIP3   OH247195   4.007   2.200   0.834  0.3643 -0.3257 -0.2997
 7667TIP3    H147196   4.087   2.242   0.865 -0.2389 -0.5501  1.6769
 7667TIP3    H247197   3.967   2.265   0.775  0.8850  0.6905  0.4380
 7668TIP3   OH247198   4.067   3.332   0.364 -0.2312  0.1671 -0.2254
 7668TIP3    H147199   4.042   3.325   0.272 -0.2219 -1.9754 -0.1184
 7668TIP3    H247200   3.997   3.383   0.405 -0.4449  0.7824 -1.3134
 7669TIP3   OH247201   5.853   2.091   2.899 -0.2471  0.2608 -0.5566
 7669TIP3    H147202   5.761   2.082   2.924  0.1838  0.5645  1.3202
 7669TIP3    H247203   5.882   2.002   2.883 -0.6879  0.0951 -0.4593
 7670TIP3   OH247204   5.565   6.190   2.290  0.2591  0.0884 -0.4886
 7670TIP3    H147205   5.614   6.262   2.328  0.3118 -1.0198  1.6707
 7670TIP3    H247206   5.608   6.111   2.324 -2.5007 -0.9403  0.9261
 7671TIP3   OH247207   3.846   1.810   2.985 -0.2157 -0.3596  0.0635
 7671TIP3    H147208   3.850   1.892   2.936  1.0748 -0.7818 -0.5701
 7671TIP3    H247209   3.888   1.830   3.069  0.0489 -0.3472 -0.0695
 7672TIP3   OH247210   7.200   1.907   0.769  0.0762 -0.8669  0.5420
 7672TIP3    H147211   7.238   1.972   0.709  0.4802  0.0826  1.7758
 7672TIP3    H247212   7.274   1.853   0.796 -0.4376 -2.6685 -1.3754
 7673TIP3   OH247213   5.240   0.648   4.043 -0.1839  0.0800  0.5874
 7673TIP3    H147214   5.327   0.628   4.077 -0.0133  1.0594  0.7525
 7673TIP3    H247215   5.233   0.744   4.048 -1.1049  0.0491  0.1794
 7674TIP3   OH247216   1.512   5.520   0.709 -0.3500 -0.7081  0.3536
 7674TIP3    H147217   1.513   5.574   0.630  0.8628  0.4454  1.1098
 7674TIP3    H247218   1.422   5.488   0.715 -0.8467  0.4251 -0.6698
 7675TIP3   OH247219   4.694   0.627   1.528 -0.3354 -0.6893  0.1033
 7675TIP3    H147220   4.775   0.625   1.579  0.7383 -1.6208 -1.5474
 7675TIP3    H247221   4.681   0.720   1.506  0.7982 -0.6334 -0.3731
 7676TIP3   OH247222   5.505   5.563   2.327 -0.2144  0.4737  0.0238
 7676TIP3    H147223   5.447   5.636   2.305 -0.3184 -0.1236 -1.8587
 7676TIP3    H247224   5.460   5.486   2.293  1.4743 -0.0467 -1.1305
 7677TIP3   OH247225   2.312   7.606   1.360  0.4729  0.0681 -0.5246
 7677TIP3    H147226   2.306   7.702   1.363  1.9019  0.1664 -0.0379
 7677TIP3    H247227   2.231   7.578   1.318 -1.5166  1.2958  2.1867
 7678TIP3   OH247228   2.828   5.125   1.244 -0.0225 -0.4973 -0.6710
 7678TIP3    H147229   2.851   5.035   1.221  0.2792 -0.5547 -0.1596
 7678TIP3    H247230   2.773   5.117   1.322  0.3149 -0.2241 -0.4002
 7679TIP3   OH247231   6.773   2.759   1.021  0.4037 -0.4595 -0.3032
 7679TIP3    H147232   6.718   2.681   1.030  0.3311 -0.4502 -0.6514
 7679TIP3    H247233   6.724   2.827   1.067  1.0636 -0.8937  1.1125
 7680TIP3   OH247234   0.323   5.057   2.224  0.4102  0.1334  0.6316
 7680TIP3    H147235   0.303   4.989   2.289  1.0091 -0.1877  0.4910
 7680TIP3    H247236   0.414   5.040   2.199  0.1678  0.2135 -0.3387
 7681TIP3   OH247237   6.489   0.570   0.847  0.0398  0.2030  0.1163
 7681TIP3    H147238   6.426   0.528   0.906  0.4232  1.5140  1.5155
 7681TIP3    H247239   6.434   0.618   0.785 -0.3562  0.1034  0.3843
 7682TIP3   OH247240   3.617   3.149   2.756  0.3413  0.0591  0.4905
 7682TIP3    H147241   3.572   3.121   2.836  0.0265 -0.1521  0.2450
 7682TIP3    H247242   3.611   3.073   2.698  1.5287 -0.1832  0.6540
 7683TIP3   OH247243   3.301   4.621   2.916  0.2385 -0.4033 -0.9655
 7683TIP3    H147244   3.336   4.536   2.942  1.4316  0.8744  2.1382
 7683TIP3    H247245   3.210   4.620   2.946  0.9050  0.1568  1.2335
 7684TIP3   OH247246   2.837   3.124   2.582  0.6433  0.5054 -0.0296
 7684TIP3    H147247   2.801   3.202   2.624  0.4631  0.1321  0.5228
 7684TIP3    H247248   2.828   3.055   2.647  0.5665 -0.0413 -0.6045
 7685TIP3   OH247249   4.144   6.369   1.185 -0.4332  0.1382  0.3744
 7685TIP3    H147250   4.167   6.277   1.176  0.0096  0.1303  1.4051
 7685TIP3    H247251   4.124   6.379   1.278 -2.9295  0.5415 -0.1438
 7686TIP3   OH247252   5.681   2.173   2.490 -0.5187  0.4492 -0.4390
 7686TIP3    H147253   5.718   2.123   2.417  1.7353  3.2904 -1.4238
 7686TIP3    H247254   5.629   2.241   2.448 -1.4536  0.5121  0.7599
 7687TIP3   OH247255   5.300   4.101   1.649  0.0083 -0.5952  1.1995
 7687TIP3    H147256   5.236   4.038   1.616  0.2514 -0.8861  1.2801
 7687TIP3    H247257   5.379   4.083   1.599 -0.1827  0.2543  0.5861
 7688TIP3   OH247258   0.991   0.085   1.690  0.1317 -0.3163 -0.5448
 7688TIP3    H147259   0.993   0.178   1.714 -0.6917 -0.2151 -0.8248
 7688TIP3    H247260   0.991   0.086   1.594  1.3145 -0.6538 -0.5655
 7689TIP3   OH247261   3.254   5.982   1.257 -0.2926 -0.0338 -0.4309
 7689TIP3    H147262   3.233   5.927   1.332 -1.5362 -0.2245 -0.8984
 7689TIP3    H247263   3.224   5.932   1.181  0.3328  0.4461 -1.0080
 7690TIP3   OH247264   6.162   0.563   3.045  0.6105 -0.1183  0.2644
 7690TIP3    H147265   6.110   0.530   2.972  0.3121 -1.5071  1.0774
 7690TIP3    H247266   6.108   0.630   3.086  1.3374  1.7017 -1.5776
 7691TIP3   OH247267   0.670   6.950   2.126 -0.2095  0.3465 -0.1176
 7691TIP3    H147268   0.646   7.005   2.200  0.0423  0.7480 -0.3353
 7691TIP3    H247269   0.715   7.008   2.065  0.7267 -0.2561 -0.0180
 7692TIP3   OH247270   4.443   3.330   1.377 -0.0254 -0.2073 -0.0640
 7692TIP3    H147271   4.367   3.284   1.415  0.7612 -0.9133  0.7146
 7692TIP3    H247272   4.464   3.280   1.298 -1.4229  1.0321 -1.2892
 7693TIP3   OH247273   7.593   6.464   7.429 -0.5839 -0.3506 -0.5889
 7693TIP3    H147274   7.681   6.468   7.391 -0.3947  2.1018 -0.0445
 7693TIP3    H247275   7.608   6.438   7.520 -0.3721  0.4755 -0.3843
 7694TIP3   OH247276   6.793   4.078   1.893  0.0998  0.1872 -0.1449
 7694TIP3    H147277   6.787   4.145   1.824  0.3558  1.2246  0.8008
 7694TIP3    H247278   6.710   4.030   1.887  0.3268 -0.0670 -1.4838
 7695TIP3   OH247279   2.110   7.398   2.913  0.0990 -0.0625 -0.0510
 7695TIP3    H147280   2.200   7.396   2.882  0.1647  1.8874 -0.1184
 7695TIP3    H247281   2.058   7.371   2.837  0.4790  1.3057 -0.8201
 7696TIP3   OH247282   3.535   4.111   2.651  0.3651  0.7590 -0.0420
 7696TIP3    H147283   3.509   4.176   2.717 -0.5245  1.9257 -1.4778
 7696TIP3    H247284   3.458   4.099   2.597  1.4682  0.9403 -1.7445
 7697TIP3   OH247285   4.098   2.756   1.700 -0.0072  0.3099 -0.2447
 7697TIP3    H147286   4.143   2.755   1.784  0.6153 -1.9421 -0.5379
 7697TIP3    H247287   4.016   2.708   1.716 -0.3636  0.7575 -0.6951
 7698TIP3   OH247288   3.444   0.410   1.244 -0.5348 -0.0533  0.2344
 7698TIP3    H147289   3.485   0.389   1.160  0.0572  0.4320  0.3875
 7698TIP3    H247290   3.363   0.454   1.221  0.3899  1.5609 -0.1279
 7699TIP3   OH247291   3.678   1.181   1.659  0.2896  0.3079 -0.1977
 7699TIP3    H147292   3.631   1.229   1.590  2.0898  0.0704 -1.6915
 7699TIP3    H247293   3.693   1.246   1.727 -0.1256  0.9963 -0.7413
 7700TIP3   OH247294   2.303   6.890   2.915  0.2508  0.5191  0.0042
 7700TIP3    H147295   2.275   6.810   2.869  0.0726  0.3690  0.3680
 7700TIP3    H247296   2.238   6.956   2.890  0.2877  0.5007 -0.1434
 7701TIP3   OH247297   1.248   0.676   2.374 -0.1250 -0.0928 -0.0265
 7701TIP3    H147298   1.225   0.713   2.459  0.0380  0.4811 -0.2282
 7701TIP3    H247299   1.344   0.677   2.372 -0.1000 -0.9814  0.1577
 7702TIP3   OH247300   7.148   2.457   1.060 -0.0098  0.0339  0.5252
 7702TIP3    H147301   7.167   2.543   1.097 -0.0780  0.2710  0.0110
 7702TIP3    H247302   7.214   2.444   0.992  0.1314 -0.4136  0.7404
 7703TIP3   OH247303   6.543   1.262   1.078 -0.2498  0.0905  0.1995
 7703TIP3    H147304   6.593   1.297   1.004 -0.4169 -1.0378 -0.4703
 7703TIP3    H247305   6.604   1.266   1.151  0.5342 -0.3961 -0.3994
 7704TIP3   OH247306   2.010   5.173   2.760  0.5461  0.3037  0.6462
 7704TIP3    H147307   2.043   5.107   2.821 -1.5727  0.0753  1.6095
 7704TIP3    H247308   1.917   5.153   2.751  0.6035  0.8446 -2.0381
 7705TIP3   OH247309   2.314   7.587   2.472  0.1378 -0.3697 -0.6525
 7705TIP3    H147310   2.407   7.567   2.483  1.2566  2.5995 -3.1143
 7705TIP3    H247311   2.309   7.683   2.477 -2.8936 -0.4408 -0.1868
 7706TIP3   OH247312   2.670   1.391   3.192 -0.5132  0.0960  0.3535
 7706TIP3    H147313   2.640   1.321   3.249 -0.1814  0.5109  1.0520
 7706TIP3    H247314   2.717   1.451   3.250 -0.8459  0.9299 -0.2111
 7707TIP3   OH247315   4.969   6.142   2.837 -0.2401  0.1718 -0.4309
 7707TIP3    H147316   5.031   6.087   2.884  0.6338  1.6623  0.2404
 7707TIP3    H247317   4.912   6.177   2.904 -1.6945 -0.9810 -1.0174
 7708TIP3   OH247318   0.388   2.631   0.903  0.0170 -0.1405  0.1375
 7708TIP3    H147319   0.414   2.651   0.993  1.4986 -1.5592  0.0831
 7708TIP3    H247320   0.336   2.551   0.910  0.3492 -0.3976 -0.2748
 7709TIP3   OH247321   3.896   0.253   3.446  0.2886  0.2440  0.8242
 7709TIP3    H147322   3.979   0.279   3.486  0.3367 -0.6993  1.3815
 7709TIP3    H247323   3.829   0.289   3.504  0.3252  0.2679  0.8520
 7710TIP3   OH247324   5.631   1.460   3.966  0.0027 -0.1183  0.3783
 7710TIP3    H147325   5.699   1.409   3.922 -0.6513 -0.6899  0.0028
 7710TIP3    H247326   5.649   1.551   3.940 -0.9992 -0.5247 -2.0306
 7711TIP3   OH247327   3.244   4.305   1.114 -0.3242  0.3721 -0.0738
 7711TIP3    H147328   3.251   4.250   1.192 -1.5852 -0.8832 -0.7839
 7711TIP3    H247329   3.171   4.364   1.133 -0.7902 -0.0962 -0.3726
 7712TIP3   OH247330   4.768   1.816   2.112 -0.5215  0.1225  0.1943
 7712TIP3    H147331   4.863   1.809   2.102 -0.5788  0.2863 -0.5148
 7712TIP3    H247332   4.739   1.725   2.123 -0.3739 -0.0146 -0.5021
 7713TIP3   OH247333   0.883   6.785   1.755  0.5215 -0.2644  0.2355
 7713TIP3    H147334   0.898   6.870   1.796 -0.4111 -0.0692  0.1945
 7713TIP3    H247335   0.797   6.757   1.788  0.0015 -0.3516 -1.1262
 7714TIP3   OH247336   7.400   6.227   0.615 -0.1653 -0.0186  0.8425
 7714TIP3    H147337   7.342   6.155   0.639  2.0320 -1.0176  3.8208
 7714TIP3    H247338   7.390   6.291   0.686  0.0235  1.3040 -0.2768
 7715TIP3   OH247339   1.801   7.106   2.840  0.7335  0.3687  0.1163
 7715TIP3    H147340   1.726   7.050   2.863  0.5501  0.6558  0.2196
 7715TIP3    H247341   1.769   7.195   2.852  1.0017  0.4994 -0.1314
 7716TIP3   OH247342   7.668   0.713   2.277  0.3104 -0.3655  0.6809
 7716TIP3    H147343   7.754   0.753   2.292  0.3165  0.2331 -0.8252
 7716TIP3    H247344   7.625   0.770   2.214 -1.0140 -0.9315  1.0375
 7717TIP3   OH247345   3.502   3.484   0.489 -0.4319 -0.6123  0.0220
 7717TIP3    H147346   3.498   3.486   0.585 -0.6746 -0.2664  0.0055
 7717TIP3    H247347   3.424   3.532   0.461  0.1865  0.1942 -0.3450
 7718TIP3   OH247348   6.446   0.617   1.866  0.6012 -0.7452  0.2022
 7718TIP3    H147349   6.507   0.688   1.844 -0.2582 -0.0939 -0.1515
 7718TIP3    H247350   6.471   0.590   1.954  0.7116  0.2463  0.4875
 7719TIP3   OH247351   3.084   2.754   2.211  0.2512 -0.1271 -0.0361
 7719TIP3    H147352   3.058   2.832   2.259  0.5818  1.0952 -1.7454
 7719TIP3    H247353   3.171   2.775   2.175  0.0812 -1.0181 -1.0440
 7720TIP3   OH247354   5.241   6.626   1.603  0.3169  0.0527  0.0282
 7720TIP3    H147355   5.322   6.673   1.621  1.5759 -2.0975  0.3549
 7720TIP3    H247356   5.179   6.694   1.578  2.0733  1.8286  0.2270
 7721TIP3   OH247357   6.750   7.667   2.975 -0.2124  0.2616 -0.1360
 7721TIP3    H147358   6.788   7.586   3.009 -0.3226  0.4106  0.3494
 7721TIP3    H247359   6.817   7.701   2.915  0.8439  0.9708  1.3651
 7722TIP3   OH247360   0.355   1.189   2.462 -1.1031  0.2833 -0.7760
 7722TIP3    H147361   0.289   1.246   2.503 -1.1735  1.2871 -2.2300
 7722TIP3    H247362   0.366   1.224   2.374  3.4661  2.0167  0.1759
 7723TIP3   OH247363   6.180   4.982   1.519  0.3632  0.4775 -0.0937
 7723TIP3    H147364   6.237   5.040   1.570  0.5061  0.1539  0.1172
 7723TIP3    H247365   6.225   4.898   1.518  0.4067  0.5080 -0.8487
 7724TIP3   OH247366   7.268   4.228   1.074 -0.2548  0.6476  0.2540
 7724TIP3    H147367   7.334   4.278   1.121 -0.9917  1.3485  0.5629
 7724TIP3    H247368   7.306   4.214   0.987  0.8817 -0.1843  0.8571
 7725TIP3   OH247369   1.921   0.798   3.088 -0.3090 -0.0865 -0.2209
 7725TIP3    H147370   1.884   0.873   3.040  0.1889 -0.3626 -1.0588
 7725TIP3    H247371   1.979   0.756   3.025  0.6892 -0.2220  0.7737
 7726TIP3   OH247372   5.325   6.309   2.989  0.4139 -0.1095 -0.1152
 7726TIP3    H147373   5.320   6.400   3.017 -0.4736 -0.6861  1.8191
 7726TIP3    H247374   5.368   6.264   3.061 -2.3129 -1.7569  0.6204
 7727TIP3   OH247375   1.872   1.923   1.136  0.7832  0.0127  0.2879
 7727TIP3    H147376   1.841   2.004   1.095  0.0504  0.3011  1.3471
 7727TIP3    H247377   1.848   1.854   1.075 -0.2985  0.4281  0.2169
 7728TIP3   OH247378   4.893   5.572   2.654 -0.4419  0.3480 -0.2233
 7728TIP3    H147379   4.940   5.654   2.636 -0.6769  0.5824  0.1902
 7728TIP3    H247380   4.954   5.522   2.709  0.1102 -0.1946 -1.2945
 7729TIP3   OH247381   3.519   7.657   2.063  0.6169  0.9564 -0.0674
 7729TIP3    H147382   3.543   7.727   2.124 -1.8286 -0.3216  2.6578
 7729TIP3    H247383   3.577   7.585   2.086  0.2329  0.7311  0.2098
 7730TIP3   OH247384   1.207   6.087   0.421 -0.1813 -0.4244 -0.4893
 7730TIP3    H147385   1.299   6.111   0.411 -0.0627 -1.4249 -2.0278
 7730TIP3    H247386   1.171   6.156   0.478  1.2177  0.6650 -0.8554
 7731TIP3   OH247387   5.709   6.462   1.271 -0.6068 -0.1098 -0.0354
 7731TIP3    H147388   5.660   6.427   1.346  0.2706  2.1331  1.6879
 7731TIP3    H247389   5.801   6.453   1.297 -0.2426 -0.0858 -1.2539
 7732TIP3   OH247390   2.673   4.607   1.677  0.3048 -0.5245 -0.0512
 7732TIP3    H147391   2.729   4.597   1.753  1.0409  0.6573 -0.4113
 7732TIP3    H247392   2.671   4.520   1.636  1.0018 -0.8267  0.5441
 7733TIP3   OH247393   5.481   2.734   3.561  0.9242 -0.2153  0.3558
 7733TIP3    H147394   5.392   2.768   3.571  1.0668 -0.5618  4.6088
 7733TIP3    H247395   5.485   2.660   3.623  4.2306 -0.0162  0.5130
 7734TIP3   OH247396   5.868   3.745   2.471 -0.1180  0.3318 -0.3952
 7734TIP3    H147397   5.836   3.808   2.407 -0.5528  0.0503 -0.4580
 7734TIP3    H247398   5.820   3.766   2.551  0.5234  0.7725 -0.1131
 7735TIP3   OH247399   1.671   4.091   1.336 -0.2817 -0.0875 -0.4846
 7735TIP3    H147400   1.710   4.155   1.397 -2.6508  1.3204 -0.3206
 7735TIP3    H247401   1.744   4.064   1.281  1.5383  0.1391  1.6480
 7736TIP3   OH247402   0.861   5.510   2.077 -0.0474 -0.3729 -0.0732
 7736TIP3    H147403   0.911   5.453   2.019  0.1051  0.3918 -0.7147
 7736TIP3    H247404   0.780   5.527   2.029  1.0829  2.2734 -1.2787
 7737TIP3   OH247405   6.346   6.539   1.679  0.3183 -0.0104  0.0928
 7737TIP3    H147406   6.370   6.631   1.685  0.7791 -0.1760  1.0776
 7737TIP3    H247407   6.273   6.529   1.740  1.0219 -0.5152  0.8817
 7738TIP3   OH247408   4.622   5.939   1.612  0.2043  0.2936  1.3344
 7738TIP3    H147409   4.531   5.911   1.623  0.7843 -1.4904  1.7698
 7738TIP3    H247410   4.617   6.004   1.541 -1.5213  0.9672  1.9993
 7739TIP3   OH247411   7.373   5.903   1.389 -0.3789 -0.1438 -0.0658
 7739TIP3    H147412   7.374   5.989   1.432 -1.5827  0.0566 -0.4112
 7739TIP3    H247413   7.364   5.841   1.462 -3.5087  0.2455  0.0099
 7740TIP3   OH247414   2.871   5.258   2.793 -0.1356 -0.0410  0.1634
 7740TIP3    H147415   2.864   5.325   2.725 -2.8384 -0.2266  0.1618
 7740TIP3    H247416   2.847   5.303   2.874 -2.5233 -1.0226  0.0853
 7741TIP3   OH247417   6.599   0.297   0.425  0.2233  0.1022  0.6215
 7741TIP3    H147418   6.505   0.295   0.410  0.1773  0.1040  0.9012
 7741TIP3    H247419   6.615   0.227   0.489  0.5818 -0.7131 -0.3243
 7742TIP3   OH247420   6.099   5.444   2.261 -0.2073 -0.1578  0.1579
 7742TIP3    H147421   6.050   5.520   2.230 -0.1266  0.5124  1.5963
 7742TIP3    H247422   6.145   5.412   2.183 -1.0865  0.6021 -0.7061
 7743TIP3   OH247423   3.915   5.505   2.314  0.1049  0.9491 -0.2193
 7743TIP3    H147424   3.981   5.447   2.277 -0.1596  0.7774 -0.4319
 7743TIP3    H247425   3.957   5.544   2.390 -0.4821 -1.3881  1.4182
 7744TIP3   OH247426   0.688   6.584   2.311  0.1487 -0.0957  0.0268
 7744TIP3    H147427   0.743   6.657   2.340  0.6632 -0.5234  0.1388
 7744TIP3    H247428   0.609   6.626   2.277  0.0412  0.4746  0.9373
 7745TIP3   OH247429   1.741   3.505   1.870  0.4747  0.2633 -0.0511
 7745TIP3    H147430   1.829   3.503   1.909  0.2752  1.6762  0.5242
 7745TIP3    H247431   1.720   3.598   1.863 -1.3651 -0.0584  0.6800
 7746TIP3   OH247432   1.231   4.586   1.847 -0.6000  0.2854 -0.0027
 7746TIP3    H147433   1.143   4.614   1.873 -1.0732 -0.5814 -0.6181
 7746TIP3    H247434   1.262   4.535   1.922 -1.6222 -1.4885 -0.7199
 7747TIP3   OH247435   1.506   7.483   1.716  0.1673 -0.3924  0.3058
 7747TIP3    H147436   1.499   7.429   1.637  2.8698  0.5676 -0.7141
 7747TIP3    H247437   1.576   7.442   1.766  1.3681  1.3449  0.1383
 7748TIP3   OH247438   0.600   5.131   1.966 -0.1742 -0.7094  0.6906
 7748TIP3    H147439   0.604   5.089   1.880 -0.7152  0.3547  0.1193
 7748TIP3    H247440   0.594   5.059   2.028  2.3690 -1.5826  0.0186
 7749TIP3   OH247441   3.652   2.284   3.552 -0.7997  0.3813 -0.3575
 7749TIP3    H147442   3.599   2.206   3.536 -0.3866 -0.2215  1.0890
 7749TIP3    H247443   3.660   2.325   3.466 -0.8805 -1.2551 -1.1889
 7750TIP3   OH247444   0.984   6.148   2.445  0.0470 -0.1340  0.4878
 7750TIP3    H147445   0.997   6.170   2.353  1.0483 -1.8580  0.1750
 7750TIP3    H247446   1.067   6.173   2.487 -0.2024  0.1442  0.8170
 7751TIP3   OH247447   1.850   3.893   0.699 -0.1854  0.0064  0.1506
 7751TIP3    H147448   1.906   3.826   0.660 -0.7656 -0.7738  0.6394
 7751TIP3    H247449   1.892   3.976   0.675  0.7304 -0.5366 -0.1705
 7752TIP3   OH247450   3.617   1.485   2.063 -0.0436  0.4560 -0.1133
 7752TIP3    H147451   3.607   1.544   1.988 -0.1956  0.8015  0.1717
 7752TIP3    H247452   3.711   1.473   2.073 -0.0503 -0.6323 -1.1516
 7753TIP3   OH247453   6.043   2.858   2.294  0.1193 -0.3946 -0.1459
 7753TIP3    H147454   6.063   2.772   2.330 -2.4172 -1.2113 -0.4772
 7753TIP3    H247455   6.023   2.842   2.202 -2.1695  0.2094  0.1936
 7754TIP3   OH247456   6.925   2.597   1.644  0.0639 -0.7144 -0.4680
 7754TIP3    H147457   6.899   2.591   1.736 -0.2090 -1.4285 -0.5848
 7754TIP3    H247458   6.843   2.595   1.595  0.1932 -0.1072 -0.7253
 7755TIP3   OH247459   3.654   1.067   2.224 -0.2138  0.0818 -0.3386
 7755TIP3    H147460   3.732   1.015   2.241  0.1101  0.9754  1.0815
 7755TIP3    H247461   3.647   1.069   2.128  0.5387 -1.3806 -0.4514
 7756TIP3   OH247462   7.584   1.842   2.842 -0.6095  0.0984  0.3377
 7756TIP3    H147463   7.660   1.841   2.783  0.1340 -0.2066  1.2766
 7756TIP3    H247464   7.592   1.924   2.890  0.5948 -1.0759  2.2548
 7757TIP3   OH247465   3.673   6.084   2.060 -0.0063  0.8939  0.4876
 7757TIP3    H147466   3.587   6.109   2.092  0.4954  2.7899  0.4591
 7757TIP3    H247467   3.717   6.044   2.135 -1.4298 -1.6725  0.0727
 7758TIP3   OH247468   6.036   3.318   0.874 -0.3983 -0.5980  0.0723
 7758TIP3    H147469   5.944   3.335   0.853  0.0027  0.6085 -0.7778
 7758TIP3    H247470   6.056   3.380   0.945 -0.1721 -0.7066  0.1048
 7759TIP3   OH247471   4.547   2.725   1.681  0.4208 -0.0310  0.2415
 7759TIP3    H147472   4.609   2.741   1.610  0.9101  2.4657  1.1385
 7759TIP3    H247473   4.602   2.704   1.756  0.1208  0.6045  0.6494
 7760TIP3   OH247474   1.207   5.789   2.907  0.0961 -0.2257  0.0746
 7760TIP3    H147475   1.202   5.821   2.817 -0.2348  0.5105  0.3516
 7760TIP3    H247476   1.120   5.751   2.923 -0.0642  0.2237  0.2929
 7761TIP3   OH247477   3.029   5.377   0.988  0.0733 -0.8044  0.0679
 7761TIP3    H147478   2.976   5.456   0.983 -0.2575 -1.0860 -1.3942
 7761TIP3    H247479   3.106   5.397   0.934  0.4642 -1.1353  0.4925
 7762TIP3   OH247480   1.464   7.205   2.810  0.0584  0.7545 -0.1974
 7762TIP3    H147481   1.523   7.235   2.879  0.2111  1.8232 -0.7764
 7762TIP3    H247482   1.377   7.213   2.850  0.2599 -0.6799  0.6021
 7763TIP3   OH247483   3.004   1.077   2.418 -0.4611 -0.0159 -0.5043
 7763TIP3    H147484   3.085   1.119   2.391  0.2062 -0.4818  0.7086
 7763TIP3    H247485   2.984   1.015   2.347  0.2123  0.1467 -0.8400
 7764TIP3   OH247486   2.927   7.580   1.458  0.0848 -0.4057 -0.5768
 7764TIP3    H147487   2.882   7.540   1.383 -0.6127  2.0941 -1.5886
 7764TIP3    H247488   3.004   7.622   1.421 -0.5862  1.3904 -0.0681
 7765TIP3   OH247489   0.723   0.605   2.747  0.2442 -0.0780 -0.0320
 7765TIP3    H147490   0.711   0.545   2.821  0.7299  0.4677  0.4997
 7765TIP3    H247491   0.746   0.689   2.787 -0.3845  0.4589 -0.7728
 7766TIP3   OH247492   2.593   7.553   1.331 -0.4677  0.4971  0.1029
 7766TIP3    H147493   2.597   7.526   1.422 -0.2860  0.8455  0.1996
 7766TIP3    H247494   2.499   7.555   1.311 -0.5002  0.2665  0.2328
 7767TIP3   OH247495   1.715   1.788   1.578  0.1466  0.6574  0.0616
 7767TIP3    H147496   1.728   1.745   1.493 -0.7605  0.8663 -0.1959
 7767TIP3    H247497   1.632   1.752   1.610  0.5476  0.4839  0.9291
 7768TIP3   OH247498   0.353   3.357   0.651  0.0844  0.5220  0.3074
 7768TIP3    H147499   0.438   3.317   0.634  0.1018  0.0898  1.3511
 7768TIP3    H247500   0.369   3.452   0.648  0.2763  0.4708 -1.0078
 7769TIP3   OH247501   3.414   4.335   1.469  0.4832 -0.1583  0.4154
 7769TIP3    H147502   3.407   4.311   1.561  0.1017  1.0669  0.7339
 7769TIP3    H247503   3.453   4.423   1.470  1.8775 -0.7129 -0.6724
 7770TIP3   OH247504   2.738   6.898   1.157  0.0037  0.0414 -0.2814
 7770TIP3    H147505   2.744   6.942   1.242 -0.4880  1.3709 -0.9014
 7770TIP3    H247506   2.662   6.938   1.115 -0.5072 -1.4793 -0.8726
 7771TIP3   OH247507   5.627   5.544   1.730  0.0691 -0.2472 -0.5368
 7771TIP3    H147508   5.689   5.594   1.676 -0.9937 -0.4110 -1.9765
 7771TIP3    H247509   5.628   5.589   1.815 -0.8871  2.3305 -1.7612
 7772TIP3   OH247510   4.379   5.907   0.989  0.2932 -0.1898  0.1760
 7772TIP3    H147511   4.310   5.966   1.020  0.4445  0.1284 -0.0788
 7772TIP3    H247512   4.458   5.935   1.036  0.0763 -1.1237  1.1236
 7773TIP3   OH247513   1.795   6.541   1.112  0.5219 -0.2638  0.3079
 7773TIP3    H147514   1.835   6.620   1.077  2.6633 -1.6904 -0.6862
 7773TIP3    H247515   1.851   6.516   1.186 -1.7814  0.6380  2.4925
 7774TIP3   OH247516   5.414   1.436   0.885 -0.1934  0.2710  0.2963
 7774TIP3    H147517   5.479   1.502   0.861  2.0524  0.0126  4.6540
 7774TIP3    H247518   5.462   1.353   0.883 -1.7869 -0.6737 -0.9646
 7775TIP3   OH247519   3.800   6.889   0.757 -0.5634 -0.0060  0.4420
 7775TIP3    H147520   3.882   6.848   0.732 -0.2242  0.6292  0.5018
 7775TIP3    H247521   3.825   6.974   0.793 -1.2388  0.1727  0.5079
 7776TIP3   OH247522   1.606   3.042   0.498  0.5411 -0.0341 -0.0723
 7776TIP3    H147523   1.549   3.118   0.510  0.0070 -0.1704 -1.5244
 7776TIP3    H247524   1.558   2.985   0.437  2.1769 -0.1805 -1.2976
 7777TIP3   OH247525   4.859   4.604   1.874 -0.0898  0.3706  0.1910
 7777TIP3    H147526   4.832   4.514   1.891  0.2423  0.1918 -0.2214
 7777TIP3    H247527   4.829   4.621   1.784  1.1312  0.1782 -0.2676
 7778TIP3   OH247528   1.079   4.584   2.157  0.1478 -0.0523 -0.8137
 7778TIP3    H147529   1.028   4.590   2.238  0.5749  1.0238 -0.6053
 7778TIP3    H247530   1.103   4.491   2.150 -1.4612 -0.4983 -0.6989
 7779TIP3   OH247531   7.017   4.087   0.868  0.0557 -0.3253  0.0823
 7779TIP3    H147532   7.081   4.041   0.815  0.8510  0.5774  0.2334
 7779TIP3    H247533   7.044   4.072   0.959 -0.2710 -0.4078  0.1680
 7780TIP3   OH247534   2.910   1.198   1.778  0.1976 -0.2879  0.4467
 7780TIP3    H147535   2.973   1.128   1.765 -0.0680 -0.0785 -3.0591
 7780TIP3    H247536   2.961   1.272   1.811  0.9572 -1.3335  1.6583
 7781TIP3   OH247537   3.542   5.280   1.554  0.0957 -0.6019 -0.5417
 7781TIP3    H147538   3.447   5.269   1.544  0.1901  0.2329 -2.8944
 7781TIP3    H247539   3.562   5.360   1.505  2.0760 -0.9208 -0.3158
 7782TIP3   OH247540   5.551   6.390   1.963  0.1575  0.1982  0.5674
 7782TIP3    H147541   5.620   6.366   2.026  1.3446 -1.2756 -1.2002
 7782TIP3    H247542   5.599   6.416   1.884 -1.3129  0.5825 -0.2294
 7783TIP3   OH247543   0.188   4.253   1.176 -0.3562  0.3582 -0.1837
 7783TIP3    H147544   0.249   4.199   1.126 -0.3140  1.3678 -1.2705
 7783TIP3    H247545   0.123   4.190   1.208  1.0680 -0.6932  0.7724
 7784TIP3   OH247546   0.736   5.598   1.735 -0.8007 -0.2020 -0.4727
 7784TIP3    H147547   0.724   5.577   1.642 -1.7450 -0.5916 -0.2690
 7784TIP3    H247548   0.728   5.514   1.780  0.0151 -0.0738 -0.0553
 7785TIP3   OH247549   2.792   3.136   2.088 -0.1161 -0.1330  0.7663
 7785TIP3    H147550   2.756   3.092   2.164 -1.4778  0.8500  0.7282
 7785TIP3    H247551   2.716   3.173   2.043  0.8236  0.8949 -0.0512
 7786TIP3   OH247552   4.863   6.728   0.678  0.0937 -0.4464 -0.0568
 7786TIP3    H147553   4.943   6.777   0.659 -0.2252 -0.2871 -1.0487
 7786TIP3    H247554   4.882   6.638   0.651 -0.1521 -0.3479 -0.5748
 7787TIP3   OH247555   5.644   5.806   1.261  0.0304 -0.0364  0.4223
 7787TIP3    H147556   5.689   5.826   1.178  0.2822 -1.9381  0.0507
 7787TIP3    H247557   5.603   5.721   1.246 -2.2385  0.8082  1.3772
 7788TIP3   OH247558   1.309   6.537   7.308 -0.0176 -0.4980 -0.3226
 7788TIP3    H147559   1.279   6.551   7.398  0.8706  0.3105 -0.1286
 7788TIP3    H247560   1.360   6.616   7.288 -0.1518 -0.6991 -1.5134
 7789TIP3   OH247561   2.276   2.056   1.763  0.1397 -0.1227  0.2738
 7789TIP3    H147562   2.287   1.973   1.811  0.0245 -1.1561 -1.4144
 7789TIP3    H247563   2.268   2.030   1.672 -0.6837  1.7225 -0.2223
 7790TIP3   OH247564   2.932   2.660   1.010 -0.7298 -0.6441 -0.2075
 7790TIP3    H147565   2.861   2.611   1.051 -0.2395 -1.4367 -0.2829
 7790TIP3    H247566   3.004   2.597   1.003  0.4086  0.4673  0.9918
 7791TIP3   OH247567   2.463   7.275   0.831  0.1003  0.0333  0.1824
 7791TIP3    H147568   2.505   7.306   0.911  0.5161 -1.7486  0.6941
 7791TIP3    H247569   2.504   7.325   0.760  0.1007  1.2505  1.0269
 7792TIP3   OH247570   0.357   5.083   1.608 -0.1170  0.3432  0.0159
 7792TIP3    H147571   0.293   5.143   1.645  1.3717  1.7178  0.4413
 7792TIP3    H247572   0.432   5.138   1.586  0.5403 -1.0553 -1.4391
 7793TIP3   OH247573   2.120   6.201   2.055 -0.3537  0.0683  0.1459
 7793TIP3    H147574   2.035   6.223   2.092 -0.5470 -0.0380 -0.2374
 7793TIP3    H247575   2.181   6.260   2.099 -0.4638 -0.6107  1.2478
 7794TIP3   OH247576   6.908   7.440   3.086  0.0026 -0.1044  0.5392
 7794TIP3    H147577   6.870   7.393   3.160  0.3241 -0.5472  0.4286
 7794TIP3    H247578   6.884   7.389   3.009 -2.7546  1.8178 -0.0350
 7795TIP3   OH247579   4.822   3.991   2.630 -0.9220  0.2025 -0.1472
 7795TIP3    H147580   4.851   3.919   2.574  2.0539  0.3919  0.9544
 7795TIP3    H247581   4.852   4.070   2.585  0.5191  0.4145  1.1049
 7796TIP3   OH247582   3.328   0.903   2.067  0.3001  0.0483  0.0547
 7796TIP3    H147583   3.355   0.946   2.148 -0.5453 -0.6516  0.7304
 7796TIP3    H247584   3.290   0.973   2.013  2.2667  0.8212 -0.4229
 7797TIP3   OH247585   3.587   6.909   1.931  0.4139  0.6690 -0.1988
 7797TIP3    H147586   3.654   6.881   1.994 -0.1529  3.3939  1.7844
 7797TIP3    H247587   3.510   6.925   1.985 -1.0097  0.3213 -2.0523
 7798TIP3   OH247588   6.409   6.832   2.682  0.3091  1.1029  0.2062
 7798TIP3    H147589   6.444   6.786   2.759  2.1669  1.8040 -0.1772
 7798TIP3    H247590   6.456   6.914   2.679  0.9286  0.7402 -2.1841
 7799TIP3   OH247591   4.962   1.501   2.893 -0.3605 -0.2313  0.4993
 7799TIP3    H147592   4.965   1.415   2.850  2.7266  0.1041 -0.1263
 7799TIP3    H247593   5.027   1.496   2.963  0.3363  1.7904  0.0588
 7800TIP3   OH247594   5.481   2.356   1.828  0.0181 -0.5052 -0.0346
 7800TIP3    H147595   5.486   2.451   1.830  0.6658 -0.5463  0.1768
 7800TIP3    H247596   5.509   2.327   1.914 -1.1527 -0.8563  0.2580
 7801TIP3   OH247597   1.839   7.126   2.503 -0.4530  0.6043 -0.1039
 7801TIP3    H147598   1.818   7.036   2.478 -2.1828  0.9438  0.0291
 7801TIP3    H247599   1.856   7.121   2.597  1.1590  0.1517 -0.3973
 7802TIP3   OH247600   6.970   5.202   2.057  0.1006 -0.3973 -0.1279
 7802TIP3    H147601   7.021   5.121   2.067 -1.2753 -1.7455 -2.9839
 7802TIP3    H247602   6.884   5.180   2.094 -0.1243 -0.0640 -0.4590
 7803TIP3   OH247603   5.803   6.287   2.091  0.1478 -0.2032  0.4991
 7803TIP3    H147604   5.782   6.233   2.015 -1.3786  1.7753 -0.6002
 7803TIP3    H247605   5.867   6.236   2.140  0.1073 -2.1883 -1.3562
 7804TIP3   OH247606   6.849   5.956   2.293  0.1811 -0.2724  0.0769
 7804TIP3    H147607   6.894   5.873   2.310  1.0282  0.5803  2.3518
 7804TIP3    H247608   6.758   5.930   2.277  0.5815 -1.7055 -0.0558
 7805TIP3   OH247609   3.544   6.440   1.319 -0.6798 -0.6712 -0.2004
 7805TIP3    H147610   3.516   6.470   1.233 -0.8761 -0.2599 -0.0028
 7805TIP3    H247611   3.492   6.493   1.380  2.0290  1.7572  0.2383
 7806TIP3   OH247612   1.751   2.904   1.771  0.2816 -0.1785  0.1228
 7806TIP3    H147613   1.658   2.922   1.759  0.6111  1.4089 -0.3580
 7806TIP3    H247614   1.778   2.860   1.690  0.3608  1.2711 -0.6717
 7807TIP3   OH247615   0.676   5.090   1.363 -0.0892 -0.2233 -0.2375
 7807TIP3    H147616   0.760   5.053   1.335  1.0465  0.2791  2.1853
 7807TIP3    H247617   0.615   5.017   1.362  1.1588 -1.3329  0.8003
 7808TIP3   OH247618   3.127   6.115   2.990  0.5626 -0.0826  0.1370
 7808TIP3    H147619   3.194   6.120   3.058  0.5667  1.9753  0.0483
 7808TIP3    H247620   3.123   6.204   2.954  0.5780 -1.0950 -2.5767
 7809TIP3   OH247621   5.189   3.342   1.451 -0.3550  0.8917 -0.6604
 7809TIP3    H147622   5.216   3.311   1.537  1.8883  1.2690 -1.1663
 7809TIP3    H247623   5.127   3.413   1.469 -0.5315  0.4402  0.6054
 7810TIP3   OH247624   5.107   1.187   2.092  0.2254 -0.4629  0.0245
 7810TIP3    H147625   5.019   1.224   2.096 -0.8198 -2.7395 -0.2059
 7810TIP3    H247626   5.152   1.225   2.168 -1.0120  0.5681  0.2833
 7811TIP3   OH247627   2.721   4.841   1.929 -0.0865 -0.6516  0.0924
 7811TIP3    H147628   2.699   4.929   1.961  1.3071 -0.0438 -0.5392
 7811TIP3    H247629   2.638   4.794   1.928 -1.0450  0.9887 -0.5768
 7812TIP3   OH247630   0.998   1.063   2.653  0.7169  0.1534  0.1352
 7812TIP3    H147631   0.907   1.057   2.624  0.4684 -0.1630  0.9649
 7812TIP3    H247632   1.008   0.992   2.717  1.4850  0.3308  0.2263
 7813TIP3   OH247633   1.745   7.280   1.145  0.1896  0.0188  0.3046
 7813TIP3    H147634   1.728   7.186   1.141 -0.1115  0.0901 -0.1551
 7813TIP3    H247635   1.776   7.303   1.058  2.8764 -0.1243  1.1308
 7814TIP3   OH247636   5.480   4.568   1.003  0.1098  0.3889 -0.1143
 7814TIP3    H147637   5.390   4.545   1.026  0.5946 -0.6908  0.7717
 7814TIP3    H247638   5.472   4.617   0.921 -1.0412 -2.5930 -1.9640
 7815TIP3   OH247639   1.539   0.006   1.147  0.2576  0.0929  0.8595
 7815TIP3    H147640   1.527   0.101   1.142  0.2982  0.0618 -0.2592
 7815TIP3    H247641   1.458  -0.029   1.110  0.8263 -0.2690 -0.0759
 7816TIP3   OH247642   1.855   5.425   0.523 -0.2813 -0.2747  0.4665
 7816TIP3    H147643   1.796   5.413   0.597 -0.0586  1.3997  0.9438
 7816TIP3    H247644   1.859   5.519   0.509  2.0063 -0.3299  0.2474
 7817TIP3   OH247645   4.124   1.024   2.028 -0.1456  0.1070  0.2248
 7817TIP3    H147646   4.080   0.939   2.031 -0.8304  0.4675  1.2951
 7817TIP3    H247647   4.146   1.043   2.120  2.0692  0.0641 -0.2490
 7818TIP3   OH247648   4.394   5.372   1.265  0.4958 -0.6340 -0.1668
 7818TIP3    H147649   4.425   5.391   1.176  2.9125 -0.8375  0.5775
 7818TIP3    H247650   4.462   5.318   1.304  0.2837  0.7493  2.3438
 7819TIP3   OH247651   3.271   2.983   3.213  0.4963  0.2607  0.5049
 7819TIP3    H147652   3.205   2.916   3.228  0.2736  0.1741 -0.7910
 7819TIP3    H247653   3.339   2.965   3.279 -0.4810  0.0092  1.4764
 7820TIP3   OH247654   5.931   2.843   1.375 -0.1674  0.1551 -0.3130
 7820TIP3    H147655   5.922   2.901   1.300  1.7983 -0.7702 -1.3069
 7820TIP3    H247656   5.858   2.781   1.367 -1.6989  1.8011  0.2225
 7821TIP3   OH247657   1.790   4.284   2.511  0.1000  0.4060 -0.0742
 7821TIP3    H147658   1.803   4.364   2.562 -0.4214  0.4025  0.0727
 7821TIP3    H247659   1.836   4.216   2.561  0.9036  0.6824 -0.4188
 7822TIP3   OH247660   3.045   1.946   1.434  0.7178  0.3241  0.1249
 7822TIP3    H147661   3.116   1.997   1.394  0.2737  1.2019  0.4314
 7822TIP3    H247662   3.065   1.856   1.411  2.3813  0.4510  0.8530
 7823TIP3   OH247663   7.514   7.404   2.363 -0.0136 -0.1476 -0.7258
 7823TIP3    H147664   7.506   7.407   2.268  1.0624 -1.3834 -0.8915
 7823TIP3    H247665   7.479   7.318   2.388  0.2188 -0.0662 -0.0831
 7824TIP3   OH247666   7.492   0.027   2.207  0.1194 -0.2337  0.0820
 7824TIP3    H147667   7.420  -0.007   2.260 -0.5385  1.8328  0.5879
 7824TIP3    H247668   7.510  -0.043   2.144 -0.5054 -1.8856  1.6443
 7825TIP3   OH247669   7.570   7.243   0.956 -0.4501 -0.2020 -0.4169
 7825TIP3    H147670   7.595   7.223   0.866  3.5061 -1.7972  0.8163
 7825TIP3    H247671   7.527   7.163   0.987 -0.5312 -0.1850 -0.4854
 7826TIP3   OH247672   0.183   2.491   2.201  0.0689 -0.1483  0.3163
 7826TIP3    H147673   0.121   2.441   2.254  0.2008 -0.1169  0.5015
 7826TIP3    H247674   0.152   2.479   2.111  0.8514 -1.6417  0.2213
 7827TIP3   OH247675   4.491   0.925   1.788 -0.0089 -0.0176 -0.3279
 7827TIP3    H147676   4.443   0.998   1.826  1.3848  1.2480 -0.9094
 7827TIP3    H247677   4.547   0.894   1.859  0.2319  0.2216 -0.4145
 7828TIP3   OH247678   3.013   2.651   0.560  0.0952 -0.5349 -0.7651
 7828TIP3    H147679   3.008   2.740   0.524 -0.5360 -0.1292  0.2675
 7828TIP3    H247680   2.922   2.622   0.564  0.2843 -1.1742 -0.9251
 7829TIP3   OH247681   1.276   2.643   1.534  0.1500 -0.1598  0.2090
 7829TIP3    H147682   1.283   2.551   1.560  1.3133 -0.1636 -0.0406
 7829TIP3    H247683   1.199   2.675   1.580  1.0551 -0.6489  2.1626
 7830TIP3   OH247684   4.441   3.716   1.119  0.0834  0.0095 -0.5244
 7830TIP3    H147685   4.406   3.784   1.177  1.1866 -0.1648  0.3764
 7830TIP3    H247686   4.517   3.757   1.078  0.3461 -0.4540 -0.4989
 7831TIP3   OH247687   3.888   6.142   1.171  0.0786  0.3278  0.5633
 7831TIP3    H147688   3.810   6.138   1.115  2.5630 -1.3348 -3.1644
 7831TIP3    H247689   3.898   6.236   1.189 -0.0708  1.2969 -3.3108
 7832TIP3   OH247690   4.153   0.006   0.994  0.5207  0.4027 -0.0828
 7832TIP3    H147691   4.235   0.023   1.040 -0.1429 -0.7836  1.6691
 7832TIP3    H247692   4.179  -0.006   0.903  2.4626 -0.9415  0.5677
 7833TIP3   OH247693   2.883   5.920   1.596  1.1419  0.2281  0.0014
 7833TIP3    H147694   2.883   5.825   1.583  0.5424  0.2947 -0.5376
 7833TIP3    H247695   2.814   5.952   1.537  1.2715  0.9857  0.2553
 7834TIP3   OH247696   4.503   4.410   0.835 -0.1820 -0.0980 -0.4165
 7834TIP3    H147697   4.535   4.322   0.817  0.9177 -0.0157  0.9773
 7834TIP3    H247698   4.548   4.466   0.772  1.9560 -0.0883  1.0126
 7835TIP3   OH247699   4.070   7.437   3.031  0.2487  0.4471  0.2382
 7835TIP3    H147700   4.062   7.523   3.071  0.5366 -0.5289  2.5058
 7835TIP3    H247701   4.002   7.384   3.073  0.5175 -0.6172 -0.6285
 7836TIP3   OH247702   1.756   1.260   1.910  0.2836  0.4599  0.2087
 7836TIP3    H147703   1.742   1.353   1.930  2.2285  0.9576 -0.5897
 7836TIP3    H247704   1.669   1.221   1.919 -0.6258  2.3945  0.3202
 7837TIP3   OH247705   5.238   3.891   2.352 -0.5054 -0.4029  0.3238
 7837TIP3    H147706   5.326   3.928   2.344 -0.9927  0.7478 -0.0044
 7837TIP3    H247707   5.224   3.844   2.270  0.1719 -1.4662  0.7968
 7838TIP3   OH247708   1.501   4.519   2.241  0.2810  0.3510  0.0095
 7838TIP3    H147709   1.446   4.554   2.172 -1.2966 -0.9192  0.5778
 7838TIP3    H247710   1.494   4.584   2.312 -0.3627  0.2686  0.0231
 7839TIP3   OH247711   5.038   4.044   0.848  0.4256 -0.3049  0.5695
 7839TIP3    H147712   5.019   3.951   0.836 -0.0244 -0.0658 -0.6847
 7839TIP3    H247713   5.064   4.075   0.761 -0.5044  0.9888  0.7277
 7840TIP3   OH247714   7.593   6.503   1.866 -0.5462  0.1243  0.5789
 7840TIP3    H147715   7.629   6.589   1.845  0.7779 -0.5531 -0.0423
 7840TIP3    H247716   7.503   6.505   1.832  0.2101  0.4694 -1.5405
 7841TIP3   OH247717   7.019   0.800   3.288 -0.2855 -0.0060  0.2115
 7841TIP3    H147718   7.081   0.868   3.314 -0.3764 -0.0369  0.5182
 7841TIP3    H247719   6.960   0.792   3.363  0.0035 -0.7472  0.3665
 7842TIP3   OH247720   1.591   0.658   1.929 -0.5965 -0.2187  0.6778
 7842TIP3    H147721   1.538   0.582   1.907 -1.9422  0.8923 -0.0241
 7842TIP3    H247722   1.616   0.696   1.845 -0.3817  0.4131  1.0139
 7843TIP3   OH247723   7.307   2.354   3.368  0.0365  0.0587 -0.6080
 7843TIP3    H147724   7.300   2.385   3.278  0.6010 -0.8153 -0.9738
 7843TIP3    H247725   7.390   2.306   3.370  0.2442  0.4376  0.4942
 7844TIP3   OH247726   4.288   5.095   1.383  0.0077 -0.1337 -0.0837
 7844TIP3    H147727   4.202   5.052   1.386 -1.4280  2.5267  2.6147
 7844TIP3    H247728   4.269   5.186   1.360  2.1290  0.4544  0.2901
 7845TIP3   OH247729   1.824   2.232   1.030  0.0397 -0.4611 -0.0479
 7845TIP3    H147730   1.895   2.283   0.991  1.1950 -2.6776 -1.0072
 7845TIP3    H247731   1.761   2.222   0.958  0.6866 -1.8659 -0.4602
 7846TIP3   OH247732   3.983   5.289   0.674  0.4888 -0.9398  0.0513
 7846TIP3    H147733   3.948   5.340   0.746  0.5616 -0.6510 -0.1175
 7846TIP3    H247734   4.023   5.213   0.716  0.8319 -0.6013  0.3443
 7847TIP3   OH247735   7.596   6.153   1.380 -0.3759 -0.1489 -0.3501
 7847TIP3    H147736   7.655   6.085   1.349 -1.0017 -0.7106 -0.3244
 7847TIP3    H247737   7.608   6.155   1.475 -0.4004 -0.2598 -0.3454
 7848TIP3   OH247738   7.253   3.992   1.265  0.1330 -0.2816  0.1036
 7848TIP3    H147739   7.331   3.946   1.295  0.1369  0.6276  1.5864
 7848TIP3    H247740   7.287   4.071   1.222  0.0790 -0.9862 -1.2992
 7849TIP3   OH247741   0.724   1.976   1.722 -0.1042  0.1283 -0.3599
 7849TIP3    H147742   0.678   1.962   1.639  2.2510 -0.3378 -1.7033
 7849TIP3    H247743   0.721   1.891   1.766  1.2520 -0.5550 -1.4766
 7850TIP3   OH247744   3.705   5.152   2.302  0.4540  0.0474  0.2781
 7850TIP3    H147745   3.735   5.231   2.346 -0.3536  0.6873 -0.2981
 7850TIP3    H247746   3.635   5.181   2.244  0.9568 -0.8901 -0.8475
 7851TIP3   OH247747   0.419   4.508   2.023  0.4097  0.0218 -0.0646
 7851TIP3    H147748   0.508   4.485   2.050  0.0951 -1.0094  0.1450
 7851TIP3    H247749   0.430   4.546   1.936  1.0032 -0.7669 -0.3558
 7852TIP3   OH247750   6.731   6.866   1.721  0.0647 -0.6502  0.1771
 7852TIP3    H147751   6.703   6.939   1.776 -0.3212  0.1268 -1.0046
 7852TIP3    H247752   6.766   6.802   1.782  0.6082  0.6051  1.2326
 7853TIP3   OH247753   3.234   3.299   0.645 -0.4973 -0.5872 -0.3095
 7853TIP3    H147754   3.148   3.341   0.655  0.3830  0.9547  1.3856
 7853TIP3    H247755   3.268   3.292   0.734  2.3995  1.7103 -1.0578
 7854TIP3   OH247756   7.640   6.091   1.664  0.7509  0.1957 -0.2239
 7854TIP3    H147757   7.702   6.022   1.688  1.2427  0.9412  0.7300
 7854TIP3    H247758   7.558   6.066   1.707 -0.0923 -1.5204 -2.5942
 7855TIP3   OH247759   3.483   7.231   1.868 -0.0035  0.2834 -0.7730
 7855TIP3    H147760   3.408   7.257   1.815  0.1733 -0.6751 -1.5314
 7855TIP3    H247761   3.487   7.136   1.859 -0.5302 -0.0511  1.7544
 7856TIP3   OH247762   4.387   7.165   3.097 -0.2703 -0.3084 -0.1426
 7856TIP3    H147763   4.305   7.188   3.142  0.3874  0.2971  0.7879
 7856TIP3    H247764   4.447   7.143   3.168  0.5712 -0.0874 -0.7757
 7857TIP3   OH247765   7.005   2.648   2.594 -0.6686  0.2823 -0.2271
 7857TIP3    H147766   7.078   2.625   2.652 -1.4237 -0.0290  0.6079
 7857TIP3    H247767   6.927   2.627   2.644 -1.3621 -1.9208 -2.0763
 7858TIP3   OH247768   4.074   4.967   0.585 -0.1762  0.1382 -0.1974
 7858TIP3    H147769   4.132   5.041   0.599 -0.3766  0.3262 -0.3497
 7858TIP3    H247770   4.099   4.903   0.652  0.1848  0.2278 -0.2480
 7859TIP3   OH247771   6.546   3.597   1.945  0.2158  0.2701  0.0235
 7859TIP3    H147772   6.636   3.605   1.974  0.2627 -0.8184  0.2337
 7859TIP3    H247773   6.494   3.632   2.018  0.4043 -0.8859  0.7476
 7860TIP3   OH247774   4.536   1.279   4.238  0.7015  0.3966  0.0987
 7860TIP3    H147775   4.580   1.342   4.181 -0.7541  0.2672 -1.2141
 7860TIP3    H247776   4.446   1.311   4.245  0.4901 -0.3743  1.1715
 7861TIP3   OH247777   3.236   1.803   1.036 -0.7279 -0.4125  0.3377
 7861TIP3    H147778   3.243   1.726   0.979  2.3593 -0.9572  1.2395
 7861TIP3    H247779   3.240   1.878   0.977 -0.6280 -0.9594 -0.3564
 7862TIP3   OH247780   6.609   3.909   0.800 -0.0961  0.1744  0.3731
 7862TIP3    H147781   6.553   3.869   0.733  0.2212 -2.2317  1.4441
 7862TIP3    H247782   6.551   3.923   0.875  0.3693 -0.9335  0.9657
 7863TIP3   OH247783   4.228   6.915   3.079 -0.4312 -0.3049  0.0845
 7863TIP3    H147784   4.242   6.923   2.985 -1.7381  0.7038 -0.0515
 7863TIP3    H247785   4.304   6.958   3.119  0.5167 -1.4145 -0.4763
 7864TIP3   OH247786   0.029   6.489   2.468 -0.0674 -0.5366  0.0762
 7864TIP3    H147787   0.107   6.545   2.476 -1.4344  1.6617 -0.9846
 7864TIP3    H247788  -0.008   6.512   2.383 -2.4124 -0.7386  0.9705
 7865TIP3   OH247789   4.792   1.831   3.784 -0.1711  0.1938  0.2885
 7865TIP3    H147790   4.835   1.916   3.782  1.1809 -0.4834 -0.5083
 7865TIP3    H247791   4.700   1.851   3.767  0.3689  1.3575 -1.4703
 7866TIP3   OH247792   6.807   1.049   0.961 -0.6597 -0.7519  0.3596
 7866TIP3    H147793   6.798   1.134   0.918 -2.5456 -0.4800  1.1959
 7866TIP3    H247794   6.743   0.993   0.917 -1.0498 -1.0867  1.3274
 7867TIP3   OH247795   0.684   1.616   1.573  0.6576  0.1651  0.2318
 7867TIP3    H147796   0.718   1.608   1.484  0.1212 -0.9546  0.1021
 7867TIP3    H247797   0.591   1.594   1.565  0.7904 -0.8869  1.1900
 7868TIP3   OH247798   5.336   0.061   2.787 -0.3207 -0.7314 -0.4899
 7868TIP3    H147799   5.338   0.023   2.699 -2.4948  0.2290 -1.0016
 7868TIP3    H247800   5.247   0.046   2.818 -0.2053  0.8226  0.7075
 7869TIP3   OH247801   2.448   5.517   1.095 -0.7227 -0.4449  0.0057
 7869TIP3    H147802   2.397   5.478   1.024  0.5664 -3.7439  0.7071
 7869TIP3    H247803   2.539   5.495   1.075 -0.3055 -1.3206  2.4913
 7870TIP3   OH247804   0.879   6.778   2.128  0.0348  0.1038  0.8966
 7870TIP3    H147805   0.849   6.689   2.110  1.7544 -0.1084 -1.3153
 7870TIP3    H247806   0.800   6.832   2.118 -0.3333 -0.7787 -1.5198
 7871TIP3   OH247807   4.707   3.019   2.313 -0.5425  0.6307  0.2277
 7871TIP3    H147808   4.697   2.925   2.331  0.6278  0.4751  0.1601
 7871TIP3    H247809   4.795   3.040   2.344 -0.3545  1.4491 -0.8028
 7872TIP3   OH247810   2.605   1.984   2.458 -0.3312 -0.3024  0.3365
 7872TIP3    H147811   2.615   1.950   2.547  0.8369  0.8190  0.6770
 7872TIP3    H247812   2.674   2.051   2.451  0.1702 -0.9821 -1.7136
 7873TIP3   OH247813   0.063   7.130   1.578 -0.3043 -0.2802 -0.0935
 7873TIP3    H147814  -0.030   7.140   1.599 -0.4885 -0.4365 -0.7803
 7873TIP3    H247815   0.064   7.068   1.505  0.5049 -2.0360  1.3499
 7874TIP3   OH247816   6.563   1.946   1.462 -0.2487 -0.0902 -0.1241
 7874TIP3    H147817   6.518   1.876   1.509  2.8149 -0.5305  2.4912
 7874TIP3    H247818   6.529   2.026   1.499 -1.7734 -0.2219 -1.1575
 7875TIP3   OH247819   5.326   6.570   1.127  0.0553  0.3728 -0.4027
 7875TIP3    H147820   5.323   6.527   1.212  2.0444 -1.7136 -1.2671
 7875TIP3    H247821   5.409   6.617   1.127 -0.0879  0.6385 -1.0480
 7876TIP3   OH247822   7.237   2.080   3.189  0.5652  1.1681  0.3831
 7876TIP3    H147823   7.288   2.047   3.263  2.3925 -0.7615 -1.5989
 7876TIP3    H247824   7.280   2.162   3.165  1.5513  0.5281 -0.0708
 7877TIP3   OH247825   0.575   5.354   1.140  0.3039 -0.2897 -0.2520
 7877TIP3    H147826   0.624   5.340   1.059  1.0471  0.9009 -0.0242
 7877TIP3    H247827   0.642   5.362   1.207 -0.1714  1.3740  0.0661
 7878TIP3   OH247828   1.832   3.086   2.958 -0.0088 -0.2357 -0.4510
 7878TIP3    H147829   1.762   3.089   2.893  0.0483 -1.4885 -0.6026
 7878TIP3    H247830   1.906   3.046   2.912  1.1442  1.8839 -0.5624
 7879TIP3   OH247831   3.146   3.465   2.617 -0.3207 -0.8481  0.7838
 7879TIP3    H147832   3.209   3.433   2.682  1.6233 -1.5664 -1.3252
 7879TIP3    H247833   3.105   3.541   2.658  2.0439 -0.2628  2.2072
 7880TIP3   OH247834   2.649   5.671   1.713 -0.0023  0.0728  0.4672
 7880TIP3    H147835   2.679   5.581   1.722  0.8594  0.2740 -0.2648
 7880TIP3    H247836   2.573   5.666   1.656  1.5138  0.0212 -1.6877
 7881TIP3   OH247837   1.732   1.105   1.481  0.3774 -0.0521 -0.3337
 7881TIP3    H147838   1.805   1.151   1.522 -0.0280 -0.5463  1.0080
 7881TIP3    H247839   1.680   1.072   1.555 -1.9981  1.5035 -1.1667
 7882TIP3   OH247840   1.676   4.986   1.624 -0.0678 -0.1643 -0.2520
 7882TIP3    H147841   1.719   5.039   1.691 -0.1871 -0.9071  0.4310
 7882TIP3    H247842   1.674   4.898   1.662 -1.0341 -0.3942 -0.8213
 7883TIP3   OH247843   3.403   3.798   3.078 -0.1666  0.4500 -0.0562
 7883TIP3    H147844   3.485   3.786   3.127 -0.1542  0.4470 -0.0777
 7883TIP3    H247845   3.413   3.884   3.036 -1.0808  1.4804  1.7066
 7884TIP3   OH247846   5.275   2.645   1.113  0.4463  0.6578 -0.1751
 7884TIP3    H147847   5.194   2.645   1.061  0.3782  0.3621 -0.0716
 7884TIP3    H247848   5.339   2.602   1.056  0.3065  0.0992  0.0826
 7885TIP3   OH247849   3.871   2.606   2.941  0.3030 -0.5696 -0.6174
 7885TIP3    H147850   3.884   2.608   3.035  0.6662 -1.4543 -0.6432
 7885TIP3    H247851   3.932   2.672   2.907  0.6986 -0.7680 -0.2962
 7886TIP3   OH247852   5.847   5.983   2.671  0.1926 -0.0774 -0.3120
 7886TIP3    H147853   5.877   6.074   2.671  0.2159 -0.0844 -0.6553
 7886TIP3    H247854   5.835   5.962   2.764  0.6590  0.1208 -0.1998
 7887TIP3   OH247855   6.243   6.834   2.250  0.5515 -0.2657  0.0356
 7887TIP3    H147856   6.198   6.752   2.229  0.0667 -0.2804  1.0830
 7887TIP3    H247857   6.311   6.809   2.312  0.9329  0.0088 -0.2696
 7888TIP3   OH247858   3.243   0.353   3.070 -0.5207 -0.5802 -0.5357
 7888TIP3    H147859   3.276   0.308   2.992  0.1430  1.0292 -1.2229
 7888TIP3    H247860   3.164   0.303   3.094  0.1473 -2.0603 -1.2661
 7889TIP3   OH247861   6.310   1.354   1.219  0.1019  0.6813 -0.2423
 7889TIP3    H147862   6.340   1.305   1.143  1.5422  2.6146 -1.0185
 7889TIP3    H247863   6.388   1.364   1.273 -0.6325  0.3828  0.8929
 7890TIP3   OH247864   1.094   7.567   1.868  0.5715 -0.2979  0.4807
 7890TIP3    H147865   1.072   7.632   1.801  3.0826  0.6283  0.4442
 7890TIP3    H247866   1.085   7.483   1.824  0.9394  0.2288 -0.6281
 7891TIP3   OH247867   3.421   5.028   1.374 -0.2682  0.7651  0.3261
 7891TIP3    H147868   3.495   4.993   1.424 -2.7082 -2.7572  1.9104
 7891TIP3    H247869   3.450   5.025   1.283  2.2798  1.7426  1.0280
 7892TIP3   OH247870   4.612   7.608   1.473  0.0903 -0.9140 -0.0700
 7892TIP3    H147871   4.598   7.623   1.379  0.4498 -0.9751 -0.1333
 7892TIP3    H247872   4.528   7.574   1.504 -0.6920  0.9651  0.0296
 7893TIP3   OH247873   1.239   1.179   2.564  0.2394  0.3791 -0.3298
 7893TIP3    H147874   1.157   1.144   2.599  0.1259 -1.3080 -2.0823
 7893TIP3    H247875   1.243   1.269   2.596 -1.6867  0.1244  0.7790
 7894TIP3   OH247876   5.907   1.547   1.935 -0.5894 -0.1823 -0.7743
 7894TIP3    H147877   5.841   1.509   1.876 -1.6211  0.5842 -0.1541
 7894TIP3    H247878   5.910   1.485   2.008 -1.6679  0.4701 -0.1499
 7895TIP3   OH247879   2.779   6.786   2.325  0.3734 -0.2349  0.3096
 7895TIP3    H147880   2.845   6.850   2.353 -0.6451 -0.7130  4.4071
 7895TIP3    H247881   2.696   6.833   2.329 -0.0385 -0.8849 -0.2817
 7896TIP3   OH247882   4.207   5.197   2.917  0.3517 -0.0009 -0.1957
 7896TIP3    H147883   4.191   5.278   2.868 -2.2606 -0.0654  0.4005
 7896TIP3    H247884   4.152   5.132   2.874  0.1152 -0.7175  1.1301
 7897TIP3   OH247885   5.526   2.463   0.744 -0.8702 -0.6077 -0.0367
 7897TIP3    H147886   5.563   2.433   0.661  1.5092 -0.0994  0.7902
 7897TIP3    H247887   5.550   2.396   0.807  0.4775  0.7214  0.9156
 7898TIP3   OH247888   1.329   3.097   0.818 -0.7960 -0.3421  0.3970
 7898TIP3    H147889   1.261   3.036   0.791 -0.3553 -1.1918  1.1760
 7898TIP3    H247890   1.347   3.075   0.909  2.4380 -1.9920 -0.5007
 7899TIP3   OH247891   3.826   2.504   2.330  0.2194  0.0168  0.8662
 7899TIP3    H147892   3.835   2.513   2.425  0.7977  0.8519  0.7437
 7899TIP3    H247893   3.889   2.436   2.306 -0.1246 -0.3932  1.1057
 7900TIP3   OH247894   1.507   5.400   3.011  0.1648  0.2812 -0.6346
 7900TIP3    H147895   1.497   5.491   2.984  2.1891  0.5253 -0.7476
 7900TIP3    H247896   1.435   5.353   2.968 -1.2055  1.8761 -0.1645
 7901TIP3   OH247897   2.268   2.667   2.892 -0.3351  0.0898  0.2695
 7901TIP3    H147898   2.270   2.690   2.800 -1.7017 -0.2702  0.1315
 7901TIP3    H247899   2.333   2.725   2.933  1.8594 -1.2054 -1.1904
 7902TIP3   OH247900   1.148   3.403   2.876  0.1527 -0.5569 -0.0084
 7902TIP3    H147901   1.133   3.488   2.917 -0.2964 -1.1605  1.1297
 7902TIP3    H247902   1.161   3.423   2.783  0.3744  0.7742  0.2900
 7903TIP3   OH247903   3.581   5.651   1.527 -0.5222 -0.1968 -0.3481
 7903TIP3    H147904   3.497   5.656   1.480 -1.1363  0.6040  0.7697
 7903TIP3    H247905   3.627   5.577   1.487 -1.0137  0.4295 -2.1697
 7904TIP3   OH247906   1.728   3.342   3.102  0.0496  0.8414  0.0184
 7904TIP3    H147907   1.640   3.309   3.123 -0.2677  1.6787  0.0572
 7904TIP3    H247908   1.774   3.266   3.065 -0.6483  0.3580  0.1178
 7905TIP3   OH247909   6.776   2.892   1.458  0.6560  0.3644 -0.3860
 7905TIP3    H147910   6.758   2.884   1.552 -2.7374  0.3079 -0.9026
 7905TIP3    H247911   6.801   2.804   1.431  0.4265  0.0891  0.2822
 7906TIP3   OH247912   7.287   7.288   0.765  0.1565  0.3314  0.0432
 7906TIP3    H147913   7.351   7.236   0.717  0.5785  1.5757 -0.7781
 7906TIP3    H247914   7.339   7.346   0.821 -0.2258  1.3491 -0.6252
 7907TIP3   OH247915   6.441   1.073   6.892 -0.0012  0.2280 -0.3672
 7907TIP3    H147916   6.408   1.003   6.836 -0.4253 -0.7720  1.0637
 7907TIP3    H247917   6.495   1.028   6.958 -0.6781  1.1597  0.8729
 7908TIP3   OH247918   0.564   3.169   1.821 -0.0398  0.1101 -0.1830
 7908TIP3    H147919   0.623   3.220   1.877 -0.5325 -1.0091  1.4384
 7908TIP3    H247920   0.621   3.112   1.770  0.3407 -1.0546  1.4612
 7909TIP3   OH247921   0.309   7.126   3.012 -0.0657  0.1882  0.3127
 7909TIP3    H147922   0.342   7.053   3.064 -2.9157 -2.2093 -0.9655
 7909TIP3    H247923   0.384   7.152   2.957  1.1132 -1.5577  1.0110
 7910TIP3   OH247924   2.453   5.851   3.250  0.1229 -0.4425 -0.0404
 7910TIP3    H147925   2.521   5.835   3.184 -0.1141 -1.2729 -0.0872
 7910TIP3    H247926   2.490   5.919   3.307  0.7128 -0.4035 -0.4630
 7911TIP3   OH247927   1.789   0.966   2.002 -0.2094  0.0079 -0.1071
 7911TIP3    H147928   1.852   0.999   1.939 -0.2143 -0.1969 -0.2191
 7911TIP3    H247929   1.805   0.872   2.006  0.0853  0.0794  0.5212
 7912TIP3   OH247930   7.284   7.262   1.269  0.0932 -0.5305 -0.5491
 7912TIP3    H147931   7.368   7.286   1.230 -0.8175 -0.2459 -2.4171
 7912TIP3    H247932   7.273   7.170   1.247 -0.0948 -0.5634 -0.3193
 7913TIP3   OH247933   2.083   3.003   2.865  0.4446  0.1682 -0.1228
 7913TIP3    H147934   2.136   2.924   2.874  2.0138  1.1735 -0.0312
 7913TIP3    H247935   2.141   3.074   2.895 -1.4087  1.1976  1.1986
 7914TIP3   OH247936   4.487   3.751   1.663 -0.2839 -0.1267  0.5419
 7914TIP3    H147937   4.519   3.710   1.744  0.3131 -3.2164 -1.1003
 7914TIP3    H247938   4.474   3.678   1.603  0.0685  2.0780 -2.4572
 7915TIP3   OH247939   5.906   2.800   0.959 -0.4476 -0.3076 -0.0329
 7915TIP3    H147940   5.970   2.731   0.980 -0.2106 -0.8279 -2.1514
 7915TIP3    H247941   5.842   2.756   0.903 -0.9550  0.9164 -0.4487
 7916TIP3   OH247942   3.538   7.520   1.442  0.1505  0.3460  0.1771
 7916TIP3    H147943   3.493   7.593   1.484 -0.8233  1.3076 -2.3817
 7916TIP3    H247944   3.477   7.446   1.450  0.2716  0.3267  1.0032
 7917TIP3   OH247945   0.683   2.016   2.974 -0.2470  0.1804  0.4385
 7917TIP3    H147946   0.770   2.053   2.982 -0.3668  0.5733 -0.0220
 7917TIP3    H247947   0.695   1.922   2.988 -0.0711  0.4680  2.4771
 7918TIP3   OH247948   4.067   6.837   1.282 -0.0703  0.0514 -0.5061
 7918TIP3    H147949   4.030   6.920   1.311  0.6289 -0.1451  1.0310
 7918TIP3    H247950   4.162   6.853   1.279 -0.0583 -0.1345 -2.1129
 7919TIP3   OH247951   6.864   1.357   0.513  0.0048 -0.5030  0.4703
 7919TIP3    H147952   6.928   1.286   0.504 -0.0946 -0.4848 -0.4791
 7919TIP3    H247953   6.904   1.430   0.467  0.5953  0.4284  2.3340
 7920TIP3   OH247954   4.873   2.499   0.756 -0.1867 -0.2850 -0.3803
 7920TIP3    H147955   4.896   2.587   0.729 -0.7327 -0.3821 -1.2051
 7920TIP3    H247956   4.904   2.442   0.685  1.2715 -0.9064  0.7014
 7921TIP3   OH247957   2.113   4.126   2.102 -0.4958 -0.6408  0.4654
 7921TIP3    H147958   2.121   4.191   2.032  0.9600 -0.4606  0.7682
 7921TIP3    H247959   2.040   4.156   2.155 -0.8646 -0.1357 -0.3132
 7922TIP3   OH247960   6.598   0.781   0.564 -0.2911  0.8265  0.2544
 7922TIP3    H147961   6.541   0.857   0.577  0.1468  1.0981  0.6159
 7922TIP3    H247962   6.656   0.808   0.493 -0.0948  0.8506  0.4256
 7923TIP3   OH247963   0.998   1.022   0.950 -0.3760 -0.0892 -0.0634
 7923TIP3    H147964   0.992   0.989   0.860 -0.4671 -0.7763  0.1882
 7923TIP3    H247965   0.911   1.008   0.987 -0.0588 -0.7896  0.4548
 7924TIP3   OH247966   2.057   3.686   2.602 -0.1880 -0.4823 -0.0802
 7924TIP3    H147967   2.052   3.771   2.646 -2.1065 -0.7085  0.2416
 7924TIP3    H247968   2.123   3.698   2.534 -0.2665  1.2059  0.0862
 7925TIP3   OH247969   4.319   5.449   0.582 -0.1340  0.6179  0.0918
 7925TIP3    H147970   4.236   5.425   0.542  0.2012  0.4447 -0.5172
 7925TIP3    H247971   4.327   5.543   0.568  0.0332  0.5383 -0.3404
 7926TIP3   OH247972   3.944   0.262   1.090 -0.1447 -0.1864  0.0609
 7926TIP3    H147973   3.907   0.232   1.173  0.6578  1.1054  0.9337
 7926TIP3    H247974   4.001   0.191   1.062 -1.7743 -1.3930 -0.3400
 7927TIP3   OH247975   4.598   2.104   3.158 -0.2348 -0.0369 -0.4749
 7927TIP3    H147976   4.534   2.053   3.109 -0.2577 -0.3142 -0.1587
 7927TIP3    H247977   4.561   2.192   3.163 -0.4122 -0.1038 -0.6206
 7928TIP3   OH247978   6.293   0.909   0.332  0.2512 -0.1036 -0.4715
 7928TIP3    H147979   6.255   0.933   0.247  1.0780  0.8953 -0.5701
 7928TIP3    H247980   6.354   0.980   0.352  0.9248 -0.9179  0.4142
 7929TIP3   OH247981   3.459   5.362   1.262  0.2617 -0.1499  0.7523
 7929TIP3    H147982   3.430   5.282   1.217  1.3971 -0.2951  0.2428
 7929TIP3    H247983   3.548   5.341   1.292 -0.1608  0.2476  2.3232
 7930TIP3   OH247984   4.229   7.550   1.942  0.0169  1.2787 -0.4351
 7930TIP3    H147985   4.222   7.456   1.928  0.0154  1.3114 -0.6576
 7930TIP3    H247986   4.251   7.559   2.035 -1.4340  1.1101 -0.0423
 7931TIP3   OH247987   2.000   7.207   0.630  0.3189 -0.2047 -0.0156
 7931TIP3    H147988   2.053   7.202   0.710  0.2199 -0.6428  0.0283
 7931TIP3    H247989   1.993   7.300   0.612  0.4585 -0.1065  0.4114
 7932TIP3   OH247990   3.655   0.130   1.026 -0.1771  0.0711 -0.1728
 7932TIP3    H147991   3.750   0.121   1.018 -0.2614 -1.5022  0.2226
 7932TIP3    H247992   3.631   0.070   1.097 -1.6936 -1.1434 -1.6413
 7933TIP3   OH247993   0.768   3.021   2.891  0.1982 -0.4328 -0.2932
 7933TIP3    H147994   0.756   3.103   2.940 -1.0298 -0.0587 -1.1685
 7933TIP3    H247995   0.837   2.975   2.939  0.8543  1.0666  0.2784
 7934TIP3   OH247996   4.054   2.620   2.720 -0.1746  0.7875  0.4564
 7934TIP3    H147997   4.133   2.566   2.720 -0.3236  0.5558  1.0208
 7934TIP3    H247998   4.082   2.702   2.763 -0.5306  0.2305  1.8224
 7935TIP3   OH247999   0.012   5.462   2.306  0.2299 -0.7386  0.3068
 7935TIP3    H148000   0.045   5.529   2.367  1.1166  2.0650 -2.9297
 7935TIP3    H248001   0.091   5.419   2.274  0.0266 -0.3850 -0.7006
 7936TIP3   OH248002   5.095   6.489   2.003 -0.0314 -0.5207 -0.1701
 7936TIP3    H148003   5.037   6.550   1.957 -0.9198 -0.9655  0.3337
 7936TIP3    H248004   5.183   6.523   1.987 -0.5524  3.6475  3.7406
 7937TIP3   OH248005   4.968   6.442   0.812 -0.2179  0.3738 -0.1889
 7937TIP3    H148006   5.014   6.379   0.869 -0.7739  0.5768  0.4960
 7937TIP3    H248007   4.879   6.446   0.848 -0.1587  1.6454 -0.1439
 7938TIP3   OH248008   7.372   5.211   0.961  0.4149  0.1537 -0.0840
 7938TIP3    H148009   7.396   5.145   0.895 -0.2786 -0.9037  0.6938
 7938TIP3    H248010   7.278   5.224   0.947  0.6246  1.2999 -0.4951
 7939TIP3   OH248011   1.251   2.451   1.236 -0.4952  0.3855 -0.0776
 7939TIP3    H148012   1.244   2.386   1.305 -0.8041 -1.6032 -1.8768
 7939TIP3    H248013   1.334   2.495   1.252 -0.5392 -0.0570  1.4988
 7940TIP3   OH248014   4.390   2.331   2.320 -0.1103  0.3306 -0.2396
 7940TIP3    H148015   4.315   2.380   2.353 -0.8371 -0.6768 -0.3592
 7940TIP3    H248016   4.462   2.395   2.319 -0.7213  1.0559  0.7677
 7941TIP3   OH248017   6.142   0.472   2.677 -0.2596 -0.4081 -0.2196
 7941TIP3    H148018   6.108   0.392   2.636  0.8617 -1.1446  0.2432
 7941TIP3    H248019   6.078   0.494   2.743 -2.5908  1.3043 -2.8319
 7942TIP3   OH248020   3.603   7.587   0.542  0.3896  0.0187 -0.1655
 7942TIP3    H148021   3.640   7.624   0.461  0.5357  1.0162  0.3392
 7942TIP3    H248022   3.616   7.656   0.607 -2.4342  0.4589  0.0317
 7943TIP3   OH248023   2.919   1.673   2.364 -0.4550  0.6208  0.3873
 7943TIP3    H148024   2.929   1.744   2.427  1.0071 -0.4901  1.4869
 7943TIP3    H248025   2.837   1.630   2.389 -0.7232  1.1876  0.4861
 7944TIP3   OH248026   1.332   4.936   0.796  0.5580  0.1181  0.1861
 7944TIP3    H148027   1.349   5.029   0.784  1.6012  0.1854  1.7705
 7944TIP3    H248028   1.357   4.895   0.713  0.6459  1.1809 -0.3187
 7945TIP3   OH248029   7.374   0.207   2.033  0.0912 -0.2172 -0.3295
 7945TIP3    H148030   7.281   0.201   2.053 -0.1199 -0.0805 -1.2353
 7945TIP3    H248031   7.415   0.141   2.089 -0.4134  0.4474  0.8598
 7946TIP3   OH248032   2.829   7.596   2.650 -0.3150 -0.5020 -0.0660
 7946TIP3    H148033   2.809   7.518   2.703  0.0403  0.2213  1.1754
 7946TIP3    H248034   2.905   7.635   2.693 -1.6761  1.6173  0.5539
 7947TIP3   OH248035   6.942   5.962   0.855  0.0576 -0.0978 -0.0708
 7947TIP3    H148036   6.962   5.972   0.762 -0.7009 -3.3174 -0.6949
 7947TIP3    H248037   7.022   5.926   0.893  0.8094  2.3532  0.9005
 7948TIP3   OH248038   2.485   3.847   1.668  0.5527  0.0451 -0.3743
 7948TIP3    H148039   2.439   3.922   1.705  1.3842  0.1772  0.4403
 7948TIP3    H248040   2.446   3.835   1.582 -0.8084  0.3152  0.1709
 7949TIP3   OH248041   1.465   6.317   2.016 -0.2108 -0.8419  0.1294
 7949TIP3    H148042   1.534   6.281   2.071 -1.5994 -0.0078  2.5800
 7949TIP3    H248043   1.396   6.250   2.017  0.2085 -1.3528 -1.6878
 7950TIP3   OH248044   1.411   4.084   2.572  0.1314  0.4366 -0.3568
 7950TIP3    H148045   1.366   4.094   2.488  0.8511  0.0279 -0.7955
 7950TIP3    H248046   1.498   4.050   2.550  0.4117  0.5343  0.5343
 7951TIP3   OH248047   4.853   2.021   3.225 -0.3098  0.0211  0.3686
 7951TIP3    H148048   4.921   2.083   3.255 -0.2877 -0.8029  2.1915
 7951TIP3    H248049   4.782   2.077   3.194  1.0455  0.9094 -1.2989
 7952TIP3   OH248050   6.044   3.091   2.451 -0.0510 -0.3876  0.0408
 7952TIP3    H148051   6.041   3.004   2.409 -0.5547 -1.1147  1.4945
 7952TIP3    H248052   5.952   3.108   2.474 -0.0601  0.8799 -0.8605
 7953TIP3   OH248053   5.120   0.701   1.535 -0.1297 -0.0626  0.4652
 7953TIP3    H148054   5.115   0.796   1.525 -0.6788 -0.0993  0.3184
 7953TIP3    H248055   5.178   0.687   1.610 -2.0736  0.4787  2.1526
 7954TIP3   OH248056   2.044   0.458   2.122 -0.2429 -0.2040  0.4729
 7954TIP3    H148057   2.087   0.406   2.054  0.0575 -0.6445  0.9833
 7954TIP3    H248058   1.971   0.501   2.078  0.4077  0.1368 -0.2982
 7955TIP3   OH248059   6.657   1.276   2.594 -0.0688 -0.3128  0.0614
 7955TIP3    H148060   6.651   1.215   2.667  0.0322 -1.6692 -1.0236
 7955TIP3    H248061   6.645   1.362   2.634 -0.0211 -1.0097  1.6631
 7956TIP3   OH248062   5.703   7.536   2.682 -0.3509  0.1866 -0.7147
 7956TIP3    H148063   5.702   7.583   2.599  0.2941 -1.0305 -1.4505
 7956TIP3    H248064   5.611   7.517   2.701 -0.6569  1.9853 -0.2133
 7957TIP3   OH248065   7.191   1.111   0.357 -0.2254 -0.1174  0.0930
 7957TIP3    H148066   7.267   1.142   0.406  1.3021 -2.1506 -0.8071
 7957TIP3    H248067   7.226   1.087   0.271 -2.2443  0.5019 -0.9727
 7958TIP3   OH248068   6.699   6.501   2.078  0.4819  0.9316 -0.1420
 7958TIP3    H148069   6.606   6.518   2.094  0.5850  0.8008  0.6690
 7958TIP3    H248070   6.708   6.406   2.083  0.4595  0.8477 -1.4353
 7959TIP3   OH248071   7.059   2.445   1.421 -0.1772 -0.3995 -0.8144
 7959TIP3    H148072   7.023   2.509   1.360  2.0265  1.3112 -0.4522
 7959TIP3    H248073   7.059   2.490   1.505  0.8724 -1.0800 -0.4377
 7960TIP3   OH248074   4.170   2.539   2.179 -0.1032  0.0904  0.7791
 7960TIP3    H148075   4.129   2.518   2.263  1.2659  0.7103  1.6468
 7960TIP3    H248076   4.254   2.493   2.182 -0.6001 -0.9993 -0.8638
 7961TIP3   OH248077   3.449   5.516   0.512  0.3353  0.1646 -0.4534
 7961TIP3    H148078   3.539   5.499   0.540  0.3726  1.0949  0.0250
 7961TIP3    H248079   3.445   5.611   0.500 -1.2371  0.4898  1.9543
 7962TIP3   OH248080   5.400   0.982   2.129 -0.0881 -0.1554  0.2369
 7962TIP3    H148081   5.312   1.000   2.096  0.1605  0.3646 -0.1418
 7962TIP3    H248082   5.407   0.887   2.125  0.0457 -0.1047 -1.4988
 7963TIP3   OH248083   5.468   2.347   2.952 -0.0592  0.2675 -0.2105
 7963TIP3    H148084   5.459   2.285   2.880  1.5334 -0.2592  0.0128
 7963TIP3    H248085   5.562   2.360   2.961 -0.2414  0.6552  1.4832
 7964TIP3   OH248086   6.290   4.214   0.848  0.0864  0.0280  0.1397
 7964TIP3    H148087   6.262   4.257   0.767 -2.2926 -0.2082  0.7594
 7964TIP3    H248088   6.312   4.125   0.821  0.7377  0.3546 -0.4509
 7965TIP3   OH248089   6.365   3.635   2.177 -0.1980 -0.0286  0.5962
 7965TIP3    H148090   6.294   3.666   2.122  1.2269  0.0870 -1.2957
 7965TIP3    H248091   6.380   3.705   2.241  0.1873  1.3055 -0.9114
 7966TIP3   OH248092   7.603   4.208   1.554 -0.0594  0.2695  1.0372
 7966TIP3    H148093   7.564   4.203   1.641 -0.7235  0.5102  0.7635
 7966TIP3    H248094   7.607   4.301   1.534 -0.4544  0.1927  0.5749
 7967TIP3   OH248095   6.962   0.400   1.903  0.4305  0.1869 -0.6082
 7967TIP3    H148096   6.909   0.436   1.975  0.9297  0.7783 -0.5261
 7967TIP3    H248097   7.047   0.444   1.912  0.7658 -0.3678 -1.0523
 7968TIP3   OH248098   6.418   1.025   0.664  0.1369  0.3931  0.4611
 7968TIP3    H148099   6.449   1.022   0.754 -0.4830 -0.6619  0.6574
 7968TIP3    H248100   6.329   1.060   0.671  0.1156  0.3838  0.2444
 7969TIP3   OH248101   2.455   2.617   0.488  0.3397 -0.3845  0.3019
 7969TIP3    H148102   2.368   2.578   0.482  0.9674 -1.7462 -0.6960
 7969TIP3    H248103   2.439   2.709   0.511 -1.4073 -0.3054 -1.0172
 7970TIP3   OH248104   2.245   4.307   1.512 -0.0218 -0.0943  0.4711
 7970TIP3    H148105   2.321   4.339   1.560 -0.1890 -0.3460  0.9082
 7970TIP3    H248106   2.253   4.347   1.425 -0.1666  1.0491  0.9562
 7971TIP3   OH248107   4.771   1.034   2.086  0.0715  0.0894  0.2014
 7971TIP3    H148108   4.718   1.114   2.084  0.8276  0.7175  2.4151
 7971TIP3    H248109   4.841   1.053   2.148  1.5656 -1.5534 -0.8682
 7972TIP3   OH248110   2.190   3.773   0.816 -0.9568  0.1871 -0.7690
 7972TIP3    H148111   2.130   3.777   0.892  0.0140 -0.7445  0.0758
 7972TIP3    H248112   2.166   3.692   0.771  2.6170 -2.9321  2.2492
 7973TIP3   OH248113   5.363   6.072   1.553 -0.4025  0.6023  0.2165
 7973TIP3    H148114   5.377   6.037   1.640 -1.8610 -4.3097 -1.2092
 7973TIP3    H248115   5.300   6.143   1.566 -0.2378  0.3208  3.1570
 7974TIP3   OH248116   6.751   3.755   1.524 -0.0113  0.7570 -0.5843
 7974TIP3    H148117   6.685   3.741   1.455  0.1095  0.1312 -0.5774
 7974TIP3    H248118   6.831   3.717   1.488  0.1851  0.9215 -0.3212
 7975TIP3   OH248119   3.118   4.709   1.692  0.1107  0.7232 -0.0399
 7975TIP3    H148120   3.036   4.707   1.642  1.0476  0.1550 -1.6252
 7975TIP3    H248121   3.144   4.801   1.693 -0.8045  0.9967  0.9781
 7976TIP3   OH248122   6.879   6.933   2.280  0.0713  0.5458  0.2143
 7976TIP3    H148123   6.951   6.917   2.341  1.3841 -1.4594 -1.7087
 7976TIP3    H248124   6.837   6.848   2.268 -1.3243  1.2669 -0.3064
 7977TIP3   OH248125   2.076   4.972   2.496 -0.1584  0.3754  0.4628
 7977TIP3    H148126   2.132   5.047   2.516  1.0594 -0.5013  0.4252
 7977TIP3    H248127   2.041   4.944   2.580  2.8268 -1.6456  1.1891
 7978TIP3   OH248128   3.997   4.617   0.394  0.3593  0.3164  1.0890
 7978TIP3    H148129   4.081   4.653   0.422  1.7979 -3.0280  1.4406
 7978TIP3    H248130   3.940   4.630   0.470  0.9219  1.3830  1.3556
 7979TIP3   OH248131   2.436   4.419   1.679  0.5409 -0.0249 -0.5232
 7979TIP3    H148132   2.448   4.373   1.762 -0.0974  1.2397  0.3078
 7979TIP3    H248133   2.521   4.416   1.637  1.1254  0.0796  0.6056
 7980TIP3   OH248134   4.166   6.802   1.606  0.4698  0.0688 -0.1455
 7980TIP3    H148135   4.181   6.732   1.669  1.1419  1.5269  1.4096
 7980TIP3    H248136   4.092   6.851   1.641  0.1428  0.2807 -1.0925
 7981TIP3   OH248137   6.318   4.956   0.679  0.1616  0.0554  0.3647
 7981TIP3    H148138   6.367   4.880   0.648 -0.9562 -0.8401  0.7375
 7981TIP3    H248139   6.385   5.016   0.711  1.0547 -0.8648  0.2614
 7982TIP3   OH248140   5.208   3.767   2.098  0.0278 -0.1412 -0.3220
 7982TIP3    H148141   5.134   3.751   2.039  0.3792 -0.3973 -0.7010
 7982TIP3    H248142   5.261   3.687   2.091  0.5701  0.2209 -0.4024
 7983TIP3   OH248143   1.658   5.761   1.743  0.2433  0.3050 -0.1170
 7983TIP3    H148144   1.596   5.688   1.747  2.1324 -1.3899  0.0439
 7983TIP3    H248145   1.697   5.753   1.656  1.7603 -0.0371  0.5646
 7984TIP3   OH248146   1.943   4.815   0.705 -0.0629  0.0714  0.1090
 7984TIP3    H148147   1.953   4.847   0.795  0.4063  0.5257 -0.1003
 7984TIP3    H248148   2.019   4.851   0.659  0.5020 -1.3411 -0.1257
 7985TIP3   OH248149   6.958   4.915   1.417 -0.4028  0.2430 -0.0349
 7985TIP3    H148150   6.895   4.851   1.383  0.0215 -0.9293  1.2713
 7985TIP3    H248151   6.930   4.998   1.380  0.6382 -0.9863 -4.0651
 7986TIP3   OH248152   0.410   2.066   2.895 -0.0218  0.2989 -0.1041
 7986TIP3    H148153   0.379   1.986   2.939  0.2743 -0.3169 -0.9865
 7986TIP3    H248154   0.505   2.065   2.907 -0.1945  1.7467  1.8692
 7987TIP3   OH248155   3.177   4.223   1.984  0.4128  0.3332  0.1741
 7987TIP3    H148156   3.192   4.290   1.917 -0.2414  0.7477  0.4349
 7987TIP3    H248157   3.247   4.239   2.048 -0.6199  1.7904  1.0139
 7988TIP3   OH248158   6.498   5.803   1.414 -0.4869  0.6188 -0.8140
 7988TIP3    H148159   6.503   5.738   1.484 -2.2306  0.3143 -0.9246
 7988TIP3    H248160   6.493   5.750   1.334  1.1627  0.9589 -1.1716
 7989TIP3   OH248161   3.127   0.639   3.180 -0.3206 -0.2291 -0.2009
 7989TIP3    H148162   3.161   0.552   3.159  0.1955 -0.3207  0.9317
 7989TIP3    H248163   3.032   0.628   3.181 -0.2808 -1.5838  2.8348
 7990TIP3   OH248164   5.258   0.741   1.757  0.4181 -0.4199 -0.5764
 7990TIP3    H148165   5.332   0.799   1.775  0.0397  0.3510 -1.4220
 7990TIP3    H248166   5.222   0.721   1.843  0.9299  0.1172 -0.2277
 7991TIP3   OH248167   2.752   6.580   2.525  0.1094  0.2229  0.0211
 7991TIP3    H148168   2.669   6.542   2.496  0.8563 -0.6666 -1.0115
 7991TIP3    H248169   2.760   6.661   2.474 -0.0845  0.2775  0.0748
 7992TIP3   OH248170   1.560   6.462   0.782  0.0513  0.4622  0.0298
 7992TIP3    H148171   1.480   6.503   0.750  0.4595  1.1632 -0.1306
 7992TIP3    H248172   1.555   6.467   0.877 -0.1145  0.4651  0.0197
 7993TIP3   OH248173   2.334   2.395   2.783 -0.2092  0.2430 -0.2327
 7993TIP3    H148174   2.363   2.352   2.864 -0.9283 -0.8085 -0.5168
 7993TIP3    H248175   2.304   2.482   2.812 -0.3167 -0.0599  0.6097
 7994TIP3   OH248176   5.420   1.158   1.699 -0.2749 -0.2865  0.3544
 7994TIP3    H148177   5.419   1.237   1.753 -0.9640 -0.6798  0.9375
 7994TIP3    H248178   5.373   1.184   1.620  0.6705  0.2682 -0.0441
 7995TIP3   OH248179   0.464   6.934   3.125 -0.4132 -0.2023  0.3430
 7995TIP3    H148180   0.544   6.977   3.156 -0.2941 -0.5164  0.4799
 7995TIP3    H248181   0.495   6.853   3.084 -0.5614  0.2338 -0.6609
 7996TIP3   OH248182   1.357   1.434   3.031  0.2549  0.0489  0.2592
 7996TIP3    H148183   1.318   1.387   2.957 -1.0507  2.2936 -0.5936
 7996TIP3    H248184   1.404   1.367   3.080 -1.4941 -2.1253 -0.8343
 7997TIP3   OH248185   6.020   7.081   1.455 -0.4097  0.4971  0.0552
 7997TIP3    H148186   6.040   6.995   1.492  0.9374  1.4972  1.7370
 7997TIP3    H248187   6.047   7.074   1.363 -1.5889 -1.2676 -0.2146
 7998TIP3   OH248188   2.521   2.505   1.398  0.4527  0.1259 -0.0324
 7998TIP3    H148189   2.613   2.480   1.394  0.7268  1.2153 -1.1748
 7998TIP3    H248190   2.504   2.551   1.315 -0.8514  0.8105  0.5703
 7999TIP3   OH248191   0.175   1.333   1.852  0.4832 -0.0512  0.5329
 7999TIP3    H148192   0.270   1.342   1.848  0.6693 -1.9866 -0.9675
 7999TIP3    H248193   0.160   1.274   1.926  0.4408  0.2269  0.7481
 8000TIP3   OH248194   5.915   6.662   2.830  0.4392 -1.0122  0.0198
 8000TIP3    H148195   5.833   6.639   2.787 -0.0682 -0.2336  0.5542
 8000TIP3    H248196   5.968   6.582   2.824 -0.3753 -1.5457 -0.2760
 8001TIP3   OH248197   6.420   1.631   1.381  0.5818 -0.0989  0.4751
 8001TIP3    H148198   6.454   1.542   1.372 -0.4731 -0.6715  1.8490
 8001TIP3    H248199   6.379   1.632   1.467 -2.1550  0.7718 -0.7475
 8002TIP3   OH248200   5.467   3.821   1.825  0.4110 -0.1100 -0.3615
 8002TIP3    H148201   5.516   3.869   1.759  0.4921  2.3873  1.3812
 8002TIP3    H248202   5.376   3.823   1.794  0.4999  0.7501 -0.5733
 8003TIP3   OH248203   4.987   7.582   2.230  0.4762  0.5274 -0.4596
 8003TIP3    H148204   5.076   7.549   2.216  0.4369  1.3701 -3.2842
 8003TIP3    H248205   4.937   7.548   2.155 -1.0643  1.7772 -0.0519
 8004TIP3   OH248206   7.460   7.123   1.782  0.0321  0.1682  0.3033
 8004TIP3    H148207   7.408   7.044   1.798  0.8403 -0.7965 -1.6182
 8004TIP3    H248208   7.408   7.173   1.719 -0.5764  1.3262  1.6700
 8005TIP3   OH248209   6.295   3.411   1.317  0.5241  0.3294  0.3422
 8005TIP3    H148210   6.300   3.385   1.225  1.1818  1.7474 -0.0448
 8005TIP3    H248211   6.302   3.329   1.365  2.4181 -0.2470 -0.8145
 8006TIP3   OH248212   1.140   5.859   0.876 -0.4675 -0.2182 -0.2399
 8006TIP3    H148213   1.153   5.954   0.879 -2.6177  0.1419  3.5630
 8006TIP3    H248214   1.214   5.827   0.824  0.6918  3.4231 -1.1547
 8007TIP3   OH248215   6.212   1.164   1.458  0.1287  0.3727  0.1441
 8007TIP3    H148216   6.293   1.124   1.426  0.0838  0.0688  0.4012
 8007TIP3    H248217   6.233   1.191   1.547  0.1586  0.9313 -0.0289
 8008TIP3   OH248218   7.597   2.995   1.906 -0.1661  0.0403 -0.1186
 8008TIP3    H148219   7.641   2.912   1.887 -1.1790 -0.4570 -0.3593
 8008TIP3    H248220   7.649   3.034   1.976 -0.9358 -1.8309  1.5622
 8009TIP3   OH248221   3.498   5.877   0.930  0.5618 -0.3060  0.7229
 8009TIP3    H148222   3.426   5.835   0.883 -0.5705  0.6342  1.5606
 8009TIP3    H248223   3.504   5.828   1.013  2.1967 -1.6168 -0.1178
 8010TIP3   OH248224   6.139   4.726   1.090  0.3737  0.2640 -0.5183
 8010TIP3    H148225   6.142   4.632   1.071 -1.4868  0.2846 -1.1127
 8010TIP3    H248226   6.107   4.766   1.009  0.3384  1.3165 -0.0017
 8011TIP3   OH248227   7.106   2.298   3.586  0.1106 -0.4284  0.5132
 8011TIP3    H148228   7.163   2.342   3.523 -0.6481  2.1690  1.5385
 8011TIP3    H248229   7.166   2.256   3.648  0.8485 -1.5562 -0.8949
 8012TIP3   OH248230   5.907   5.840   1.892 -0.1176 -0.0144  0.2673
 8012TIP3    H148231   5.871   5.904   1.830  0.4050  0.5257  0.5064
 8012TIP3    H248232   5.849   5.845   1.968 -1.3094 -1.3458 -0.5071
 8013TIP3   OH248233   0.310   5.951   1.150 -0.0438 -0.0595 -0.0991
 8013TIP3    H148234   0.368   5.943   1.226  0.1000 -0.2537 -0.2280
 8013TIP3    H248235   0.330   6.037   1.114 -0.5935  0.3175  0.4733
 8014TIP3   OH248236   2.789   2.616   1.386 -0.4875  0.1032  0.5750
 8014TIP3    H148237   2.875   2.649   1.412 -0.4438 -1.3308  2.5063
 8014TIP3    H248238   2.797   2.521   1.392 -1.4171 -0.2098 -2.0112
 8015TIP3   OH248239   4.069   5.517   1.302 -0.1115 -0.8653  0.3892
 8015TIP3    H148240   4.052   5.422   1.301  1.0973 -1.1072 -1.5841
 8015TIP3    H248241   4.127   5.532   1.228  0.2893  1.3494  1.0822
 8016TIP3   OH248242   0.188   4.438   0.656  0.4910  0.0231 -0.1606
 8016TIP3    H148243   0.147   4.513   0.613 -0.1479 -1.1512 -1.7125
 8016TIP3    H248244   0.252   4.476   0.716 -1.0612  1.8421  0.4323
 8017TIP3   OH248245   4.248   2.497   0.597 -0.0566  0.5045  0.0157
 8017TIP3    H148246   4.202   2.535   0.673 -2.0931  0.3069 -1.0368
 8017TIP3    H248247   4.290   2.418   0.632  0.3556  1.2419  1.2521
 8018TIP3   OH248248   3.969   6.377   2.143 -0.5070  0.6256  0.1019
 8018TIP3    H148249   3.919   6.318   2.086 -1.3463  0.0800  1.3478
 8018TIP3    H248250   3.914   6.387   2.220  0.4464  1.6271  0.6776
 8019TIP3   OH248251   5.811   5.405   2.081  0.7851  0.7431 -0.1033
 8019TIP3    H148252   5.730   5.358   2.060  0.9198  0.4734 -0.0237
 8019TIP3    H248253   5.841   5.439   1.996 -0.2326  2.1960  0.0794
 8020TIP3   OH248254   5.265   2.535   2.884  0.5784 -0.4103  0.5356
 8020TIP3    H148255   5.309   2.452   2.899  0.7615 -0.4915 -0.3740
 8020TIP3    H248256   5.327   2.586   2.832  0.1402 -0.0096  0.3919
 8021TIP3   OH248257   4.321   0.195   2.069 -0.0382  0.2452 -0.1068
 8021TIP3    H148258   4.385   0.210   1.999 -1.9819 -0.1546 -2.0906
 8021TIP3    H248259   4.236   0.202   2.025 -1.3303 -2.3896  1.7347
 8022TIP3   OH248260   3.871   7.266   3.139  0.1227 -0.2074  0.4668
 8022TIP3    H148261   3.839   7.240   3.052  0.7228  0.2244  0.1057
 8022TIP3    H248262   3.797   7.252   3.197 -0.5812  0.3438 -0.2764
 8023TIP3   OH248263   6.432   4.107   1.119  0.1674 -0.3260  0.4956
 8023TIP3    H148264   6.515   4.110   1.167 -0.0185 -0.3477  0.8137
 8023TIP3    H248265   6.418   4.014   1.101  1.2676 -0.1900 -1.3812
 8024TIP3   OH248266   6.373   4.774   1.569  0.2114 -0.3357 -0.6218
 8024TIP3    H148267   6.463   4.767   1.539  1.2370  0.4201  1.9524
 8024TIP3    H248268   6.349   4.684   1.595  1.0886 -0.2071  0.7632
 8025TIP3   OH248269   4.792   5.494   2.931  0.1356 -0.4204 -0.5764
 8025TIP3    H148270   4.727   5.468   2.866  0.1196  2.3116 -1.7692
 8025TIP3    H248271   4.744   5.494   3.014 -0.0567 -3.1367 -0.5993
 8026TIP3   OH248272   2.064   1.652   1.463 -0.4082 -0.4162  0.2175
 8026TIP3    H148273   2.132   1.660   1.396 -1.5489  0.1276 -0.9360
 8026TIP3    H248274   2.105   1.683   1.543  0.3796  0.9619 -0.6811
 8027TIP3   OH248275   6.464   5.801   2.415 -0.1840  0.4153 -0.1567
 8027TIP3    H148276   6.527   5.795   2.343 -1.1812  0.7133 -1.0942
 8027TIP3    H248277   6.379   5.789   2.372 -0.8992  1.8628  0.7800
 8028TIP3   OH248278   5.666   0.889   1.087 -0.2492  0.4376  0.5586
 8028TIP3    H148279   5.708   0.958   1.035  1.1061 -0.2146  0.7449
 8028TIP3    H248280   5.654   0.817   1.025 -0.8580  0.5212  0.5762
 8029TIP3   OH248281   0.287   4.808   1.650  0.0428 -0.3538  0.1583
 8029TIP3    H148282   0.213   4.820   1.709 -0.5728 -0.3272 -0.6001
 8029TIP3    H248283   0.337   4.890   1.657 -0.4173 -0.0645  0.1093
 8030TIP3   OH248284   1.230   5.394   2.530  0.8218  0.3137 -0.9340
 8030TIP3    H148285   1.247   5.488   2.531  1.0136  0.2996  0.6338
 8030TIP3    H248286   1.315   5.355   2.551  0.7829 -0.2317 -1.7483
 8031TIP3   OH248287   4.593   0.607   3.120  0.2638  0.3715  0.5238
 8031TIP3    H148288   4.650   0.576   3.190 -1.4318  1.2581  2.3913
 8031TIP3    H248289   4.649   0.606   3.042  1.9561 -1.5789  1.6399
 8032TIP3   OH248290   6.993   1.371   1.004 -0.5202  0.4504  0.6464
 8032TIP3    H148291   6.944   1.423   1.067 -1.8594  1.5501 -1.2260
 8032TIP3    H248292   6.930   1.349   0.936  1.2509  0.7907 -1.2060
 8033TIP3   OH248293   6.817   0.636   1.728 -0.4275 -0.4126  0.1306
 8033TIP3    H148294   6.898   0.593   1.701 -0.5072  0.0156 -0.8302
 8033TIP3    H248295   6.748   0.574   1.704 -0.3794 -0.8802  1.1653
 8034TIP3   OH248296   7.268   2.359   2.095  0.0850 -0.1382 -0.4969
 8034TIP3    H148297   7.258   2.440   2.045  1.3333  0.7953  0.7082
 8034TIP3    H248298   7.211   2.371   2.172  0.2016 -0.4553 -0.3600
 8035TIP3   OH248299   6.217   6.774   3.626 -0.1307  0.0036 -0.2267
 8035TIP3    H148300   6.164   6.851   3.606  0.3617  0.4663  0.2038
 8035TIP3    H248301   6.305   6.797   3.595 -0.1744 -0.7527 -0.9393
 8036TIP3   OH248302   1.868   0.227   1.810  0.2636 -0.5643  0.0895
 8036TIP3    H148303   1.808   0.275   1.868  0.8223 -1.1418  1.1845
 8036TIP3    H248304   1.954   0.243   1.848  0.4555 -2.5130  0.5553
 8037TIP3   OH248305   5.914   5.705   2.626  0.1682  0.1666 -0.0194
 8037TIP3    H148306   5.931   5.710   2.532  1.2720  0.5359  0.1955
 8037TIP3    H248307   5.874   5.789   2.648 -1.1745 -0.3578 -0.3554
 8038TIP3   OH248308   0.429   0.120   1.258 -0.0712 -0.1801 -0.1586
 8038TIP3    H148309   0.376   0.198   1.275 -0.0367 -0.1135 -0.3500
 8038TIP3    H248310   0.451   0.086   1.345  0.2199  0.2291 -0.0685
 8039TIP3   OH248311   1.438   4.426   3.012  0.4267  0.0209 -0.0218
 8039TIP3    H148312   1.491   4.414   2.933 -0.9172  0.2457 -0.9836
 8039TIP3    H248313   1.418   4.337   3.041  0.6272 -0.0620 -0.1293
 8040TIP3   OH248314   1.796   2.582   2.130  0.0330  0.0586  0.0260
 8040TIP3    H148315   1.879   2.537   2.147  0.2931  0.2477 -0.7086
 8040TIP3    H248316   1.796   2.656   2.191  0.0060 -0.4149  0.6220
 8041TIP3   OH248317   6.688   7.216   0.561 -0.0462 -0.6259 -0.2697
 8041TIP3    H148318   6.629   7.277   0.605  0.2960 -0.6913  0.2950
 8041TIP3    H248319   6.757   7.271   0.524 -0.3309 -0.5715 -0.7292
 8042TIP3   OH248320   2.168   4.713   1.406 -0.3465  0.7620  0.1514
 8042TIP3    H148321   2.193   4.690   1.495  0.8286  0.0621 -0.3345
 8042TIP3    H248322   2.154   4.808   1.408  1.5562  1.0627  0.6666
 8043TIP3   OH248323   6.946   2.212   3.021 -0.3823  0.1327 -0.1882
 8043TIP3    H148324   6.920   2.202   3.112  1.4262 -0.0274  0.3455
 8043TIP3    H248325   6.869   2.249   2.978 -2.2362 -2.2590  0.8160
 8044TIP3   OH248326   1.321   6.624   1.576  0.2993  0.2232 -0.3184
 8044TIP3    H148327   1.327   6.594   1.666 -2.1547 -2.0695 -0.8041
 8044TIP3    H248328   1.253   6.570   1.537  0.9623  1.4363 -3.4544
 8045TIP3   OH248329   3.698   2.847   0.998  0.3668 -0.0854  0.2595
 8045TIP3    H148330   3.682   2.885   1.084 -0.7893  1.3216 -0.5185
 8045TIP3    H248331   3.746   2.915   0.951  1.4289 -1.0380 -0.0541
 8046TIP3   OH248332   1.337   6.880   1.513 -0.3190  0.4522 -0.1537
 8046TIP3    H148333   1.311   6.912   1.599  0.1692 -0.7274  0.4628
 8046TIP3    H248334   1.315   6.786   1.515 -0.5363  0.4528 -1.4114
 8047TIP3   OH248335   0.553   0.869   1.194  0.7732 -0.3079  0.6185
 8047TIP3    H148336   0.489   0.884   1.124  0.5381 -1.7711  0.4872
 8047TIP3    H248337   0.501   0.866   1.274  0.9747  0.7983  0.8044
 8048TIP3   OH248338   2.630   5.014   3.235  0.0898 -0.1640 -0.0390
 8048TIP3    H148339   2.691   5.087   3.250 -1.8002  1.3005  0.9567
 8048TIP3    H248340   2.550   5.041   3.279 -1.8127 -1.3355 -2.5374
 8049TIP3   OH248341   3.703   5.072   1.484 -0.3434  0.2568 -0.3044
 8049TIP3    H148342   3.743   5.133   1.423 -1.5273 -0.0497 -1.4398
 8049TIP3    H248343   3.641   5.125   1.534  0.8752  0.5764  0.9045
 8050TIP3   OH248344   6.416   7.066   1.341  0.2392 -0.6952  0.3423
 8050TIP3    H148345   6.410   6.971   1.334 -0.3196 -0.5474 -1.6900
 8050TIP3    H248346   6.501   7.087   1.302  0.0257 -0.2971  0.0959
 8051TIP3   OH248347   5.294   0.707   1.250  0.1533  0.2725 -0.0792
 8051TIP3    H148348   5.295   0.750   1.335 -2.1842  1.3842 -0.5383
 8051TIP3    H248349   5.303   0.778   1.187 -2.1905  0.0077 -0.8110
 8052TIP3   OH248350   4.716   4.903   1.755  0.0498 -0.2364 -0.9203
 8052TIP3    H148351   4.679   4.916   1.843 -0.3300 -0.9761 -0.9643
 8052TIP3    H248352   4.801   4.948   1.758 -0.8112  1.4760 -0.8068
 8053TIP3   OH248353   6.163   5.109   1.944 -0.1174  0.2758  0.5775
 8053TIP3    H148354   6.149   5.030   1.997  0.2652  1.1219  1.9943
 8053TIP3    H248355   6.087   5.113   1.887  0.4630 -1.7981 -0.4446
 8054TIP3   OH248356   3.715   6.193   0.353 -0.6344  0.3793  0.3405
 8054TIP3    H148357   3.735   6.229   0.440  2.3002 -0.4128  0.1076
 8054TIP3    H248358   3.702   6.269   0.298  0.8498  1.0301  0.8268
 8055TIP3   OH248359   4.865   5.633   1.832 -0.0169  0.4217 -0.0364
 8055TIP3    H148360   4.805   5.638   1.757  1.9551 -0.1420 -1.7541
 8055TIP3    H248361   4.823   5.571   1.892 -0.9225 -0.3569 -1.4078
 8056TIP3   OH248362   2.074   0.704   2.750 -0.1961  0.2674 -0.2362
 8056TIP3    H148363   2.031   0.640   2.806 -0.5449  0.0235 -0.7855
 8056TIP3    H248364   2.162   0.712   2.787  0.3591 -1.6236 -1.0432
 8057TIP3   OH248365   0.594   4.039   1.141  0.1526 -0.7355  0.7011
 8057TIP3    H148366   0.557   4.013   1.057 -0.7746  2.8477 -0.1539
 8057TIP3    H248367   0.524   4.023   1.204 -0.0420 -1.1154  0.3976
 8058TIP3   OH248368   3.562   2.564   2.536  0.3106 -0.3351  0.0339
 8058TIP3    H148369   3.568   2.522   2.622  1.1269  0.2403  0.2626
 8058TIP3    H248370   3.652   2.564   2.503  0.0795 -0.1052 -0.6111
 8059TIP3   OH248371   3.911   0.757   1.343 -0.0155 -0.9510  0.1417
 8059TIP3    H148372   3.942   0.848   1.349 -0.4291 -0.8152  0.2532
 8059TIP3    H248373   3.969   0.716   1.279 -0.6314 -0.2660 -0.8850
 8060TIP3   OH248374   1.624   1.968   1.351 -0.1590  0.1831 -0.2935
 8060TIP3    H148375   1.681   1.995   1.423 -2.1392  2.1496  0.6832
 8060TIP3    H248376   1.560   1.910   1.392 -0.7600  0.5860 -0.6499
 8061TIP3   OH248377   3.134   4.335   3.184  0.0059 -0.2294 -0.4729
 8061TIP3    H148378   3.060   4.390   3.210  1.2659 -0.0220  3.1651
 8061TIP3    H248379   3.107   4.246   3.205 -0.2517 -0.5220 -1.9281
 8062TIP3   OH248380   7.459   3.549   1.930  0.1191  0.6623  0.1297
 8062TIP3    H148381   7.421   3.619   1.876 -0.4850  0.5440  0.4068
 8062TIP3    H248382   7.422   3.468   1.895  1.3161  0.4039 -0.6196
 8063TIP3   OH248383   2.929   2.132   3.629 -0.5935  0.0742 -0.3499
 8063TIP3    H148384   2.916   2.212   3.679  1.0530 -0.4608  1.0224
 8063TIP3    H248385   3.021   2.134   3.603 -0.0271 -2.1564  1.2165
 8064TIP3   OH248386   2.318   6.468   0.644 -0.0082  0.4743 -0.7109
 8064TIP3    H148387   2.361   6.388   0.672 -0.6062  0.5214  0.4100
 8064TIP3    H248388   2.244   6.478   0.704 -0.6582  1.2221 -1.5940
 8065TIP3   OH248389   6.676   5.394   1.606  0.0737 -0.0755 -0.5996
 8065TIP3    H148390   6.769   5.372   1.615 -0.1755 -0.8007  0.5320
 8065TIP3    H248391   6.642   5.328   1.546  0.1310 -0.3340 -0.3519
 8066TIP3   OH248392   6.425   7.465   1.960 -0.1514  0.7691 -0.1446
 8066TIP3    H148393   6.447   7.451   2.052  0.8250 -1.3185 -0.6397
 8066TIP3    H248394   6.432   7.378   1.921  1.6291  1.9434 -2.6452
 8067TIP3   OH248395   1.020   6.250   1.784  0.2703  0.6740 -0.0861
 8067TIP3    H148396   1.046   6.228   1.694  1.0403  0.2216  0.2364
 8067TIP3    H248397   1.093   6.302   1.818 -0.5380  1.8427 -0.0923
 8068TIP3   OH248398   5.795   7.161   1.236  0.0724 -0.0281 -0.1792
 8068TIP3    H148399   5.889   7.143   1.237  0.1132  0.0242 -1.6519
 8068TIP3    H248400   5.754   7.078   1.213 -0.2675 -0.0679  0.5166
 8069TIP3   OH248401   6.285   1.655   1.618  0.1146 -0.1485  0.0242
 8069TIP3    H148402   6.354   1.661   1.684  0.0840 -2.4606  0.3524
 8069TIP3    H248403   6.204   1.655   1.669 -0.0018 -0.1026 -0.1609
 8070TIP3   OH248404   5.300   3.960   1.013 -0.3187  0.3542 -0.0421
 8070TIP3    H148405   5.246   3.916   1.079 -0.3938 -1.8255 -1.4509
 8070TIP3    H248406   5.240   3.975   0.940  0.1022  1.4217 -0.1769
 8071TIP3   OH248407   7.062   6.760   1.444 -0.7350  0.5179 -0.0509
 8071TIP3    H148408   7.103   6.676   1.464  1.3767  1.7313  1.0601
 8071TIP3    H248409   7.099   6.786   1.360 -1.9266  0.0573 -0.7448
 8072TIP3   OH248410   0.344   1.721   2.558 -0.1883 -0.4657 -0.3047
 8072TIP3    H148411   0.411   1.790   2.557 -0.3808 -0.2829 -1.7392
 8072TIP3    H248412   0.381   1.650   2.508 -0.1430 -1.3020  0.8695
 8073TIP3   OH248413   5.276   4.575   2.116  0.0536 -0.1265  0.1274
 8073TIP3    H148414   5.224   4.652   2.135  1.8535  0.8367  1.4182
 8073TIP3    H248415   5.217   4.517   2.067 -2.4042  0.5931  2.0718
 8074TIP3   OH248416   6.309   3.576   0.725  0.8371 -0.8048  0.6503
 8074TIP3    H148417   6.319   3.503   0.786  2.1716 -3.0670 -2.0199
 8074TIP3    H248418   6.398   3.596   0.696  0.3247  0.6764 -0.0045
 8075TIP3   OH248419   3.893   7.097   1.217  0.5518  0.4619  0.2896
 8075TIP3    H148420   3.960   7.096   1.149  0.4077  0.8933  0.1340
 8075TIP3    H248421   3.870   7.190   1.226  0.6968  0.4296  1.0523
 8076TIP3   OH248422   3.389   1.975   0.624 -0.4667  0.4182  0.7126
 8076TIP3    H148423   3.448   2.037   0.666  0.5476 -1.5495  2.3563
 8076TIP3    H248424   3.442   1.931   0.557 -0.9370  0.6872  0.1471
 8077TIP3   OH248425   4.590   5.966   1.131 -0.1687  0.1461 -0.4207
 8077TIP3    H148426   4.640   5.887   1.153 -1.8714 -1.0689 -0.7452
 8077TIP3    H248427   4.650   6.038   1.150  1.2927 -1.1953  0.2844
 8078TIP3   OH248428   6.594   3.119   2.928  0.2001  0.8885  0.4247
 8078TIP3    H148429   6.672   3.168   2.954  1.0240 -0.8845  1.4276
 8078TIP3    H248430   6.561   3.081   3.009 -1.0768  0.6757 -0.1624
 8079TIP3   OH248431   4.145   5.593   1.917  0.0510 -0.2566  0.0646
 8079TIP3    H148432   4.123   5.532   1.988  0.5385 -1.2995 -0.6671
 8079TIP3    H248433   4.241   5.593   1.914  0.1423  1.6862  1.0095
 8080TIP3   OH248434   3.109   2.390   3.625  0.4459 -0.1572  0.3037
 8080TIP3    H148435   3.148   2.303   3.614 -0.8448 -0.5958 -1.1844
 8080TIP3    H248436   3.039   2.392   3.561  0.3924  1.9747  0.3820
 8081TIP3   OH248437   3.713   5.893   1.341  0.3796  0.4641  0.2792
 8081TIP3    H148438   3.754   5.858   1.421 -1.2826  0.5811  1.2349
 8081TIP3    H248439   3.714   5.988   1.353  4.3993  0.9391 -2.0705
 8082TIP3   OH248440   2.677   1.523   2.913 -0.4748  0.1093 -0.3562
 8082TIP3    H148441   2.714   1.470   2.984 -1.1766  0.7960  0.5534
 8082TIP3    H248442   2.592   1.482   2.894 -0.2697 -0.0967 -0.8276
 8083TIP3   OH248443   2.079   6.738   2.076 -0.0820 -0.4360  0.1221
 8083TIP3    H148444   2.153   6.786   2.114 -0.6029 -0.9884  1.9321
 8083TIP3    H248445   2.016   6.807   2.053  0.1005 -0.0979  0.6045
 8084TIP3   OH248446   1.304   1.754   1.181  0.0242  0.1749  0.3695
 8084TIP3    H148447   1.387   1.708   1.181  0.6612  1.2339 -1.1159
 8084TIP3    H248448   1.245   1.699   1.128  0.3531  0.3375 -0.1750
 8085TIP3   OH248449   0.828   0.257   2.858  0.1321 -0.4231 -0.4483
 8085TIP3    H148450   0.805   0.298   2.942 -0.2685 -0.7733 -0.3831
 8085TIP3    H248451   0.746   0.257   2.808  0.4913  0.2459 -1.0355
 8086TIP3   OH248452   4.854   0.510   1.953  0.0508 -0.4596  0.3708
 8086TIP3    H148453   4.764   0.493   1.979 -0.5227  0.0243 -1.2025
 8086TIP3    H248454   4.886   0.426   1.919 -0.2353 -0.3339 -0.2268
 8087TIP3   OH248455   3.246   4.437   2.468 -0.2403  0.6986  0.4452
 8087TIP3    H148456   3.154   4.430   2.492  0.0983  0.2851  1.6891
 8087TIP3    H248457   3.258   4.529   2.448 -1.4159  0.4106 -1.9257
 8088TIP3   OH248458   7.237   2.251   2.487 -0.2921 -0.0812 -0.7594
 8088TIP3    H148459   7.269   2.162   2.474 -1.4704 -0.4638 -1.1381
 8088TIP3    H248460   7.162   2.242   2.546  0.9014  0.9224  1.0311
 8089TIP3   OH248461   2.597   3.512   1.251  0.1315  0.4207 -0.3884
 8089TIP3    H148462   2.521   3.555   1.213 -0.8389 -0.5674  0.3593
 8089TIP3    H248463   2.631   3.456   1.182 -2.1286 -2.0205  0.3055
 8090TIP3   OH248464   2.116   7.672   1.572  0.1463  0.4394 -0.4311
 8090TIP3    H148465   2.181   7.617   1.529  1.5341  1.0444  0.7974
 8090TIP3    H248466   2.123   7.757   1.529 -0.8700  0.1248 -1.2548
 8091TIP3   OH248467   4.757   5.367   0.710 -0.2034 -0.3001 -0.3694
 8091TIP3    H148468   4.674   5.374   0.756  0.3923 -1.9107  1.0382
 8091TIP3    H248469   4.748   5.427   0.635 -1.3662  2.1383  1.5637
 8092TIP3   OH248470   4.242   5.133   0.681 -0.1816  0.6005 -0.8939
 8092TIP3    H148471   4.245   5.228   0.669  1.0650  0.5534 -0.9982
 8092TIP3    H248472   4.330   5.109   0.708 -0.9539 -0.2883  1.0528
 8093TIP3   OH248473   5.971   2.267   2.569  0.2360  0.2441 -0.6527
 8093TIP3    H148474   5.986   2.269   2.475 -0.1827  0.8026 -0.7103
 8093TIP3    H248475   5.881   2.236   2.579  0.4845 -0.4351 -0.4051
 8094TIP3   OH248476   4.760   0.631   2.885  0.4823  0.0651 -0.0851
 8094TIP3    H148477   4.834   0.634   2.824  0.8603 -0.9807  0.3001
 8094TIP3    H248478   4.716   0.548   2.865  0.9544 -0.5843  1.4333
 8095TIP3   OH248479   4.787   1.732   2.402  0.0188 -0.4406  0.0560
 8095TIP3    H148480   4.748   1.817   2.383 -0.4493 -0.7046 -0.1882
 8095TIP3    H248481   4.859   1.751   2.462 -0.0921  0.1227  0.0129
 8096TIP3   OH248482   5.128   2.195   2.076  0.0773  0.0061  0.1356
 8096TIP3    H148483   5.134   2.287   2.052  3.1673 -0.5033 -1.6145
 8096TIP3    H248484   5.179   2.187   2.157  0.6291 -0.2805 -0.2314
 8097TIP3   OH248485   7.365   1.357   1.915  0.5734  0.1794  0.2714
 8097TIP3    H148486   7.412   1.330   1.993  1.6474  2.3472  0.4352
 8097TIP3    H248487   7.396   1.445   1.897 -1.4222  0.6541 -1.2271
 8098TIP3   OH248488   0.912   4.604   0.970  0.0840  0.3002 -0.3324
 8098TIP3    H148489   0.991   4.637   0.928  2.0329 -3.3311  0.0659
 8098TIP3    H248490   0.944   4.541   1.035 -3.1193 -0.1362  1.0272
 8099TIP3   OH248491   6.797   4.980   2.590  0.6120 -0.1346  0.4767
 8099TIP3    H148492   6.772   5.011   2.677 -0.2793  1.3098 -0.2421
 8099TIP3    H248493   6.807   5.060   2.538 -0.6349 -0.9974 -1.2014
 8100TIP3   OH248494   6.890   1.828   1.873 -0.2408 -0.1272 -0.4994
 8100TIP3    H148495   6.835   1.904   1.890  0.8665  0.4967  0.3691
 8100TIP3    H248496   6.840   1.754   1.907 -0.5599  0.4246  0.2394
 8101TIP3   OH248497   4.988   7.091   0.511 -0.4047 -0.4135 -0.4042
 8101TIP3    H148498   4.923   7.117   0.576  2.7578  0.5143  2.6927
 8101TIP3    H248499   5.006   6.999   0.531  0.2203 -0.2737 -0.3244
 8102TIP3   OH248500   2.013   6.636   3.041 -0.1503  0.1181  0.4232
 8102TIP3    H148501   2.042   6.557   3.085 -1.4093 -0.8999 -0.4792
 8102TIP3    H248502   1.917   6.635   3.050 -0.3876  0.3128 -1.5001
 8103TIP3   OH248503   1.938   4.103   1.258 -0.0473 -0.1414 -0.1743
 8103TIP3    H148504   2.009   4.075   1.316 -0.1617  0.0872  0.0774
 8103TIP3    H248505   1.978   4.103   1.170  0.4884  0.6927  0.0487
 8104TIP3   OH248506   4.140   1.948   0.899 -0.3025  0.1921  0.1121
 8104TIP3    H148507   4.222   1.950   0.850 -1.0049 -2.1134 -1.2960
 8104TIP3    H248508   4.085   2.014   0.857  0.9106  2.1469  1.4063
 8105TIP3   OH248509   1.408   0.685   1.100 -0.4241  0.1510 -0.0792
 8105TIP3    H148510   1.372   0.727   1.022 -1.2674  1.4795  0.9664
 8105TIP3    H248511   1.332   0.668   1.155  0.0394 -1.7791  0.0178
 8106TIP3   OH248512   0.181   2.464   1.887  0.6418 -0.7381 -0.2783
 8106TIP3    H148513   0.245   2.499   1.825 -0.3403 -1.6329 -1.8661
 8106TIP3    H248514   0.166   2.374   1.858  0.8870 -1.5475  1.8943
 8107TIP3   OH248515   0.231   4.408   1.397 -0.6223  0.3643  0.8815
 8107TIP3    H148516   0.168   4.479   1.383 -0.8512 -0.1281 -0.8602
 8107TIP3    H248517   0.215   4.347   1.325 -0.6083 -1.6156  2.4819
 8108TIP3   OH248518   2.055   6.002   2.555 -0.4591 -0.3023  0.4311
 8108TIP3    H148519   2.001   5.924   2.564 -0.3136 -0.3639  0.7785
 8108TIP3    H248520   2.130   5.986   2.612  0.2132 -0.4606 -0.4796
 8109TIP3   OH248521   1.437   0.243   1.003  0.6150  0.0252  0.1266
 8109TIP3    H148522   1.409   0.263   1.092  2.9493  2.3537  0.4588
 8109TIP3    H248523   1.361   0.264   0.949 -0.0499  0.9567  1.3698
 8110TIP3   OH248524   5.307   6.474   2.223  0.3195  0.1666 -0.4727
 8110TIP3    H148525   5.374   6.495   2.287  1.6904 -0.7702 -1.5491
 8110TIP3    H248526   5.330   6.526   2.146 -0.3257  0.0106 -0.7804
 8111TIP3   OH248527   4.774   7.204   3.523 -0.1079 -0.5749 -0.0551
 8111TIP3    H148528   4.831   7.261   3.574  0.2623  1.0031 -2.0903
 8111TIP3    H248529   4.776   7.120   3.569  2.7031 -0.1639  0.7365
 8112TIP3   OH248530   4.279   1.143   2.494  0.0617 -0.5824 -0.2054
 8112TIP3    H148531   4.259   1.132   2.587  0.5744 -2.0851 -0.2381
 8112TIP3    H248532   4.358   1.196   2.492  1.6676 -2.7927  0.4062
 8113TIP3   OH248533   4.276   5.822   1.749 -0.1188 -0.2565 -0.1286
 8113TIP3    H148534   4.324   5.824   1.666  0.9609 -2.2991  0.3919
 8113TIP3    H248535   4.231   5.738   1.749 -0.6042 -0.0149  1.0917
 8114TIP3   OH248536   2.115   0.847   1.116 -0.6183 -0.0872  0.7080
 8114TIP3    H148537   2.209   0.865   1.118 -0.7965  1.1750 -0.6879
 8114TIP3    H248538   2.085   0.888   1.035 -1.9663 -2.5520 -0.1305
 8115TIP3   OH248539   5.530   4.397   3.071  0.2790  0.1383 -0.4198
 8115TIP3    H148540   5.479   4.471   3.038 -1.3535 -0.6391  0.2068
 8115TIP3    H248541   5.466   4.325   3.077  1.5792 -1.0374 -0.0423
 8116TIP3   OH248542   7.547   6.860   3.140  0.1273  0.1832 -0.0115
 8116TIP3    H148543   7.537   6.780   3.193  1.1544  1.0764  1.6079
 8116TIP3    H248544   7.469   6.860   3.084 -0.5257 -1.3277  0.8042
 8117TIP3   OH248545   3.899   5.683   1.842  0.3249 -0.1553  0.5931
 8117TIP3    H148546   3.987   5.661   1.873  0.3612 -0.4957  0.2589
 8117TIP3    H248547   3.896   5.779   1.847  0.9932 -0.0818 -0.1055
 8118TIP3   OH248548   4.709   6.272   2.732  0.4110  0.4771  0.1300
 8118TIP3    H148549   4.626   6.254   2.776  1.1290  2.4818  2.4980
 8118TIP3    H248550   4.754   6.187   2.729 -0.6841 -0.1536  1.1136
 8119TIP3   OH248551   0.552   3.156   0.736 -0.1011 -0.1302  0.1382
 8119TIP3    H148552   0.514   3.068   0.737  0.9164 -0.5778  0.4260
 8119TIP3    H248553   0.557   3.181   0.829  0.0422  0.0409  0.0865
 8120TIP3   OH248554   2.822   1.654   2.716 -0.0225  0.3146 -0.3736
 8120TIP3    H148555   2.758   1.633   2.784  1.1787  0.3252  0.8215
 8120TIP3    H248556   2.784   1.619   2.636 -0.3655 -2.0336  0.7058
 8121TIP3   OH248557   7.673   7.009   2.922 -0.8988 -0.3563 -0.1982
 8121TIP3    H148558   7.660   6.955   3.000  0.3181 -1.0489 -0.4545
 8121TIP3    H248559   7.715   7.088   2.956  2.9662 -2.0822 -0.4509
 8122TIP3   OH248560   1.100   1.434   8.360  0.0185 -0.3330  0.2434
 8122TIP3    H148561   1.037   1.367   8.333 -0.4631 -0.4806  1.6438
 8122TIP3    H248562   1.179   1.414   8.310 -0.2230 -1.7638  0.3931
 8123TIP3   OH248563   0.656   4.396   2.055  0.2633  0.3572 -0.1092
 8123TIP3    H148564   0.599   4.321   2.076 -0.4681  1.2900  1.3988
 8123TIP3    H248565   0.735   4.380   2.107  1.2571 -0.6989 -1.8486
 8124TIP3   OH248566   1.047   7.588   3.160 -0.7661 -0.0832  0.5111
 8124TIP3    H148567   1.036   7.565   3.252 -1.0930  1.1898  0.8117
 8124TIP3    H248568   0.967   7.557   3.118 -0.8041 -0.2895  0.7334
 8125TIP3   OH248569   6.133   1.100   1.020 -0.2746  0.7864  0.6002
 8125TIP3    H148570   6.089   1.182   0.995  2.1827  2.4186  1.2520
 8125TIP3    H248571   6.092   1.075   1.102 -1.8166  0.7076 -0.1570
 8126TIP3   OH248572   2.726   4.530   2.464 -0.1588  0.3879  0.1146
 8126TIP3    H148573   2.664   4.583   2.415 -1.4262 -0.2556  0.9686
 8126TIP3    H248574   2.672   4.465   2.509  0.8427  1.2647  2.7929
 8127TIP3   OH248575   2.906   1.314   2.506  0.1533 -0.0669  0.2503
 8127TIP3    H148576   2.929   1.221   2.498  2.5886  0.4157  1.0084
 8127TIP3    H248577   2.929   1.336   2.596 -1.9353  0.9291  0.5945
 8128TIP3   OH248578   2.522   6.958   1.019 -0.1139  0.0279  0.7112
 8128TIP3    H148579   2.441   6.910   1.038 -0.0971 -0.6159 -0.7372
 8128TIP3    H248580   2.550   6.926   0.934  1.3073  0.7582  0.8678
 8129TIP3   OH248581   3.495   1.433   3.429 -0.4233  0.2481  0.0046
 8129TIP3    H148582   3.591   1.437   3.435 -0.3680  1.1673 -1.0543
 8129TIP3    H248583   3.467   1.400   3.514  0.8440 -0.2275  0.2646
 8130TIP3   OH248584   0.892   6.669   1.264 -0.1742  0.1246  0.1199
 8130TIP3    H148585   0.906   6.651   1.357  0.9830 -0.9787 -0.2455
 8130TIP3    H248586   0.953   6.739   1.243  0.0559 -0.1055  0.0273
 8131TIP3   OH248587   5.929   6.016   3.214  0.2707  0.1315  0.1798
 8131TIP3    H148588   5.934   5.942   3.275  0.4714 -1.1257 -1.3011
 8131TIP3    H248589   5.978   6.086   3.257  0.7418 -0.8413  1.2861
 8132TIP3   OH248590   2.960   0.560   1.630 -0.0065  0.0985  0.0828
 8132TIP3    H148591   3.025   0.627   1.606 -0.5513  1.1631  1.4320
 8132TIP3    H248592   3.011   0.480   1.643  0.9856  0.8123  0.7049
 8133TIP3   OH248593   3.984   7.323   0.573 -0.5070  0.0729 -0.4614
 8133TIP3    H148594   3.920   7.281   0.515 -1.8435  1.3415  0.0373
 8133TIP3    H248595   3.943   7.320   0.659  1.2665 -1.4012  0.3981
 8134TIP3   OH248596   5.266   0.282   8.368 -0.1475 -0.1448 -0.3579
 8134TIP3    H148597   5.216   0.341   8.312 -1.0716 -0.6813 -0.1354
 8134TIP3    H248598   5.303   0.338   8.436 -1.2607  0.1504  0.0218
 8135TIP3   OH248599   5.835   7.605   3.133  0.2610  0.0479 -0.3162
 8135TIP3    H148600   5.864   7.674   3.074 -0.3017  1.6046  1.1359
 8135TIP3    H248601   5.914   7.555   3.152  0.1560 -1.7946 -3.8515
 8136TIP3   OH248602   2.288   1.972   0.638  0.3452  0.1637  0.0244
 8136TIP3    H148603   2.298   2.067   0.647  0.4108  0.2842 -1.2014
 8136TIP3    H248604   2.240   1.960   0.557  1.1904 -0.8868 -0.3436
 8137TIP3   OH248605   3.252   2.294   2.132 -0.6660 -0.1525  0.1490
 8137TIP3    H148606   3.201   2.368   2.097  0.6926  2.0553  2.4638
 8137TIP3    H248607   3.188   2.240   2.178 -1.4843  0.3648 -0.3486
 8138TIP3   OH248608   5.633   6.800   3.078  0.4949  0.4411 -0.8368
 8138TIP3    H148609   5.628   6.705   3.088 -0.0695  0.6002  0.7632
 8138TIP3    H248610   5.653   6.832   3.166  0.7016  1.8096 -1.3578
 8139TIP3   OH248611   2.370   5.824   2.554 -0.0173 -0.3648  0.1472
 8139TIP3    H148612   2.303   5.821   2.622 -1.8850  0.1216 -1.5769
 8139TIP3    H248613   2.442   5.874   2.593 -1.5050  0.8967  1.3707
 8140TIP3   OH248614   0.676   6.765   0.881  0.0914  0.3821  0.3149
 8140TIP3    H148615   0.654   6.806   0.798 -0.2579  1.4920  0.9394
 8140TIP3    H248616   0.602   6.785   0.938  0.0852 -0.8010  0.7587
 8141TIP3   OH248617   1.216   2.779   3.310  0.0830  0.3191 -0.1947
 8141TIP3    H148618   1.283   2.748   3.249  1.7604 -0.7903  2.0374
 8141TIP3    H248619   1.171   2.699   3.339  1.1170  0.4140  1.9035
 8142TIP3   OH248620   0.279   2.062   0.891 -0.0395  0.2890 -0.1956
 8142TIP3    H148621   0.329   2.037   0.969  1.1027 -2.7926 -1.7416
 8142TIP3    H248622   0.192   2.024   0.905 -0.1577  0.6394  0.0204
 8143TIP3   OH248623   5.337   3.527   2.044 -0.1353  0.1296  0.1832
 8143TIP3    H148624   5.425   3.500   2.070 -0.8727 -3.0462 -0.1289
 8143TIP3    H248625   5.347   3.560   1.955  0.8007  0.3102  0.3485
 8144TIP3   OH248626   5.613   2.484   3.370 -0.3140  0.0319  0.1341
 8144TIP3    H148627   5.542   2.530   3.325 -0.0870 -0.1055 -0.3757
 8144TIP3    H248628   5.669   2.554   3.404 -0.5664  0.1379  0.3373
 8145TIP3   OH248629   3.304   2.062   1.380  0.1017 -0.2923  0.1492
 8145TIP3    H148630   3.293   2.083   1.287  1.5227  2.2547  0.4671
 8145TIP3    H248631   3.396   2.038   1.388 -0.0438 -0.6131  0.8871
 8146TIP3   OH248632   4.976   0.271   1.844 -0.1493 -0.0207  0.0318
 8146TIP3    H148633   5.014   0.276   1.756 -2.7050 -0.5227 -1.2010
 8146TIP3    H248634   5.033   0.211   1.892  0.7405 -0.5423 -1.6113
 8147TIP3   OH248635   2.045   5.565   2.586 -0.3696  0.3796  0.3128
 8147TIP3    H148636   2.004   5.651   2.583 -1.2294 -0.0367 -0.4648
 8147TIP3    H248637   2.037   5.531   2.497  0.8226 -0.1168  0.3747
 8148TIP3   OH248638   5.868   5.756   3.338 -0.0310 -0.0109  0.3529
 8148TIP3    H148639   5.777   5.753   3.366  0.1075  0.1286  0.8118
 8148TIP3    H248640   5.870   5.703   3.258 -0.3003 -0.9466  0.9495
 8149TIP3   OH248641   6.984   2.334   2.628  0.0777 -0.5527 -0.4399
 8149TIP3    H148642   7.040   2.324   2.704 -0.1866 -0.3865 -0.2209
 8149TIP3    H248643   6.916   2.396   2.655  0.5739  0.3219 -1.1449
 8150TIP3   OH248644   0.038   5.201   2.030 -0.6046  0.1944 -0.0483
 8150TIP3    H148645  -0.018   5.137   2.073  0.0798 -1.1752 -1.1278
 8150TIP3    H248646   0.119   5.200   2.079 -1.1393  1.4816  0.9312
 8151TIP3   OH248647   3.798   5.669   0.522  0.0327  0.3399  0.6193
 8151TIP3    H148648   3.733   5.677   0.591  0.9099  1.9801  1.3153
 8151TIP3    H248649   3.792   5.752   0.473  0.5988 -0.0839 -0.2036
 8152TIP3   OH248650   0.347   5.889   2.067  0.6695  0.4574 -0.1411
 8152TIP3    H148651   0.330   5.901   1.974  0.7822  0.7240 -0.1259
 8152TIP3    H248652   0.305   5.805   2.088 -0.7196  1.1425 -0.0849
 8153TIP3   OH248653   4.711   5.481   2.472  0.0144  0.3112 -0.2045
 8153TIP3    H148654   4.654   5.558   2.470 -0.6916 -0.1777  0.2746
 8153TIP3    H248655   4.777   5.501   2.537 -1.1677 -0.1354  1.1923
 8154TIP3   OH248656   4.839   7.363   2.652  0.4477 -0.0056 -0.2508
 8154TIP3    H148657   4.832   7.456   2.631  2.3024 -0.2607 -2.2862
 8154TIP3    H248658   4.755   7.327   2.625 -0.3493  1.0402  0.6838
 8155TIP3   OH248659   1.756   6.019   2.440 -0.3464 -0.1581  0.0771
 8155TIP3    H148660   1.769   6.067   2.521 -0.8389 -0.0473  0.0953
 8155TIP3    H248661   1.790   5.931   2.457 -0.0683 -0.0151  0.2635
 8156TIP3   OH248662   5.442   2.846   1.105 -0.3562  0.2174 -0.7709
 8156TIP3    H148663   5.486   2.797   1.174 -0.3211  0.7544 -0.3982
 8156TIP3    H248664   5.359   2.801   1.091 -0.1595 -0.1645 -0.7017
 8157TIP3   OH248665   0.831   3.511   1.274  0.3078  1.1077  0.0779
 8157TIP3    H148666   0.811   3.538   1.184  1.2020  1.0721 -0.1443
 8157TIP3    H248667   0.926   3.519   1.280  0.2144  1.5214  1.1630
 8158TIP3   OH248668   1.055   6.531   2.364 -0.3571  0.9482  0.2496
 8158TIP3    H148669   1.055   6.530   2.268 -1.1150 -1.5483  0.2162
 8158TIP3    H248670   1.147   6.524   2.388 -0.1918  1.2171 -0.2794
 8159TIP3   OH248671   7.426   7.546   2.589 -0.1294  0.0227 -0.3159
 8159TIP3    H148672   7.479   7.495   2.528 -0.4302  0.0452 -0.5941
 8159TIP3    H248673   7.476   7.543   2.671 -0.5160 -1.3701 -0.1044
 8160TIP3   OH248674   6.172   5.898   2.728  0.1417 -0.0441  0.4441
 8160TIP3    H148675   6.228   5.922   2.802  2.1742 -0.9128 -0.7199
 8160TIP3    H248676   6.091   5.947   2.742  1.2137  1.3556  2.1694
 8161TIP3   OH248677   4.201   4.321   2.330  0.8418  0.1297 -0.2683
 8161TIP3    H148678   4.286   4.278   2.335  0.3524 -0.9618 -1.0400
 8161TIP3    H248679   4.222   4.414   2.322  1.9285 -0.0292  0.5389
 8162TIP3   OH248680   7.608   6.944   2.661 -0.3172  0.2109 -0.1291
 8162TIP3    H148681   7.644   6.971   2.745  0.5684  0.4997 -0.5860
 8162TIP3    H248682   7.680   6.955   2.599 -1.7267  2.8478 -1.4979
 8163TIP3   OH248683   7.465   4.516   0.794  0.1054 -0.3880  0.4213
 8163TIP3    H148684   7.432   4.427   0.805  1.9037 -1.0359  0.9265
 8163TIP3    H248685   7.387   4.570   0.784 -1.0347 -1.9492  0.6097
 8164TIP3   OH248686   2.209   6.570   1.492 -0.0691  1.1512 -0.1872
 8164TIP3    H148687   2.116   6.591   1.483 -0.5586 -1.3183 -1.8970
 8164TIP3    H248688   2.212   6.504   1.561  0.4147  1.1499 -0.2075
 8165TIP3   OH248689   2.831   2.661   2.172  0.3720  0.5583  0.1447
 8165TIP3    H148690   2.867   2.576   2.196  0.2294  0.9146  1.7174
 8165TIP3    H248691   2.908   2.717   2.162  0.4729  0.2454 -1.0054
 8166TIP3   OH248692   7.622   0.735   2.631 -0.3466 -0.3285 -0.2792
 8166TIP3    H148693   7.557   0.683   2.583  0.9100 -0.8860 -1.4492
 8166TIP3    H248694   7.623   0.819   2.586  0.0529 -0.4797 -0.5611
 8167TIP3   OH248695   4.872   3.722   2.787  0.1952  0.2264  0.2651
 8167TIP3    H148696   4.901   3.665   2.858  0.6426 -0.6857 -0.6255
 8167TIP3    H248697   4.800   3.773   2.825 -1.1367 -1.8720  0.7306
 8168TIP3   OH248698   0.932   3.017   1.662  0.0035 -0.1116 -0.3459
 8168TIP3    H148699   0.848   3.010   1.617 -0.2272 -0.6791  0.1568
 8168TIP3    H248700   0.911   3.058   1.746 -0.1007 -1.9613  0.5845
 8169TIP3   OH248701   7.541   7.401   3.054  0.2244  0.8435 -0.2851
 8169TIP3    H148702   7.529   7.441   3.140  2.1130  3.1155 -0.9626
 8169TIP3    H248703   7.612   7.339   3.066  1.0634  1.7631 -0.3177
 8170TIP3   OH248704   2.875   0.639   3.180 -0.0872  0.0701 -0.0719
 8170TIP3    H148705   2.877   0.562   3.122  0.0768  0.6119 -0.7908
 8170TIP3    H248706   2.805   0.619   3.242  1.3803 -1.6399  1.1473
 8171TIP3   OH248707   1.954   2.300   2.807  0.0081  0.5914  0.5548
 8171TIP3    H148708   2.001   2.316   2.889  0.6571  0.2489  0.2639
 8171TIP3    H248709   2.003   2.228   2.766 -1.0708 -0.1077  0.4675
 8172TIP3   OH248710   5.209   6.026   1.122  0.2946  0.1335  0.3022
 8172TIP3    H148711   5.305   6.027   1.127  0.3691 -1.3644 -0.3538
 8172TIP3    H248712   5.185   5.936   1.146 -0.8052 -0.0930 -1.5214
 8173TIP3   OH248713   3.603   1.482   2.644 -0.3575 -0.1018 -0.5821
 8173TIP3    H148714   3.653   1.406   2.673 -0.8253 -0.3456 -0.4044
 8173TIP3    H248715   3.661   1.556   2.660 -0.2405 -0.3301  0.0930
 8174TIP3   OH248716   4.354   7.276   1.944  0.1940 -0.0235 -0.0537
 8174TIP3    H148717   4.389   7.298   1.858  1.5978  1.5990  0.8632
 8174TIP3    H248718   4.369   7.182   1.953  2.7275  0.2813 -0.4720
 8175TIP3   OH248719   5.826   6.719   1.415 -0.4228 -0.0417  0.1178
 8175TIP3    H148720   5.808   6.632   1.449 -1.0174 -0.1714 -0.4987
 8175TIP3    H248721   5.922   6.726   1.416 -0.3992 -0.4252  0.8311
 8176TIP3   OH248722   7.518   1.485   1.011  0.1257  0.0747  0.4054
 8176TIP3    H148723   7.503   1.516   1.100 -2.9608 -1.1828  0.4409
 8176TIP3    H248724   7.491   1.393   1.013  2.0294 -0.6083 -1.3896
 8177TIP3   OH248725   7.373   1.096   2.967 -0.2581 -0.6198  0.5143
 8177TIP3    H148726   7.288   1.107   3.010 -1.3017 -1.2151 -1.2967
 8177TIP3    H248727   7.383   1.001   2.959 -0.3217 -0.5168 -0.9450
 8178TIP3   OH248728   2.342   4.004   0.716  0.4272  0.6766  0.0735
 8178TIP3    H148729   2.311   4.026   0.628  0.3680  1.2176  0.2249
 8178TIP3    H248730   2.279   3.940   0.748  0.2616  0.7235 -0.1504
 8179TIP3   OH248731   4.880   5.659   0.707  0.1568 -0.2314  0.4716
 8179TIP3    H148732   4.959   5.610   0.727  0.4754  1.0756  2.7028
 8179TIP3    H248733   4.823   5.645   0.782 -0.9252  0.4553 -0.1864
 8180TIP3   OH248734   4.788   4.259   1.680 -0.2613 -0.0634  0.3266
 8180TIP3    H148735   4.852   4.188   1.679  0.0347  0.0284  3.1391
 8180TIP3    H248736   4.837   4.336   1.654 -0.6718 -0.8344 -3.1449
 8181TIP3   OH248737   1.304   3.773   1.331  0.0977 -0.0915 -0.2168
 8181TIP3    H148738   1.343   3.832   1.395 -0.6207 -0.7155  0.8196
 8181TIP3    H248739   1.374   3.759   1.266  2.4841 -2.8526  2.6268
 8182TIP3   OH248740   5.403   6.246   2.738 -0.0087 -0.1966  0.0711
 8182TIP3    H148741   5.386   6.279   2.826 -0.6436  1.1545 -0.5156
 8182TIP3    H248742   5.495   6.268   2.721  0.4605 -1.5023  0.7965
 8183TIP3   OH248743   6.718   7.401   3.676  0.2927  0.1740  0.1875
 8183TIP3    H148744   6.661   7.478   3.681  0.1979  0.2152 -1.1192
 8183TIP3    H248745   6.657   7.327   3.682 -0.0283  0.2126 -1.7050
 8184TIP3   OH248746   7.082   1.508   3.504  0.3181  0.3447  0.2863
 8184TIP3    H148747   7.164   1.548   3.533 -0.6593  2.3550  0.4672
 8184TIP3    H248748   7.040   1.576   3.451 -3.3334  1.2818  3.8955
 8185TIP3   OH248749   0.111   5.985   1.320 -0.3688  0.5655 -0.2467
 8185TIP3    H148750   0.160   5.978   1.238  1.3579 -0.3159  0.8147
 8185TIP3    H248751   0.077   5.897   1.335 -1.8580  1.0346 -0.6758
 8186TIP3   OH248752   5.381   5.960   0.844  0.0622 -0.2144  0.2565
 8186TIP3    H148753   5.286   5.961   0.836 -0.1156 -1.6359  1.7422
 8186TIP3    H248754   5.401   6.021   0.914  0.3699  0.9218 -0.7858
 8187TIP3   OH248755   4.752   5.691   1.598 -0.5089  0.1445 -0.2202
 8187TIP3    H148756   4.730   5.785   1.602 -1.7150 -0.0637 -1.3987
 8187TIP3    H248757   4.805   5.682   1.519  2.2520  0.2849  1.4995
 8188TIP3   OH248758   0.729   5.873   1.847 -0.2530 -0.3225 -0.5982
 8188TIP3    H148759   0.731   5.784   1.811  0.1671  0.3943 -2.4232
 8188TIP3    H248760   0.685   5.863   1.932  1.9144 -2.6623  0.3852
 8189TIP3   OH248761   1.267   3.536   2.636  0.6618  0.4833  0.6265
 8189TIP3    H148762   1.347   3.574   2.600 -0.0060  0.7986 -0.5787
 8189TIP3    H248763   1.197   3.592   2.603 -0.1076 -0.1310  1.1822
 8190TIP3   OH248764   2.417   2.874   1.535 -0.0728 -0.6062 -0.2321
 8190TIP3    H148765   2.388   2.935   1.467  0.0908 -0.9498 -0.6141
 8190TIP3    H248766   2.345   2.811   1.542  0.3132 -1.1201 -0.7658
 8191TIP3   OH248767   2.529   0.400   0.882 -0.0840 -0.8106  0.1981
 8191TIP3    H148768   2.440   0.418   0.849  0.6046 -0.7381 -1.7713
 8191TIP3    H248769   2.585   0.413   0.806  1.6702 -0.5670  1.4815
 8192TIP3   OH248770   5.001   3.541   2.621  0.2690  0.2743 -0.1153
 8192TIP3    H148771   4.921   3.589   2.645  0.7200 -0.0558  2.2906
 8192TIP3    H248772   5.000   3.463   2.677  0.7599 -1.3614 -2.2558
 8193TIP3   OH248773   4.759   6.951   1.490 -0.0791  0.2710  0.7037
 8193TIP3    H148774   4.680   6.905   1.461 -1.0046  0.4632  2.7231
 8193TIP3    H248775   4.756   7.035   1.443 -1.4122  0.5081  1.1616
 8194TIP3   OH248776   3.306   5.796   2.134  0.1114 -0.0546  0.1800
 8194TIP3    H148777   3.232   5.857   2.132 -1.4902 -1.9165 -0.3296
 8194TIP3    H248778   3.350   5.809   2.050  0.0550  0.6758  0.2545
 8195TIP3   OH248779   2.318   5.422   0.886 -0.0423 -0.2978  0.0931
 8195TIP3    H148780   2.252   5.372   0.935  0.3948 -0.2480  0.7409
 8195TIP3    H248781   2.268   5.493   0.845 -1.0301 -2.2404 -2.3851
 8196TIP3   OH248782   2.734   0.617   1.129  0.1860  0.4299  0.1859
 8196TIP3    H148783   2.790   0.632   1.205  0.5853  0.7965 -0.1829
 8196TIP3    H248784   2.775   0.665   1.058  0.3687 -0.7342 -0.5227
 8197TIP3   OH248785   4.740   5.191   1.019  0.8645  0.0691 -0.1818
 8197TIP3    H148786   4.705   5.102   1.011  0.6049  0.1033  0.4956
 8197TIP3    H248787   4.765   5.198   1.111 -2.6366  1.9511  0.7999
 8198TIP3   OH248788   5.738   4.911   1.661 -0.2230 -0.3463  0.5265
 8198TIP3    H148789   5.716   4.845   1.726 -0.0385  0.0039  0.9501
 8198TIP3    H248790   5.833   4.900   1.648 -0.0198  0.4447  1.2887
 8199TIP3   OH248791   0.581   4.944   2.162 -0.3978 -0.1651  0.2468
 8199TIP3    H148792   0.632   4.977   2.237 -1.0052  0.1871  0.5128
 8199TIP3    H248793   0.589   4.849   2.168 -0.7999 -0.1567  1.0201
 8200TIP3   OH248794   5.200   7.131   0.989 -0.3185 -0.1280 -0.2547
 8200TIP3    H148795   5.248   7.071   0.931 -0.4726 -0.4782 -0.0221
 8200TIP3    H248796   5.264   7.155   1.057  0.3930  1.5810 -1.4486
 8201TIP3   OH248797   4.922   5.303   1.882  0.0722  0.1667 -0.3035
 8201TIP3    H148798   4.867   5.380   1.899 -1.7712 -0.8535 -1.2958
 8201TIP3    H248799   5.009   5.329   1.913 -1.2875  1.2017  3.2290
 8202TIP3   OH248800   1.854   5.785   2.594  0.3132  0.4479 -0.1839
 8202TIP3    H148801   1.832   5.820   2.680  1.0257  1.9930 -0.5975
 8202TIP3    H248802   1.779   5.731   2.570  0.7144 -1.2758  2.0232
 8203TIP3   OH248803   2.146   1.083   0.701  0.5960 -0.0677 -0.0206
 8203TIP3    H148804   2.111   1.168   0.727 -1.0796 -0.5911 -0.4093
 8203TIP3    H248805   2.112   1.069   0.613 -1.2760 -2.1763  0.9222
 8204TIP3   OH248806   5.374   0.160   2.255  0.0705  0.0437 -0.7039
 8204TIP3    H148807   5.429   0.152   2.176 -1.4380 -1.4542 -1.6791
 8204TIP3    H248808   5.365   0.070   2.287 -2.8847 -0.0074 -1.4053
 8205TIP3   OH248809   6.115   1.107   2.918 -0.8672  0.2478  0.1030
 8205TIP3    H148810   6.100   1.138   3.008 -1.2131  0.3669  0.0063
 8205TIP3    H248811   6.201   1.141   2.895 -0.3312 -0.6119  0.7454
 8206TIP3   OH248812   4.397   4.823   2.045 -0.6247 -0.2627 -0.6748
 8206TIP3    H148813   4.444   4.790   2.122 -3.0659  0.2802  1.1882
 8206TIP3    H248814   4.361   4.745   2.004  0.4728 -0.5358 -1.1520
 8207TIP3   OH248815   0.456   1.342   1.817 -0.4294  0.0601  0.3666
 8207TIP3    H148816   0.503   1.400   1.877  0.6324  0.1752 -0.5436
 8207TIP3    H248817   0.464   1.385   1.732  0.3486 -1.3889 -0.3168
 8208TIP3   OH248818   3.934   7.669   2.829 -0.2194  0.0503 -0.1868
 8208TIP3    H148819   4.002   7.643   2.767 -1.1948 -1.1212 -0.7998
 8208TIP3    H248820   3.982   7.705   2.904  1.0304  0.0132 -0.9461
 8209TIP3   OH248821   5.860   7.307   1.437  0.0129 -0.3496 -0.2720
 8209TIP3    H148822   5.931   7.245   1.426  0.5233  0.3336 -0.9278
 8209TIP3    H248823   5.804   7.294   1.360 -0.0833 -0.2563 -0.2184
 8210TIP3   OH248824   2.069   0.001   2.592  0.1478 -0.0800 -0.1022
 8210TIP3    H148825   2.135  -0.045   2.642  0.1268  0.2145  0.2001
 8210TIP3    H248826   2.118   0.048   2.524  0.3379  0.8016  0.6276
 8211TIP3   OH248827   6.828   4.546   1.688  0.0602 -0.3003  0.3745
 8211TIP3    H148828   6.917   4.519   1.663  0.5947  2.1860 -0.7382
 8211TIP3    H248829   6.839   4.586   1.774 -0.0438 -0.3301  0.4011
 8212TIP3   OH248830   0.173   1.903   2.461  0.2813  0.0941  0.0953
 8212TIP3    H148831   0.128   1.835   2.411  2.9948 -0.8169 -1.2429
 8212TIP3    H248832   0.226   1.855   2.524 -1.2536  1.1834  2.3706
 8213TIP3   OH248833   4.090   0.833   2.479  0.2386  0.7441 -0.1107
 8213TIP3    H148834   4.079   0.738   2.487  0.4681  0.7893  0.9175
 8213TIP3    H248835   4.109   0.863   2.568  0.8183  1.6722 -0.5199
 8214TIP3   OH248836   4.679   1.516   2.094  0.3821  0.0592 -0.0058
 8214TIP3    H148837   4.608   1.510   2.158  0.4851 -0.0009  0.1047
 8214TIP3    H248838   4.739   1.445   2.118  1.8151  1.6782  1.5592
 8215TIP3   OH248839   1.121   3.239   1.659  0.0515 -0.0783 -0.1257
 8215TIP3    H148840   1.077   3.155   1.673  0.9452 -0.6648 -0.7087
 8215TIP3    H248841   1.134   3.243   1.564  1.2377  0.0845  0.0391
 8216TIP3   OH248842   1.501   1.470   0.544 -0.1727 -0.3763 -0.1646
 8216TIP3    H148843   1.469   1.530   0.476 -2.7157 -0.4643  0.8510
 8216TIP3    H248844   1.426   1.457   0.602  1.1680 -2.2971  1.2660
 8217TIP3   OH248845   3.459   5.840   1.923 -0.1034 -0.2127  0.0928
 8217TIP3    H148846   3.396   5.801   1.861  0.5913 -0.8585 -0.2209
 8217TIP3    H248847   3.527   5.877   1.867  1.3443 -2.1629  0.4588
 8218TIP3   OH248848   6.473   7.311   2.174 -0.1965  0.1432  0.5980
 8218TIP3    H148849   6.462   7.252   2.249  2.6324 -3.5853 -1.5708
 8218TIP3    H248850   6.433   7.264   2.101  1.5113  1.2433 -1.1313
 8219TIP3   OH248851   3.870   3.278   3.123 -0.8234  0.1062  0.3201
 8219TIP3    H148852   3.829   3.198   3.092  0.3599 -0.7756  0.9470
 8219TIP3    H248853   3.930   3.303   3.052 -0.2866 -0.2683  0.6320
 8220TIP3   OH248854   2.842   5.599   1.005 -0.2821 -0.8131 -0.1609
 8220TIP3    H148855   2.836   5.669   0.939 -1.5578 -0.5531  0.2139
 8220TIP3    H248856   2.846   5.645   1.088  3.1475 -1.0570 -0.0248
 8221TIP3   OH248857   5.455   6.017   1.303  0.2184 -0.3517 -0.5501
 8221TIP3    H148858   5.439   6.032   1.396  2.4951 -3.1055  0.4283
 8221TIP3    H248859   5.546   5.986   1.299  0.0592 -0.7562 -3.6678
 8222TIP3   OH248860   3.561   6.415   3.223  0.1636 -0.3822  0.5525
 8222TIP3    H148861   3.469   6.391   3.228  0.2946 -0.8539  0.7700
 8222TIP3    H248862   3.606   6.347   3.273  0.5281  0.4196  1.3507
 8223TIP3   OH248863   0.077   3.213   1.088 -0.0062  0.0324  0.3654
 8223TIP3    H148864   0.105   3.195   0.998 -2.1285  1.5552 -0.6994
 8223TIP3    H248865   0.034   3.133   1.117 -0.1878 -0.1350 -0.3609
 8224TIP3   OH248866   0.495   2.396   2.013 -0.2684 -0.5149  0.0242
 8224TIP3    H148867   0.432   2.357   2.073 -1.1105 -2.2309 -1.8680
 8224TIP3    H248868   0.577   2.349   2.029 -0.3845 -0.6939  0.0931
 8225TIP3   OH248869   0.223   0.042   2.065  0.4850 -0.2914 -0.7184
 8225TIP3    H148870   0.192  -0.033   2.116  1.0099  1.6186  2.7210
 8225TIP3    H248871   0.145   0.074   2.019 -0.4439 -1.1157  0.2359
 8226TIP3   OH248872   1.549   5.789   3.285  0.4312  0.5258 -0.7893
 8226TIP3    H148873   1.474   5.841   3.257 -0.7554 -0.5392  0.3030
 8226TIP3    H248874   1.623   5.849   3.278 -1.0207  2.8045  1.4307
 8227TIP3   OH248875   0.406   0.995   0.375 -0.0517 -0.0177  0.1468
 8227TIP3    H148876   0.483   0.957   0.330  0.3795 -0.1235  0.9540
 8227TIP3    H248877   0.423   1.089   0.376 -0.2272  0.0184 -0.2137
 8228TIP3   OH248878   5.304   3.628   2.464 -0.2869  0.2377  0.2478
 8228TIP3    H148879   5.257   3.706   2.434 -1.3142 -0.1689  0.7551
 8228TIP3    H248880   5.346   3.655   2.546 -1.2476  0.0572  0.8070
 8229TIP3   OH248881   4.563   1.776   1.844 -0.2409  0.2866  0.2558
 8229TIP3    H148882   4.613   1.857   1.858  1.1712 -0.6994  1.1231
 8229TIP3    H248883   4.557   1.767   1.749  2.9310 -0.5339  0.0420
 8230TIP3   OH248884   3.666   7.200   2.281  0.5344 -0.4647 -0.0033
 8230TIP3    H148885   3.717   7.252   2.343  3.7987 -2.6144 -0.6150
 8230TIP3    H248886   3.616   7.139   2.335  1.0517 -0.3616  0.5924
 8231TIP3   OH248887   4.303   5.915   3.300 -0.5630 -0.5283 -0.4663
 8231TIP3    H148888   4.292   5.842   3.238  0.0276  0.2891 -1.5746
 8231TIP3    H248889   4.241   5.981   3.271  3.2375  2.1044 -3.7395
 8232TIP3   OH248890   3.561   7.169   1.279  0.1032  0.0610  0.3081
 8232TIP3    H148891   3.483   7.170   1.335  0.9496  1.5544  1.5257
 8232TIP3    H248892   3.628   7.129   1.334  1.1463  2.2326  0.7241
 8233TIP3   OH248893   1.939   0.742   1.916  0.0828  0.1215  0.0264
 8233TIP3    H148894   1.963   0.770   1.828  0.8366  0.2002  0.2462
 8233TIP3    H248895   1.888   0.662   1.903  0.8910 -0.3274 -0.4526
 8234TIP3   OH248896   6.589   0.755   1.270  0.4135  0.5053 -0.2547
 8234TIP3    H148897   6.597   0.684   1.334 -1.0100  0.1444 -0.4450
 8234TIP3    H248898   6.517   0.808   1.303 -0.7682 -0.0407 -1.8737
 8235TIP3   OH248899   2.299   5.816   1.235  0.7732  0.0267  0.1704
 8235TIP3    H148900   2.308   5.855   1.148 -0.0721 -1.3300 -0.5584
 8235TIP3    H248901   2.381   5.770   1.250  1.0797  0.5965  0.2799
 8236TIP3   OH248902   5.175   4.474   1.409 -0.3463 -0.5364  0.1894
 8236TIP3    H148903   5.204   4.563   1.388 -1.8428 -0.1846 -0.5187
 8236TIP3    H248904   5.231   4.417   1.356 -0.4163  0.0767 -0.5606
 8237TIP3   OH248905   5.128   4.603   1.671 -0.4186 -0.3026 -0.1210
 8237TIP3    H148906   5.034   4.592   1.687 -0.2098 -1.1140  0.6380
 8237TIP3    H248907   5.140   4.571   1.581 -1.1576  1.6560 -0.9694
 8238TIP3   OH248908   3.762   2.363   1.742  0.2721  0.1623 -0.0725
 8238TIP3    H148909   3.784   2.354   1.650  0.6826 -1.7848  0.1610
 8238TIP3    H248910   3.837   2.325   1.788  0.0682  1.0861  1.0667
 8239TIP3   OH248911   5.217   3.625   0.746 -0.6739 -0.1875  0.0528
 8239TIP3    H148912   5.279   3.692   0.719 -1.7460  1.4248  1.3736
 8239TIP3    H248913   5.267   3.569   0.806  0.4433 -1.1016 -1.6471
 8240TIP3   OH248914   5.874   5.942   1.348 -0.8862 -0.6934  0.0904
 8240TIP3    H148915   5.941   5.909   1.288  1.1450 -0.3410  2.0435
 8240TIP3    H248916   5.793   5.904   1.315  0.4364 -2.2998 -1.5683
 8241TIP3   OH248917   6.872   6.274   1.123 -0.3859  0.4074 -0.5189
 8241TIP3    H148918   6.960   6.235   1.126  0.6404  2.5881  0.0336
 8241TIP3    H248919   6.813   6.201   1.142  1.0804 -1.5961 -3.0245
 8242TIP3   OH248920   7.011   0.781   0.968 -0.7230  0.3575  0.4760
 8242TIP3    H148921   6.952   0.853   0.943  0.0780  1.3812  1.4361
 8242TIP3    H248922   6.962   0.702   0.946 -2.1680  1.1765  0.5883
 8243TIP3   OH248923   1.925   3.784   2.117  0.1274  0.1517 -0.5147
 8243TIP3    H148924   2.009   3.782   2.071  1.0570  2.5416  0.9144
 8243TIP3    H248925   1.860   3.780   2.047  1.4710  2.1980 -2.0132
 8244TIP3   OH248926   0.648   0.635   0.785  0.0906 -0.0220 -0.1624
 8244TIP3    H148927   0.680   0.597   0.867  0.3472 -0.4113 -0.4390
 8244TIP3    H248928   0.598   0.564   0.744  0.9751 -0.2293 -0.9147
 8245TIP3   OH248929   7.022   7.350   1.689 -0.2175 -0.1073  0.1718
 8245TIP3    H148930   7.061   7.437   1.688  0.6483 -0.4880  0.5714
 8245TIP3    H248931   7.010   7.328   1.596  0.6421 -0.0345  0.0371
 8246TIP3   OH248932   7.325   0.518   1.443  0.4830  0.1337  0.2573
 8246TIP3    H148933   7.331   0.514   1.348  0.6745  0.8923  0.2311
 8246TIP3    H248934   7.340   0.611   1.464  1.9284 -0.2654  1.1171
 8247TIP3   OH248935   6.090   6.249   3.310 -0.0161  0.2481 -0.0226
 8247TIP3    H148936   6.182   6.230   3.294  1.0766  2.2399  3.0933
 8247TIP3    H248937   6.084   6.344   3.311 -2.4575  0.2010 -1.4418
 8248TIP3   OH248938   7.154   3.722   0.751  0.1189 -0.2053  0.7317
 8248TIP3    H148939   7.239   3.679   0.759  0.0357 -0.2224  1.5896
 8248TIP3    H248940   7.128   3.741   0.841 -0.8179 -0.2603  0.4832
 8249TIP3   OH248941   7.110   7.608   3.039 -0.2429 -0.8429 -0.0605
 8249TIP3    H148942   7.040   7.548   3.063 -0.2192 -1.2719 -1.0257
 8249TIP3    H248943   7.072   7.666   2.973  0.3120 -1.1251 -0.6494
 8250TIP3   OH248944   0.701   0.504   0.437  0.3063  0.0101  0.3391
 8250TIP3    H148945   0.793   0.484   0.455  0.5941  2.3817  1.9866
 8250TIP3    H248946   0.652   0.447   0.495  0.8763  0.4026  1.2407
 8251TIP3   OH248947   7.295   2.104   1.195 -0.1793  0.0686 -0.0845
 8251TIP3    H148948   7.268   2.016   1.171 -1.4277  0.8334 -1.6483
 8251TIP3    H248949   7.214   2.155   1.197  0.2862  0.8858  2.4227
 8252TIP3   OH248950   5.529   0.299   1.271 -0.3495 -0.9889  0.2936
 8252TIP3    H148951   5.585   0.374   1.291 -1.8998 -0.3913  2.9001
 8252TIP3    H248952   5.462   0.335   1.212  0.3632 -1.0272 -0.5706
 8253TIP3   OH248953   6.725   5.318   0.675  0.2171  0.0569  0.0463
 8253TIP3    H148954   6.783   5.356   0.608  1.0149 -0.2518  0.5468
 8253TIP3    H248955   6.773   5.327   0.757 -0.2667 -0.5892  0.4133
 8254TIP3   OH248956   2.314   4.875   0.994 -0.4220 -0.7869  0.7722
 8254TIP3    H148957   2.280   4.942   1.052  0.5038  0.8238 -0.4750
 8254TIP3    H248958   2.409   4.885   0.999 -0.2293  1.4527 -3.1227
 8255TIP3   OH248959   3.950   7.333   1.842 -0.2916  0.2534  0.2483
 8255TIP3    H148960   3.882   7.266   1.831  0.3697 -0.8652  2.3849
 8255TIP3    H248961   3.908   7.401   1.894 -0.0620 -0.0119  0.7894
 8256TIP3   OH248962   5.368   7.385   1.905 -0.0291 -0.1449  0.2939
 8256TIP3    H148963   5.423   7.418   1.976 -1.1081 -0.2329  1.1839
 8256TIP3    H248964   5.336   7.463   1.860 -0.9264 -0.0143  1.1321
 8257TIP3   OH248965   7.401   5.878   2.687 -0.4467 -0.2372 -0.2348
 8257TIP3    H148966   7.431   5.881   2.778 -0.9343 -0.4000 -0.0686
 8257TIP3    H248967   7.434   5.959   2.648  0.4946 -0.5633 -0.1448
 8258TIP3   OH248968   3.236   6.281   1.247  0.4743 -0.0814 -0.2596
 8258TIP3    H148969   3.291   6.273   1.169 -0.2262 -0.6449 -0.7094
 8258TIP3    H248970   3.250   6.199   1.294 -0.6434 -0.6242 -0.8324
 8259TIP3   OH248971   0.586   6.427   1.121 -0.4558  0.1767  0.0319
 8259TIP3    H148972   0.516   6.490   1.109  0.7106  1.7892  1.3370
 8259TIP3    H248973   0.643   6.440   1.046 -0.8650 -0.2478 -0.3624
 8260TIP3   OH248974   2.435   4.300   2.930 -0.6999 -0.4492  0.4775
 8260TIP3    H148975   2.367   4.299   2.862 -0.0743 -1.1078 -0.1542
 8260TIP3    H248976   2.481   4.217   2.919  2.3687  1.2998 -1.3410
 8261TIP3   OH248977   0.461   5.656   2.753 -0.0379 -0.2361 -0.7071
 8261TIP3    H148978   0.390   5.716   2.773 -0.2585 -0.5310 -0.5863
 8261TIP3    H248979   0.513   5.700   2.686  1.1753  1.1295  1.0433
 8262TIP3   OH248980   4.633   3.394   1.852  0.1023  0.3657  0.3540
 8262TIP3    H148981   4.637   3.299   1.843  0.4883  0.4216 -0.1001
 8262TIP3    H248982   4.649   3.428   1.764 -1.8712  0.8272  0.1158
 8263TIP3   OH248983   2.842   1.637   3.762  0.3627 -0.1574 -0.1480
 8263TIP3    H148984   2.787   1.701   3.717  1.3305  1.6015  1.0284
 8263TIP3    H248985   2.929   1.650   3.726  0.7861 -0.0236  0.8865
 8264TIP3   OH248986   7.550   6.800   1.231  0.2552  0.3407 -0.0453
 8264TIP3    H148987   7.486   6.787   1.301  0.7010 -1.2426  0.1162
 8264TIP3    H248988   7.614   6.730   1.244 -0.5738 -1.1343 -3.0559
 8265TIP3   OH248989   2.054   7.351   1.173  0.0219  0.6187 -0.1700
 8265TIP3    H148990   2.006   7.417   1.223 -0.4367 -0.9597  1.5646
 8265TIP3    H248991   2.116   7.401   1.120 -0.9117  2.4755  0.4281
 8266TIP3   OH248992   3.933   1.245   2.651  0.1204 -0.2952  0.5005
 8266TIP3    H148993   3.843   1.271   2.673  0.1203  0.8387 -0.7403
 8266TIP3    H248994   3.984   1.265   2.730 -0.5854 -0.2836  0.9649
 8267TIP3   OH248995   3.897   6.916   1.723  0.1213  0.3423  0.5233
 8267TIP3    H148996   3.838   6.844   1.704 -1.0188  1.3998 -0.0696
 8267TIP3    H248997   3.852   6.968   1.789  1.5903 -0.2492  2.0598
 8268TIP3   OH248998   1.484   3.783   1.109  0.7820 -0.2621 -0.0947
 8268TIP3    H148999   1.462   3.813   1.021  0.2479  0.7103  0.3530
 8268TIP3    H249000   1.536   3.704   1.095  0.1012 -0.5240 -1.2657
 8269TIP3   OH249001   4.133   7.147   3.186 -0.1062  0.2168  0.4483
 8269TIP3    H149002   4.038   7.158   3.191  0.0785  2.2720  0.2142
 8269TIP3    H249003   4.145   7.068   3.134 -1.7136  1.2166 -1.5856
 8270TIP3   OH249004   4.695   3.688   0.910 -0.0504 -0.0551 -0.0332
 8270TIP3    H149005   4.684   3.774   0.949  0.4711  0.0411 -0.0791
 8270TIP3    H249006   4.785   3.689   0.877 -0.2361 -0.4000 -0.5634
 8271TIP3   OH249007   5.996   1.143   2.285 -0.2053  0.2667 -0.0266
 8271TIP3    H149008   5.938   1.160   2.360 -1.1489  0.1965 -0.7193
 8271TIP3    H249009   6.058   1.216   2.286 -0.7472  0.7295  0.3194
 8272TIP3   OH249010   3.654   0.455   1.732 -0.3424  0.2263  0.1730
 8272TIP3    H149011   3.631   0.474   1.641 -1.7344  1.9191  0.8193
 8272TIP3    H249012   3.732   0.507   1.748  0.2936 -0.5879 -0.2227
 8273TIP3   OH249013   4.733   5.773   2.373  0.0614  0.0473 -0.3076
 8273TIP3    H149014   4.651   5.745   2.416  2.1259 -2.0184  2.7643
 8273TIP3    H249015   4.785   5.811   2.444  1.7875  1.3688 -2.1777
 8274TIP3   OH249016   2.744   4.235   1.056  0.0466 -0.4244 -0.2674
 8274TIP3    H149017   2.671   4.216   0.998 -0.3507  1.4558 -0.4308
 8274TIP3    H249018   2.805   4.285   1.002  0.0685  0.5970  0.6786
 8275TIP3   OH249019   4.696   3.680   2.308 -0.1846 -0.4428 -0.5106
 8275TIP3    H149020   4.734   3.642   2.229  1.4274  0.4568 -0.2205
 8275TIP3    H249021   4.750   3.758   2.325 -0.7803 -0.3690  1.2136
 8276TIP3   OH249022   5.906   4.246   2.940  0.3827 -0.6353 -0.4896
 8276TIP3    H149023   5.995   4.216   2.957  0.1990 -1.2196 -0.5034
 8276TIP3    H249024   5.868   4.177   2.885  0.2326  0.0855 -1.3158
 8277TIP3   OH249025   4.358   2.701   2.358 -0.3973  0.7689 -0.0523
 8277TIP3    H149026   4.276   2.653   2.367  0.6818 -1.1199  0.5249
 8277TIP3    H249027   4.419   2.654   2.417  1.2335  1.7081 -0.9248
 8278TIP3   OH249028   6.053   0.263   0.606  0.4186 -0.0459 -0.0266
 8278TIP3    H149029   6.037   0.181   0.558 -0.6556  1.1979 -1.9036
 8278TIP3    H249030   6.061   0.329   0.538  0.3382  1.5865  1.4953
 8279TIP3   OH249031   1.673   1.748   2.550 -0.4017 -0.1175 -0.2675
 8279TIP3    H149032   1.612   1.754   2.477 -0.8400 -0.9695  0.0184
 8279TIP3    H249033   1.624   1.784   2.625 -1.3063 -2.5283  0.3936
 8280TIP3   OH249034   7.384   2.645   1.090  0.1449 -0.1715 -0.5209
 8280TIP3    H149035   7.392   2.554   1.120  1.2506  0.3906  1.0487
 8280TIP3    H249036   7.370   2.695   1.170  0.6229  1.1521 -1.2326
 8281TIP3   OH249037   5.576   7.548   1.532  0.1497 -0.3380 -0.0238
 8281TIP3    H149038   5.540   7.632   1.505  0.2713 -0.1291  0.4551
 8281TIP3    H249039   5.629   7.568   1.609 -1.2650 -1.1035  1.2156
 8282TIP3   OH249040   2.692   0.635   2.273  0.8770  0.6203  0.2140
 8282TIP3    H149041   2.605   0.650   2.238  0.5925 -0.2957  0.4919
 8282TIP3    H249042   2.677   0.593   2.358  1.5304 -2.2962 -0.9761
 8283TIP3   OH249043   0.543   2.318   2.810 -0.1922 -0.1198 -0.1025
 8283TIP3    H149044   0.481   2.248   2.832 -1.1819  0.8578  0.3007
 8283TIP3    H249045   0.529   2.334   2.717 -0.7566  0.2749  0.0416
 8284TIP3   OH249046   4.831   2.628   2.529 -0.2490  0.5590  0.4277
 8284TIP3    H149047   4.879   2.702   2.565  0.6507  0.9405 -1.4453
 8284TIP3    H249048   4.873   2.551   2.566  2.2293  0.8609 -1.5072
 8285TIP3   OH249049   5.928   2.432   3.132 -0.6234  0.4845 -0.3003
 8285TIP3    H149050   5.952   2.339   3.127 -1.4807  0.1904  0.7357
 8285TIP3    H249051   5.924   2.451   3.225 -0.3774  1.5952 -0.5085
 8286TIP3   OH249052   5.456   6.700   3.374  0.8191  0.1423  0.2696
 8286TIP3    H149053   5.476   6.790   3.401 -2.2550  0.5550  1.5448
 8286TIP3    H249054   5.369   6.706   3.335  0.4714 -2.3210  0.5240
 8287TIP3   OH249055   5.286   7.434   0.543  0.6770  0.2425 -0.2384
 8287TIP3    H149056   5.343   7.368   0.582  0.6631 -0.4284 -1.3169
 8287TIP3    H249057   5.239   7.388   0.474 -1.0133  0.8436  0.4455
 8288TIP3   OH249058   7.001   3.673   1.415  0.3160  0.0562  0.2409
 8288TIP3    H149059   7.060   3.708   1.348 -0.5445  0.8845 -0.1128
 8288TIP3    H249060   7.004   3.578   1.404 -0.5306  0.2090 -1.6359
 8289TIP3   OH249061   7.169   6.291   2.109 -0.3245  0.3592 -0.3253
 8289TIP3    H149062   7.089   6.344   2.119  0.5428  1.5705  0.4628
 8289TIP3    H249063   7.137   6.202   2.099 -1.7955  0.8492 -0.3050
 8290TIP3   OH249064   5.385   4.884   2.024  0.0853 -0.4564  0.0876
 8290TIP3    H149065   5.443   4.827   2.074  0.1350  0.7064  1.4065
 8290TIP3    H249066   5.405   4.864   1.932  0.7969 -1.8223  0.5128
 8291TIP3   OH249067   1.482   2.787   1.456 -0.1379 -0.7199  0.4963
 8291TIP3    H149068   1.411   2.734   1.492 -1.0350  0.4431  0.5082
 8291TIP3    H249069   1.506   2.846   1.528 -3.1888  2.9084 -1.0995
 8292TIP3   OH249070   1.733   6.184   1.876 -0.4296  0.3562  0.1241
 8292TIP3    H149071   1.664   6.240   1.840 -2.1414 -1.0228  1.0831
 8292TIP3    H249072   1.685   6.113   1.919  1.6271 -0.8641  0.5006
 8293TIP3   OH249073   1.617   1.467   1.996 -0.0120 -0.6002  0.0313
 8293TIP3    H149074   1.689   1.484   2.057 -0.7411 -1.1607  1.0743
 8293TIP3    H249075   1.576   1.552   1.982  0.4592 -0.3867 -0.0681
 8294TIP3   OH249076   3.966   1.295   2.383 -0.3021  0.6057 -0.3826
 8294TIP3    H149077   4.023   1.230   2.341 -0.9482  0.1012 -0.4917
 8294TIP3    H249078   3.976   1.279   2.477  0.0864  0.8253 -0.3839
 8295TIP3   OH249079   6.256   6.258   2.665  0.1415  0.1275  0.1783
 8295TIP3    H149080   6.166   6.228   2.663 -0.1920  1.1315 -0.7772
 8295TIP3    H249081   6.272   6.279   2.756 -0.0482 -1.5659  0.6434
 8296TIP3   OH249082   3.242   2.707   2.612  0.3456  0.4658 -0.0833
 8296TIP3    H149083   3.203   2.674   2.693 -1.3263  2.6406  0.0917
 8296TIP3    H249084   3.308   2.770   2.641  2.2031 -1.2213 -0.4335
 8297TIP3   OH249085   5.431   3.455   1.457 -0.2589  0.0359  0.4332
 8297TIP3    H149086   5.434   3.461   1.553 -1.4474  0.0068  0.4907
 8297TIP3    H249087   5.344   3.419   1.439  0.2295 -0.6523 -0.6280
 8298TIP3   OH249088   1.047   5.192   0.776  0.3245 -0.0947  0.0710
 8298TIP3    H149089   1.047   5.280   0.740  1.8355  0.0841  0.4462
 8298TIP3    H249090   1.080   5.137   0.705  2.1407  0.0852  0.7279
 8299TIP3   OH249091   4.597   1.493   4.113  0.2378 -0.4116 -0.8019
 8299TIP3    H149092   4.682   1.532   4.129 -0.0408 -0.5528  1.1998
 8299TIP3    H249093   4.547   1.562   4.070 -0.1111  1.4342  2.2668
 8300TIP3   OH249094   3.653   6.206   3.354 -0.2284 -0.5577 -0.2829
 8300TIP3    H149095   3.630   6.118   3.324  0.7931 -0.5287 -1.2182
 8300TIP3    H249096   3.749   6.206   3.356 -0.2144 -0.1131  1.7207
 8301TIP3   OH249097   6.733   6.586   0.644  0.3306  0.0828  0.4797
 8301TIP3    H149098   6.719   6.677   0.668  2.1992  0.5518 -0.0528
 8301TIP3    H249099   6.722   6.584   0.549  2.2428  0.2033  0.2209
 8302TIP3   OH249100   4.871   1.088   2.339  0.1225  0.1404 -0.4433
 8302TIP3    H149101   4.935   1.070   2.408  0.2287 -0.5595 -0.7109
 8302TIP3    H249102   4.793   1.039   2.365 -0.2752  0.8903 -0.1823
 8303TIP3   OH249103   2.194   6.748   1.798  0.2866  0.3331 -0.5292
 8303TIP3    H149104   2.195   6.712   1.887 -1.7386 -1.6904 -1.2356
 8303TIP3    H249105   2.277   6.719   1.760  1.3452  1.5322  0.7444
 8304TIP3   OH249106   0.807   2.232   1.682 -0.8063 -0.5838 -0.3205
 8304TIP3    H149107   0.782   2.141   1.694 -0.0204 -0.7198  0.4333
 8304TIP3    H249108   0.883   2.244   1.740  0.9025 -0.2210 -2.4744
 8305TIP3   OH249109   6.861   6.001   2.674 -0.0120  0.3571 -0.5291
 8305TIP3    H149110   6.849   6.096   2.673  0.8058  0.4684 -1.3688
 8305TIP3    H249111   6.938   5.987   2.729 -0.4040  0.1347 -0.0276
 8306TIP3   OH249112   6.708   0.328   2.881  0.2868 -0.5142 -0.2000
 8306TIP3    H149113   6.670   0.416   2.890  1.0850 -0.0442 -1.2251
 8306TIP3    H249114   6.776   0.324   2.948  0.2516 -0.3476 -0.1547
 8307TIP3   OH249115   3.123   7.566   2.430  0.2760 -0.0551 -0.3183
 8307TIP3    H149116   3.168   7.590   2.511  1.5180 -0.2804 -0.9191
 8307TIP3    H249117   3.139   7.472   2.420  0.7365  0.0998 -1.1674
 8308TIP3   OH249118   0.287   0.260   2.241  0.2747  0.2952 -0.2742
 8308TIP3    H149119   0.246   0.193   2.187 -1.7901  1.2722 -0.0146
 8308TIP3    H249120   0.381   0.242   2.234 -0.1804 -2.7743  0.0365
 8309TIP3   OH249121   3.771   6.918   2.767 -0.3391  0.1030  0.3075
 8309TIP3    H149122   3.796   6.914   2.674 -1.9527  0.8889 -0.2100
 8309TIP3    H249123   3.794   6.833   2.802 -0.3582 -0.4730 -1.0081
 8310TIP3   OH249124   1.199   1.188   1.663 -0.5265 -0.5517 -0.1559
 8310TIP3    H149125   1.222   1.186   1.756  1.2122  1.4176 -0.4510
 8310TIP3    H249126   1.270   1.142   1.619 -0.0214  0.6348 -0.6532
 8311TIP3   OH249127   0.709   4.593   1.280 -0.1066  0.9005  0.1211
 8311TIP3    H149128   0.697   4.683   1.250  0.3880  1.6069  1.9038
 8311TIP3    H249129   0.623   4.567   1.313  0.1334  1.3459  1.1371
 8312TIP3   OH249130   3.313   2.552   2.411 -0.0644 -0.4416  0.4038
 8312TIP3    H149131   3.402   2.560   2.446  0.4809  1.0675 -1.1702
 8312TIP3    H249132   3.258   2.598   2.474  0.5626  0.2375  0.4741
 8313TIP3   OH249133   2.620   2.736   2.950 -0.2121 -0.2154 -0.1533
 8313TIP3    H149134   2.542   2.790   2.956 -0.1629 -0.0094 -1.2391
 8313TIP3    H249135   2.688   2.786   2.995 -0.6468 -0.3016  0.6099
 8314TIP3   OH249136   4.059   3.283   1.804 -0.1614 -0.3449  0.1726
 8314TIP3    H149137   4.060   3.191   1.830 -0.8065 -0.4063 -0.0095
 8314TIP3    H249138   3.986   3.290   1.743 -0.6052  0.4524  0.7775
 8315TIP3   OH249139   3.750   0.843   2.754  0.5080  0.2329  0.3582
 8315TIP3    H149140   3.768   0.900   2.829 -0.5184 -0.6162  1.2821
 8315TIP3    H249141   3.722   0.902   2.684  1.3775  1.0242  0.6598
 8316TIP3   OH249142   5.645   6.346   2.609 -0.2219 -0.3176  0.0085
 8316TIP3    H149143   5.702   6.331   2.534 -1.1596 -1.6592 -0.4719
 8316TIP3    H249144   5.701   6.390   2.673  0.8904 -0.1308 -1.0516
 8317TIP3   OH249145   4.912   3.570   2.133 -0.3506 -0.2904  0.2275
 8317TIP3    H149146   4.961   3.595   2.055 -1.0229 -2.0328 -0.7970
 8317TIP3    H249147   4.840   3.515   2.101 -1.3419 -0.0892  1.9583
 8318TIP3   OH249148   2.466   1.527   2.720  0.8373  0.7875 -0.3298
 8318TIP3    H149149   2.514   1.475   2.656 -0.6731 -0.2629 -0.6814
 8318TIP3    H249150   2.439   1.606   2.672  1.0773  0.7585 -0.5144
 8319TIP3   OH249151   2.875   1.355   2.228  0.5003 -0.2143  0.0406
 8319TIP3    H149152   2.854   1.448   2.218  1.2830  0.1597  1.5345
 8319TIP3    H249153   2.900   1.346   2.320  0.4240 -1.9196 -0.0676
 8320TIP3   OH249154   6.485   5.631   1.182 -0.0036 -0.0455  0.2915
 8320TIP3    H149155   6.548   5.600   1.117  0.7586 -0.5325  1.2362
 8320TIP3    H249156   6.402   5.635   1.135  0.5413 -0.3179 -0.7231
 8321TIP3   OH249157   2.213   5.217   0.731  0.6275 -0.5705  0.3575
 8321TIP3    H149158   2.162   5.233   0.810  1.3015  0.2560  0.6516
 8321TIP3    H249159   2.272   5.293   0.726 -1.0198  0.6588 -2.2517
 8322TIP3   OH249160   5.318   1.688   2.582  0.2559 -0.1580  0.0525
 8322TIP3    H149161   5.352   1.607   2.545 -0.8750 -0.7443  0.2269
 8322TIP3    H249162   5.379   1.756   2.554  0.6771 -0.9247 -0.9242
 8323TIP3   OH249163   4.462   4.137   2.356  0.2820 -0.1926  0.6976
 8323TIP3    H149164   4.390   4.090   2.399 -2.0439  0.8806 -1.7157
 8323TIP3    H249165   4.519   4.068   2.323 -0.6782 -1.1801  1.0390
 8324TIP3   OH249166   6.645   1.694   2.561  0.2821 -0.0910  0.2188
 8324TIP3    H149167   6.682   1.706   2.473 -0.1485  0.0163  0.0518
 8324TIP3    H249168   6.618   1.782   2.587  1.2512  0.0430  0.8423
 8325TIP3   OH249169   4.698   2.557   1.282  0.5266 -0.2094 -0.1960
 8325TIP3    H149170   4.661   2.590   1.200 -3.7352  0.4890  1.7444
 8325TIP3    H249171   4.714   2.635   1.335  3.7853 -0.6089 -0.3796
 8326TIP3   OH249172   4.861   2.538   3.519 -0.2747 -0.3077 -0.6020
 8326TIP3    H149173   4.942   2.490   3.537 -0.5113 -0.6507 -0.4328
 8326TIP3    H249174   4.885   2.603   3.453  1.0120  2.1018  2.0195
 8327TIP3   OH249175   5.801   2.244   1.512  0.1038 -0.5151 -0.3540
 8327TIP3    H149176   5.845   2.288   1.585 -1.0699 -2.6317  1.7831
 8327TIP3    H249177   5.719   2.292   1.502  0.0655 -0.4873  0.0635
 8328TIP3   OH249178   6.956   1.430   2.839  0.3103 -0.0331  0.6787
 8328TIP3    H149179   6.875   1.385   2.866 -0.8545 -0.6205 -3.1641
 8328TIP3    H249180   7.023   1.363   2.844 -0.3890 -0.8323 -0.1442
 8329TIP3   OH249181   6.815   3.824   1.170 -0.4340  0.0096  0.0795
 8329TIP3    H149182   6.776   3.848   1.086  0.8820 -1.1049 -0.9163
 8329TIP3    H249183   6.787   3.733   1.184  0.6887 -0.3656 -0.0097
 8330TIP3   OH249184   7.394   5.873   2.024  0.1050 -0.7567  0.4164
 8330TIP3    H149185   7.408   5.795   2.078  0.8662 -0.8165  0.1336
 8330TIP3    H249186   7.332   5.926   2.075  1.8362 -0.1680  2.0511
 8331TIP3   OH249187   4.212   4.255   1.780  0.3008  0.5939 -0.3854
 8331TIP3    H149188   4.176   4.185   1.836  0.6411  0.6625 -0.0741
 8331TIP3    H249189   4.300   4.225   1.760  0.3997  0.8723 -0.3610
 8332TIP3   OH249190   0.030   4.295   1.973  0.4646 -0.1854  0.1253
 8332TIP3    H149191   0.056   4.304   1.881  0.3001  0.1069  0.1047
 8332TIP3    H249192   0.094   4.235   2.011  1.1505  0.4952  0.0690
 8333TIP3   OH249193   2.702   1.891   2.150 -0.0737  0.2342  0.3911
 8333TIP3    H149194   2.633   1.857   2.207 -0.3893  0.0520 -0.0888
 8333TIP3    H249195   2.700   1.986   2.165 -0.5569  0.2519  0.2530
 8334TIP3   OH249196   0.353   7.383   2.145  0.0005 -0.0839 -1.0457
 8334TIP3    H149197   0.398   7.359   2.225 -0.3665  1.2920 -0.3889
 8334TIP3    H249198   0.420   7.427   2.092  0.7250 -2.5625 -2.3309
 8335TIP3   OH249199   0.044   1.106   2.673 -0.4316 -0.0131 -0.6487
 8335TIP3    H149200   0.061   1.183   2.618  0.6182 -0.1968 -0.6014
 8335TIP3    H249201  -0.022   1.057   2.625 -0.4028  0.4375 -1.1615
 8336TIP3   OH249202   5.246   3.303   7.112 -0.5824  0.0230  0.5362
 8336TIP3    H149203   5.317   3.306   7.176 -1.7069 -0.7144  1.8926
 8336TIP3    H249204   5.220   3.394   7.101  0.5477  0.2956  0.0356
 8337TIP3   OH249205   0.614   5.811   2.120 -0.2509 -0.2080  0.1677
 8337TIP3    H149206   0.532   5.850   2.090 -0.0684  2.3026  2.6115
 8337TIP3    H249207   0.649   5.873   2.183  3.4450 -1.3263 -0.5565
 8338TIP3   OH249208   1.880   6.973   2.184  0.0605  0.3768  0.1195
 8338TIP3    H149209   1.840   7.054   2.215  0.5301  0.1128  1.5088
 8338TIP3    H249210   1.837   6.904   2.235 -0.4454 -0.2673 -1.1548
 8339TIP3   OH249211   2.647   3.019   0.720  0.2379 -0.3216 -0.4951
 8339TIP3    H149212   2.688   2.950   0.772  0.4320 -0.1360 -0.3989
 8339TIP3    H249213   2.602   3.075   0.784 -3.1801 -2.4355 -0.8312
 8340TIP3   OH249214   4.413   0.830   3.161  0.3441  0.7368 -0.5552
 8340TIP3    H149215   4.329   0.808   3.201 -0.0265 -1.6065 -2.3762
 8340TIP3    H249216   4.470   0.756   3.183  1.1063  1.0185 -1.5267
 8341TIP3   OH249217   2.876   3.893   0.870  0.1049  0.7473  0.5544
 8341TIP3    H149218   2.868   3.945   0.790  0.5590 -0.3074 -0.2079
 8341TIP3    H249219   2.796   3.841   0.873  0.2553  0.5174  0.5842
 8342TIP3   OH249220   6.631   0.770   2.248  0.0146 -0.9761 -0.0196
 8342TIP3    H149221   6.683   0.692   2.232  1.2696 -0.5986  1.8590
 8342TIP3    H249222   6.695   0.841   2.257 -1.0162  0.0652 -0.5273
 8343TIP3   OH249223   1.953   4.592   3.051 -0.0786 -0.3167 -0.1620
 8343TIP3    H149224   2.021   4.627   2.994  0.0070  2.0744  1.2352
 8343TIP3    H249225   1.942   4.660   3.118 -1.3711 -2.2175  1.6604
 8344TIP3   OH249226   5.347   1.394   1.850  0.7359  0.3084  0.2485
 8344TIP3    H149227   5.373   1.342   1.926  1.6093  0.0320 -0.2253
 8344TIP3    H249228   5.352   1.484   1.881  3.4556  0.3717 -0.0963
 8345TIP3   OH249229   3.442   1.601   2.346 -0.4286 -0.4496 -0.0815
 8345TIP3    H149230   3.491   1.565   2.419  1.3624 -0.1473 -1.0672
 8345TIP3    H249231   3.438   1.530   2.282  1.5670  0.4500 -1.3000
 8346TIP3   OH249232   1.154   3.852   1.839 -0.3363  0.2344 -0.1496
 8346TIP3    H149233   1.145   3.787   1.769 -2.3631  1.8741 -1.5012
 8346TIP3    H249234   1.191   3.929   1.796  0.6667  0.5109  1.1280
 8347TIP3   OH249235   2.678   0.896   0.589 -0.0316  0.6963 -0.0930
 8347TIP3    H149236   2.704   0.833   0.656 -0.9116  1.9213  1.4857
 8347TIP3    H249237   2.633   0.845   0.523 -0.1248 -0.4124  0.8021
 8348TIP3   OH249238   1.879   5.056   8.954  0.4163  0.3688 -0.1546
 8348TIP3    H149239   1.871   5.149   8.932 -2.5209  0.5519  1.2228
 8348TIP3    H249240   1.912   5.056   9.044 -0.5735  0.1570  0.2224
 8349TIP3   OH249241   2.839   4.509   1.866  0.3675  0.5842 -0.0515
 8349TIP3    H149242   2.850   4.416   1.886  0.6103  0.8125  0.9606
 8349TIP3    H249243   2.916   4.552   1.904  0.1261  1.2236 -0.2605
 8350TIP3   OH249244   3.837   3.633   1.084 -0.2856  0.4778 -0.5697
 8350TIP3    H149245   3.818   3.722   1.112  0.4952  0.5849 -0.3550
 8350TIP3    H249246   3.858   3.641   0.991 -2.0713  0.2354 -1.0403
 8351TIP3   OH249247   5.239   4.443   1.067 -0.5319  0.5023 -0.2015
 8351TIP3    H149248   5.253   4.386   1.142  0.3002  0.6793 -0.2158
 8351TIP3    H249249   5.143   4.447   1.057 -0.6284  0.0499  0.5109
 8352TIP3   OH249250   1.451   5.241   2.536  0.0530  0.5504  0.3003
 8352TIP3    H149251   1.478   5.197   2.455  0.4388  0.9217  0.2226
 8352TIP3    H249252   1.390   5.180   2.578  0.0498  0.2459 -0.1450
 8353TIP3   OH249253   0.065   3.946   2.257  0.2073 -0.3608 -0.2479
 8353TIP3    H149254  -0.024   3.979   2.252  0.5320  0.3776 -3.0234
 8353TIP3    H249255   0.069   3.897   2.339 -2.5355  0.0979  0.2290
 8354TIP3   OH249256   5.221   1.805   1.645 -0.0368 -0.7767  0.2923
 8354TIP3    H149257   5.279   1.830   1.718 -0.1768  0.0425  0.1356
 8354TIP3    H249258   5.220   1.882   1.589  1.0308 -1.8112 -1.2215
 8355TIP3   OH249259   7.597   4.470   1.523 -0.0770  0.1120 -0.3109
 8355TIP3    H149260   7.680   4.509   1.552  0.6077 -0.1778 -1.7820
 8355TIP3    H249261   7.530   4.527   1.560  0.7484  0.1695  1.1811
 8356TIP3   OH249262   7.520   0.972   2.538 -0.2634 -0.0264 -0.1902
 8356TIP3    H149263   7.452   0.964   2.605 -0.9664  0.3297 -0.8468
 8356TIP3    H249264   7.474   1.007   2.461  0.6349  0.0798 -0.6905
 8357TIP3   OH249265   3.171   1.782   0.678 -0.1083  0.2410 -0.2194
 8357TIP3    H149266   3.249   1.837   0.664  0.1273 -0.0484 -0.0644
 8357TIP3    H249267   3.207   1.696   0.699 -0.4813 -0.2712 -1.6115
 8358TIP3   OH249268   2.300   3.086   1.383 -0.5392  0.1057  0.2984
 8358TIP3    H149269   2.237   3.119   1.319 -0.6293 -0.5330  0.0485
 8358TIP3    H249270   2.333   3.164   1.427  1.4434  0.8422 -2.2600
 8359TIP3   OH249271   5.589   4.426   1.908  0.1591  0.0087  0.6416
 8359TIP3    H149272   5.530   4.415   1.834  2.0140 -0.5902 -0.8284
 8359TIP3    H249273   5.532   4.426   1.985 -1.8544  0.9244 -0.7785
 8360TIP3   OH249274   2.786   2.434   1.107 -0.4790  0.3636  0.2792
 8360TIP3    H149275   2.693   2.433   1.085 -0.5375 -0.6244  0.5134
 8360TIP3    H249276   2.790   2.405   1.198  0.1108 -0.6001 -0.0298
 8361TIP3   OH249277   3.271   6.320   0.907  0.1629  0.0479 -0.2170
 8361TIP3    H149278   3.189   6.357   0.939  0.2265  1.0212 -1.1232
 8361TIP3    H249279   3.247   6.234   0.873 -0.3844  0.1110  0.0025
 8362TIP3   OH249280   1.398   5.097   1.553 -0.0453  0.0809 -0.1537
 8362TIP3    H149281   1.493   5.110   1.550 -0.0125 -0.0977  0.0754
 8362TIP3    H249282   1.362   5.185   1.560  0.0010  0.3235 -2.3042
 8363TIP3   OH249283   1.203   3.269   0.405 -0.0668  0.2172  0.4849
 8363TIP3    H149284   1.175   3.358   0.430  1.1389  1.4608 -2.2050
 8363TIP3    H249285   1.122   3.223   0.387 -0.6784  1.3025  0.3486
 8364TIP3   OH249286   2.094   4.289   3.351 -0.5568  0.0533 -0.4156
 8364TIP3    H149287   2.097   4.361   3.415  0.3755 -0.1036 -0.2672
 8364TIP3    H249288   2.174   4.239   3.368 -1.3195 -1.1753 -0.3524
 8365TIP3   OH249289   6.452   5.061   2.777  0.0486  0.1202 -0.1817
 8365TIP3    H149290   6.420   5.002   2.709 -0.7309 -1.6113  1.5827
 8365TIP3    H249291   6.543   5.033   2.792 -0.7443 -1.6984  1.6346
 8366TIP3   OH249292   1.036   6.922   1.564 -0.0210  0.1886 -0.3552
 8366TIP3    H149293   0.971   6.881   1.620  0.5609 -1.5257 -0.8678
 8366TIP3    H249294   1.114   6.929   1.619  0.1048 -0.0956 -0.4970
 8367TIP3   OH249295   2.850   6.050   2.953  0.1649 -0.1418  0.2881
 8367TIP3    H149296   2.834   6.135   2.995 -1.3839  0.7890 -1.9994
 8367TIP3    H249297   2.940   6.028   2.977 -0.3916  0.5511  3.5552
 8368TIP3   OH249298   4.051   4.524   2.811 -0.1210  0.3460 -0.5972
 8368TIP3    H149299   4.071   4.482   2.727 -0.6790  0.6999 -0.9211
 8368TIP3    H249300   4.007   4.456   2.862  1.3479 -0.2514 -0.1012
 8369TIP3   OH249301   0.315   0.480   2.702  0.4444  0.0926  0.5684
 8369TIP3    H149302   0.264   0.411   2.745  2.6266 -0.7127  2.0285
 8369TIP3    H249303   0.352   0.437   2.624 -0.8485  0.6102 -0.3613
 8370TIP3   OH249304   0.096   7.518   2.217  0.6665 -0.6350 -0.4118
 8370TIP3    H149305   0.041   7.492   2.291  0.8442  2.7647  1.1205
 8370TIP3    H249306   0.169   7.456   2.218  0.7118 -0.6749  2.3649
 8371TIP3   OH249307   4.356   5.389   1.546  0.0449 -0.6172  0.5023
 8371TIP3    H149308   4.427   5.452   1.559  0.6507 -1.2956  0.5341
 8371TIP3    H249309   4.367   5.359   1.456 -0.0937 -0.8522  0.5627
 8372TIP3   OH249310   0.114   5.893   1.752 -0.8120 -0.0380 -0.3261
 8372TIP3    H149311   0.209   5.884   1.766 -0.6305  2.0175  0.0578
 8372TIP3    H249312   0.093   5.822   1.691  0.8873 -0.8119 -0.0912
 8373TIP3   OH249313   3.627   7.527   2.350  0.2904 -0.0177  0.1956
 8373TIP3    H149314   3.698   7.465   2.333 -0.9756 -1.2354 -0.9390
 8373TIP3    H249315   3.637   7.551   2.442  1.7802 -0.6400  0.2246
 8374TIP3   OH249316   6.306   1.956   1.617  0.4294 -0.3833 -0.1117
 8374TIP3    H149317   6.278   2.017   1.685  0.8997 -1.2345  0.8758
 8374TIP3    H249318   6.348   1.885   1.664  0.5283 -1.1377 -1.2828
 8375TIP3   OH249319   4.040   0.604   2.324 -0.2088 -0.2328 -0.4027
 8375TIP3    H149320   4.035   0.664   2.250  0.7126  0.5136  0.1055
 8375TIP3    H249321   4.110   0.543   2.302  1.2668  1.0407  0.5368
 8376TIP3   OH249322   2.181   3.938   1.857  0.8662 -0.8544  0.0189
 8376TIP3    H149323   2.166   3.870   1.792  2.9769 -0.7770 -0.6326
 8376TIP3    H249324   2.177   3.892   1.941 -1.5870 -1.0090 -0.1214
 8377TIP3   OH249325   7.530   7.463   3.324 -1.1066  0.2619  0.0920
 8377TIP3    H149326   7.521   7.379   3.369 -0.3299  1.1165  1.9247
 8377TIP3    H249327   7.463   7.519   3.363  0.0391  1.2275  0.7470
 8378TIP3   OH249328   3.734   0.435   2.731 -0.5202 -0.0268  0.2490
 8378TIP3    H149329   3.783   0.452   2.650  0.4373  0.8802  0.9943
 8378TIP3    H249330   3.728   0.340   2.735  0.0667 -0.1094 -0.5275
 8379TIP3   OH249331   0.082   0.671   2.853 -0.1652  0.2988  0.0252
 8379TIP3    H149332   0.033   0.712   2.783  0.9499 -0.4335 -1.2493
 8379TIP3    H249333   0.023   0.604   2.888  0.4249 -1.8036 -2.6745
 8380TIP3   OH249334   1.430   2.621   3.480  0.1434  0.2334 -0.0740
 8380TIP3    H149335   1.384   2.700   3.507 -2.5773 -1.0706 -0.4957
 8380TIP3    H249336   1.497   2.652   3.419 -0.1362  2.2838  0.5832
 8381TIP3   OH249337   0.096   6.662   1.211  0.1429 -0.6083 -0.5590
 8381TIP3    H149338   0.101   6.567   1.206  0.9999 -0.5930 -0.2406
 8381TIP3    H249339   0.162   6.686   1.276 -0.9756  0.1245  0.3321
 8382TIP3   OH249340   3.963   4.621   2.000 -0.3428 -1.1570  0.3537
 8382TIP3    H149341   3.973   4.714   1.977 -1.2898 -0.8221  1.2101
 8382TIP3    H249342   3.986   4.574   1.920  0.4422 -0.1991 -0.0084
 8383TIP3   OH249343   1.685   3.931   0.921 -0.6673  0.3702  0.5026
 8383TIP3    H149344   1.721   3.931   0.833  0.8881  0.3817  1.0999
 8383TIP3    H249345   1.591   3.928   0.909 -0.5120  1.2826 -1.1677
 8384TIP3   OH249346   4.890   2.075   3.743 -0.3942 -0.1163 -0.5833
 8384TIP3    H149347   4.844   2.159   3.732 -0.5959 -0.3076 -1.2251
 8384TIP3    H249348   4.982   2.098   3.738 -0.4552  0.0251 -1.0711
 8385TIP3   OH249349   0.217   1.365   0.884  0.0433  0.3319  0.3158
 8385TIP3    H149350   0.215   1.271   0.865  0.3387  0.3089  0.3916
 8385TIP3    H249351   0.223   1.369   0.979  2.5126  0.3727  0.2358
 8386TIP3   OH249352   2.858   4.843   2.605 -0.1793  0.2901  0.3727
 8386TIP3    H149353   2.856   4.747   2.609  1.4661  0.2685  1.9705
 8386TIP3    H249354   2.881   4.862   2.514  1.3485 -0.9234  0.4577
 8387TIP3   OH249355   2.605   4.759   3.172  0.1107  0.3089 -0.4448
 8387TIP3    H149356   2.699   4.745   3.162 -0.0030 -1.2832  0.3665
 8387TIP3    H249357   2.596   4.853   3.187  1.7727  0.2221  1.4307
 8388TIP3   OH249358   3.364   4.386   3.016  0.2579 -0.3444 -0.0390
 8388TIP3    H149359   3.452   4.409   3.044 -0.6274  3.9731 -0.0695
 8388TIP3    H249360   3.318   4.365   3.098  0.0903  2.8309  0.8372
 8389TIP3   OH249361   2.200   3.064   1.708 -0.0883  0.2237  0.5076
 8389TIP3    H149362   2.148   3.124   1.655  0.5985 -0.5775 -1.1609
 8389TIP3    H249363   2.197   2.981   1.659  2.0843 -0.0540  0.7501
 8390TIP3   OH249364   5.707   6.285   1.017  0.1836  1.3116  0.4166
 8390TIP3    H149365   5.736   6.350   1.081 -1.4307  1.7489  0.7604
 8390TIP3    H249366   5.655   6.335   0.954 -1.7059  0.2965  1.0874
 8391TIP3   OH249367   6.954   2.993   2.740 -0.5383 -0.4625  0.3716
 8391TIP3    H149368   7.023   2.953   2.793  0.9830  0.7999 -0.5605
 8391TIP3    H249369   6.965   3.087   2.752 -2.1140 -0.2214  0.1712
 8392TIP3   OH249370   4.843   7.023   2.362  0.2769  0.0389 -0.3134
 8392TIP3    H149371   4.866   7.116   2.372  1.4893 -0.5257  3.9091
 8392TIP3    H249372   4.911   6.988   2.303  0.8362  1.4643 -0.5553
 8393TIP3   OH249373   6.384   1.749   1.135  0.5063 -0.0736 -0.1161
 8393TIP3    H149374   6.470   1.764   1.097  0.3835 -2.3522 -1.4499
 8393TIP3    H249375   6.402   1.724   1.226  1.1326  0.8251  0.0175
 8394TIP3   OH249376   5.614   6.693   1.875  0.2475 -0.1948  0.5102
 8394TIP3    H149377   5.564   6.741   1.809  0.2763 -0.4683  0.2886
 8394TIP3    H249378   5.634   6.609   1.834 -1.0057 -0.9700  1.4084
 8395TIP3   OH249379   5.873   2.810   2.751 -0.3867 -0.2212  0.1774
 8395TIP3    H149380   5.786   2.806   2.791  0.0485  2.1691  1.5661
 8395TIP3    H249381   5.929   2.761   2.811 -0.9395 -3.1843 -1.5506
 8396TIP3   OH249382   0.583   5.230   1.576 -0.0407 -0.2626  0.1902
 8396TIP3    H149383   0.558   5.309   1.528 -1.9073 -1.7350 -1.4544
 8396TIP3    H249384   0.618   5.171   1.509 -0.9487 -1.7046  0.9156
 8397TIP3   OH249385   5.771   3.654   2.157 -0.1626  0.2742 -0.3434
 8397TIP3    H149386   5.755   3.628   2.066 -1.5322  0.6552 -0.2251
 8397TIP3    H249387   5.686   3.646   2.200  0.8484 -2.0132  1.4775
 8398TIP3   OH249388   2.117   1.613   2.128  0.2834 -0.2920 -0.0257
 8398TIP3    H149389   2.180   1.546   2.104  0.5695 -0.6362  1.5817
 8398TIP3    H249390   2.158   1.695   2.103  0.2746 -0.6387 -1.2650
 8399TIP3   OH249391   4.056   2.214   2.643 -0.5675  0.0677  0.0511
 8399TIP3    H149392   4.045   2.150   2.573  0.3164  0.6462 -0.6251
 8399TIP3    H249393   4.149   2.235   2.643 -0.9059  1.6939 -0.0412
 8400TIP3   OH249394   5.968   6.575   0.931 -0.5080  0.2885  0.3036
 8400TIP3    H149395   5.985   6.512   1.001 -0.5714 -0.5018 -0.3829
 8400TIP3    H249396   6.023   6.547   0.858 -0.1939  1.2973  0.1276
 8401TIP3   OH249397   5.980   3.879   2.119  0.5428 -0.5862 -0.2367
 8401TIP3    H149398   5.931   3.959   2.103  0.7379 -0.4043  0.0722
 8401TIP3    H249399   5.916   3.809   2.103  0.7517 -0.4322 -1.8862
 8402TIP3   OH249400   1.787   3.002   2.524 -0.1234 -0.0778  1.0440
 8402TIP3    H149401   1.870   3.019   2.568 -0.3749 -0.4235  1.6658
 8402TIP3    H249402   1.754   2.922   2.565 -1.0807  0.4139  1.2728
 8403TIP3   OH249403   6.669   2.485   1.239  0.1932  0.0277  0.5036
 8403TIP3    H149404   6.599   2.536   1.198  0.6206  0.5927  0.4684
 8403TIP3    H249405   6.749   2.514   1.195  0.4760 -0.4723  0.6781
 8404TIP3   OH249406   4.330   1.484   1.404 -0.4938  1.1572  0.1832
 8404TIP3    H149407   4.314   1.525   1.489  0.8893  1.0310  0.5412
 8404TIP3    H249408   4.417   1.517   1.378  0.0666 -0.4849 -0.1336
 8405TIP3   OH249409   5.941   1.006   1.590 -0.3495 -0.6839  0.5369
 8405TIP3    H149410   5.926   0.948   1.515 -0.2086 -1.2995  0.9711
 8405TIP3    H249411   6.018   0.969   1.634  1.7593  1.6422 -0.9231
 8406TIP3   OH249412   2.776   0.229   1.344  0.1342 -0.0587  0.4965
 8406TIP3    H149413   2.834   0.166   1.387  0.8223  0.1809 -0.0723
 8406TIP3    H249414   2.700   0.234   1.402 -0.2470 -1.9030  0.2203
 8407TIP3   OH249415   3.806   0.284   1.897  0.4234  0.5132  0.3286
 8407TIP3    H149416   3.767   0.199   1.876  1.6116  0.5112 -2.1451
 8407TIP3    H249417   3.758   0.347   1.842  0.4123  1.3043  1.2002
 8408TIP3   OH249418   1.710   7.000   1.092 -0.6464 -0.3991 -0.0221
 8408TIP3    H149419   1.675   6.915   1.116  1.9478 -1.9579 -1.3031
 8408TIP3    H249420   1.739   6.989   1.001  0.3299  1.6481 -0.0088
 8409TIP3   OH249421   5.188   1.730   2.888 -0.1498  0.2843 -0.1666
 8409TIP3    H149422   5.175   1.652   2.942  0.9060 -0.8240 -1.4331
 8409TIP3    H249423   5.283   1.734   2.875 -0.0374  2.5160  0.8690
 8410TIP3   OH249424   6.281   5.699   2.196  0.5474 -0.3388 -0.4619
 8410TIP3    H149425   6.208   5.685   2.136 -0.8810  0.5285  0.9724
 8410TIP3    H249426   6.328   5.616   2.196 -0.0476 -0.7121 -1.9108
 8411TIP3   OH249427   5.773   6.614   2.595  0.7502  0.2604  0.3123
 8411TIP3    H149428   5.687   6.649   2.618 -0.6653 -2.8663  0.2283
 8411TIP3    H249429   5.791   6.653   2.509 -1.8687 -0.9320 -0.9154
 8412TIP3   OH249430   2.444   0.745   2.209 -0.5450  0.1964 -0.4651
 8412TIP3    H149431   2.478   0.831   2.184  0.6730 -0.2091 -0.2585
 8412TIP3    H249432   2.364   0.735   2.158 -1.2437  1.8563  0.2288
 8413TIP3   OH249433   6.826   4.711   1.268 -0.1134 -0.0727  0.2219
 8413TIP3    H149434   6.850   4.620   1.289 -0.7663 -0.0555  1.0751
 8413TIP3    H249435   6.822   4.713   1.172  1.9104 -0.4251  0.0818
 8414TIP3   OH249436   4.638   4.275   1.267 -0.4974  0.2577 -0.4320
 8414TIP3    H149437   4.714   4.218   1.252 -0.3248  0.3757 -0.0147
 8414TIP3    H249438   4.661   4.325   1.345 -1.7040 -0.8892  0.6980
 8415TIP3   OH249439   3.071   4.603   2.016 -0.0541 -0.4863  0.0384
 8415TIP3    H149440   3.038   4.584   2.104 -3.1047  0.0010 -0.8973
 8415TIP3    H249441   3.051   4.696   2.002  0.7963 -0.4408 -1.0102
 8416TIP3   OH249442   4.248   0.545   0.990  0.3470 -0.0593 -0.3227
 8416TIP3    H149443   4.318   0.481   0.977  1.8111  1.7647 -2.0123
 8416TIP3    H249444   4.294   0.627   1.011 -1.4245  0.6701  0.9393
 8417TIP3   OH249445   2.190   1.970   2.196  0.6906  0.2305 -0.0094
 8417TIP3    H149446   2.152   1.966   2.284 -0.9735 -0.1622 -0.6988
 8417TIP3    H249447   2.256   2.039   2.202  0.4715  0.3622  1.4859
 8418TIP3   OH249448   6.700   1.574   3.487  0.3725  0.0108  0.1039
 8418TIP3    H149449   6.767   1.604   3.425 -1.2323 -1.5544 -2.5604
 8418TIP3    H249450   6.734   1.490   3.519 -0.3255 -0.8861 -1.4075
 8419TIP3   OH249451   1.872   3.279   1.190  0.1967  0.1311 -0.1027
 8419TIP3    H149452   1.963   3.308   1.182  1.0640 -1.9357  1.3550
 8419TIP3    H249453   1.822   3.360   1.196  2.1491  1.3471  0.9414
 8420TIP3   OH249454   5.798   4.478   3.019 -0.6906 -0.1179  0.8759
 8420TIP3    H149455   5.709   4.456   3.045 -0.2443  0.6566  3.3974
 8420TIP3    H249456   5.843   4.394   3.014 -1.6346 -0.5461 -0.8572
 8421TIP3   OH249457   3.751   3.340   0.684  0.6061 -0.0099 -0.5702
 8421TIP3    H149458   3.673   3.301   0.723  1.8911 -0.2970  1.8884
 8421TIP3    H249459   3.786   3.272   0.627  0.0512 -0.5411 -0.2910
 8422TIP3   OH249460   5.548   3.318   3.009 -0.0020  0.3749  0.3042
 8422TIP3    H149461   5.494   3.336   3.086  0.5438  1.0287  0.5437
 8422TIP3    H249462   5.487   3.320   2.936 -0.7616 -1.5339  0.8347
 8423TIP3   OH249463   1.151   6.710   1.915 -0.0595 -0.2276 -0.5808
 8423TIP3    H149464   1.130   6.617   1.926 -0.1530 -0.1100  0.3118
 8423TIP3    H249465   1.135   6.748   2.001 -0.3870  0.6933 -1.0372
 8424TIP3   OH249466   4.731   1.308   1.744 -0.5266  0.2416  0.3154
 8424TIP3    H149467   4.652   1.307   1.797  0.8993 -1.7432  2.5676
 8424TIP3    H249468   4.750   1.401   1.731 -2.3004  0.7436  1.1053
 8425TIP3   OH249469   5.911   5.139   2.202  0.1976 -0.7122 -0.4855
 8425TIP3    H149470   5.882   5.203   2.138 -0.3439 -1.0048 -0.5402
 8425TIP3    H249471   5.915   5.187   2.285 -2.0345 -1.0300 -0.1480
 8426TIP3   OH249472   0.919   5.666   1.433 -0.1474  0.2265  0.4034
 8426TIP3    H149473   0.990   5.631   1.380 -0.7438 -2.4492  1.2363
 8426TIP3    H249474   0.955   5.745   1.473  1.0825  1.0153 -2.0313
 8427TIP3   OH249475   4.580   6.972   1.159  0.3141  0.3710  0.5436
 8427TIP3    H149476   4.591   6.905   1.092 -0.6997  1.7590 -1.0902
 8427TIP3    H249477   4.642   7.041   1.135 -0.5604  1.1972  0.5857
 8428TIP3   OH249478   2.128   1.811   2.859  0.1570  0.4867  0.4104
 8428TIP3    H149479   2.158   1.888   2.906 -0.0248 -0.1986  1.6853
 8428TIP3    H249480   2.191   1.743   2.883  0.2390  0.1990 -0.5904
 8429TIP3   OH249481   2.646   4.595   1.165  0.2041  0.3450  0.0567
 8429TIP3    H149482   2.580   4.623   1.228 -0.1902  1.3172 -0.7491
 8429TIP3    H249483   2.715   4.555   1.218 -1.5324 -1.8365  0.8400
 8430TIP3   OH249484   7.080   4.123   1.629 -0.2636 -0.1147 -0.4047
 8430TIP3    H149485   7.053   4.032   1.640 -1.0865  0.2317  0.4928
 8430TIP3    H249486   7.175   4.121   1.637 -0.4307 -0.5173  2.7166
 8431TIP3   OH249487   3.431   3.734   2.252  0.0645 -0.2647 -0.3818
 8431TIP3    H149488   3.416   3.707   2.162 -1.5349 -1.3260  0.1591
 8431TIP3    H249489   3.385   3.668   2.305  2.0852 -0.4801  1.2746
 8432TIP3   OH249490   4.340   4.561   1.945 -0.4649 -0.0511 -0.4091
 8432TIP3    H149491   4.339   4.557   2.041  0.0131  0.5987 -0.3783
 8432TIP3    H249492   4.248   4.549   1.920 -0.6445  0.1441  0.1433
 8433TIP3   OH249493   7.242   4.406   2.034  0.5549  0.0593 -0.1560
 8433TIP3    H149494   7.243   4.492   2.074  0.1317 -0.1000  0.1936
 8433TIP3    H249495   7.316   4.360   2.074 -0.5171 -0.4759  1.2811
 8434TIP3   OH249496   6.485   0.472   2.088  0.1960  0.2146 -0.3379
 8434TIP3    H149497   6.442   0.516   2.161  0.8591 -1.3581  1.0671
 8434TIP3    H249498   6.578   0.490   2.100  0.1770  2.7106 -2.7606
 8435TIP3   OH249499   3.293   7.327   0.903 -0.5467 -0.6064  0.5380
 8435TIP3    H149500   3.261   7.275   0.829  1.3284 -0.1786 -0.6356
 8435TIP3    H249501   3.330   7.264   0.964 -2.1748 -0.9699  1.1947
 8436TIP3   OH249502   2.618   1.559   3.586  0.1085 -0.3079 -0.0249
 8436TIP3    H149503   2.554   1.630   3.578  0.3394 -0.1311 -0.3418
 8436TIP3    H249504   2.596   1.516   3.668 -2.8285 -2.6292 -1.8362
 8437TIP3   OH249505   3.192   7.386   2.674  0.6900 -0.1756 -0.1868
 8437TIP3    H149506   3.242   7.329   2.732  0.4631 -0.1560  0.0293
 8437TIP3    H249507   3.206   7.475   2.708  0.5526 -0.1644 -0.1577
 8438TIP3   OH249508   0.023   3.171   1.370  0.3311 -0.8156 -0.2163
 8438TIP3    H149509   0.031   3.159   1.464  1.2706 -0.9827 -0.3072
 8438TIP3    H249510  -0.066   3.144   1.349  0.9554 -3.4882  0.2270
 8439TIP3   OH249511   2.360   3.518   0.790 -0.2642  0.3768 -0.0714
 8439TIP3    H149512   2.326   3.595   0.744 -0.0129  1.1087  0.9289
 8439TIP3    H249513   2.301   3.507   0.865 -0.8894 -1.0177 -0.7200
 8440TIP3   OH249514   1.185   2.898   0.675 -0.2883  0.1656 -0.2352
 8440TIP3    H149515   1.174   2.873   0.584  1.2833  0.4619 -0.5296
 8440TIP3    H249516   1.195   2.815   0.722 -0.2573  0.0428 -0.4588
 8441TIP3   OH249517   6.070   4.275   3.365  0.1938 -0.1202 -0.2011
 8441TIP3    H149518   5.983   4.275   3.404  0.1996  0.2188 -0.1792
 8441TIP3    H249519   6.078   4.190   3.322 -0.2194 -0.0731 -0.3703
 8442TIP3   OH249520   1.558   0.311   1.529  0.0454  0.5769 -0.0153
 8442TIP3    H149521   1.501   0.297   1.453 -1.5842  2.8383  0.7111
 8442TIP3    H249522   1.599   0.225   1.543 -3.2414 -1.2746 -0.5394
 8443TIP3   OH249523   6.948   0.177   3.236 -0.8616 -0.3333  0.1231
 8443TIP3    H149524   6.871   0.121   3.240 -0.4944 -1.0044 -1.5486
 8443TIP3    H249525   7.021   0.120   3.259 -0.7294  0.0624  0.7246
 8444TIP3   OH249526   0.560   1.727   2.893  0.9097  0.4115 -0.0978
 8444TIP3    H149527   0.602   1.711   2.977 -0.2411  0.5455  0.5305
 8444TIP3    H249528   0.466   1.714   2.910  0.7249 -0.5548 -1.5906
 8445TIP3   OH249529   1.684   6.907   3.017 -0.4971 -0.0217 -0.1155
 8445TIP3    H149530   1.777   6.913   3.037 -0.2361 -1.6386 -0.6697
 8445TIP3    H249531   1.646   6.987   3.054  0.5301 -0.9271  3.2498
 8446TIP3   OH249532   5.563   6.779   2.612 -0.8359 -0.2267  0.1997
 8446TIP3    H149533   5.495   6.837   2.577 -0.9509  0.3733  1.3646
 8446TIP3    H249534   5.606   6.831   2.680  0.7295 -0.6327 -0.4307
 8447TIP3   OH249535   5.230   2.221   2.359  0.2984  0.3436 -0.3236
 8447TIP3    H149536   5.313   2.260   2.388 -0.3789  0.2482  1.9495
 8447TIP3    H249537   5.239   2.128   2.380  0.9783 -0.4347 -3.5169
 8448TIP3   OH249538   7.417   4.617   1.682 -0.2878 -0.7110  0.2204
 8448TIP3    H149539   7.495   4.637   1.732  1.3396 -0.5702 -2.2274
 8448TIP3    H249540   7.397   4.526   1.705  1.6908 -1.3595 -0.3982
 8449TIP3   OH249541   0.086   4.868   1.827 -0.0216  0.3275 -0.3411
 8449TIP3    H149542  -0.002   4.884   1.860 -0.2748  1.8397 -1.6321
 8449TIP3    H249543   0.141   4.861   1.905 -1.0821  0.6473  0.4498
 8450TIP3   OH249544   6.235   0.043   0.958  0.0560 -0.5487 -0.0735
 8450TIP3    H149545   6.159   0.085   0.997  0.6201 -1.0548  1.6567
 8450TIP3    H249546   6.306   0.107   0.968  0.5947 -1.3198  1.3349
 8451TIP3   OH249547   1.467   5.454   2.154 -0.6058  0.0538 -0.2320
 8451TIP3    H149548   1.371   5.462   2.161 -0.5272  0.0030  1.2692
 8451TIP3    H249549   1.487   5.371   2.197  0.3747  1.6402  2.6260
 8452TIP3   OH249550   4.703   7.202   1.902 -0.0284 -0.8623  0.1814
 8452TIP3    H149551   4.628   7.192   1.843 -0.8107  1.9087  0.5653
 8452TIP3    H249552   4.718   7.296   1.906  2.2402 -1.2027  1.7118
 8453TIP3   OH249553   2.278   0.554   1.363 -0.1175 -0.2237  0.5483
 8453TIP3    H149554   2.317   0.581   1.446  3.2244 -0.2501 -0.8589
 8453TIP3    H249555   2.349   0.511   1.316 -1.2714  1.4286 -3.0980
 8454TIP3   OH249556   4.428   4.720   1.324  0.1944  0.0912  0.0611
 8454TIP3    H149557   4.430   4.801   1.272 -0.3789  0.1030  0.0489
 8454TIP3    H249558   4.402   4.749   1.411  1.1044  0.0632  0.3560
 8455TIP3   OH249559   1.592   1.411   1.457  0.2752  0.2400  0.1094
 8455TIP3    H149560   1.683   1.436   1.468  0.4820 -0.6355  0.5372
 8455TIP3    H249561   1.563   1.386   1.545 -0.0302 -0.5526 -0.2024
 8456TIP3   OH249562   2.103   2.063   1.236  0.2602  0.0130 -0.4368
 8456TIP3    H149563   2.079   2.151   1.208  0.3348 -0.1047 -0.8785
 8456TIP3    H249564   2.022   2.012   1.228 -0.0999  0.3020  0.9651
 8457TIP3   OH249565   3.848   7.659   0.406  0.0672 -0.1993 -0.8017
 8457TIP3    H149566   3.848   7.694   0.495 -0.1244  1.4152 -1.4038
 8457TIP3    H249567   3.916   7.591   0.407 -0.0283 -0.3145  0.5935
 8458TIP3   OH249568   3.284   3.847   2.724 -0.2192 -0.3606 -0.3244
 8458TIP3    H149569   3.227   3.772   2.740  0.7838 -1.5012 -1.7582
 8458TIP3    H249570   3.294   3.849   2.628  2.6311 -0.6506 -0.1365
 8459TIP3   OH249571   7.103   2.820   2.097 -0.7187 -0.1317  0.4221
 8459TIP3    H149572   7.145   2.864   2.023 -0.6939 -0.3099  0.3288
 8459TIP3    H249573   7.013   2.853   2.095 -1.3012 -1.6323 -0.9394
 8460TIP3   OH249574   3.907   1.033   2.941  0.3698 -0.1712  0.1766
 8460TIP3    H149575   3.838   1.091   2.972 -0.2473 -2.6121  4.0358
 8460TIP3    H249576   3.980   1.047   3.002  2.2021  0.1111 -1.9381
 8461TIP3   OH249577   1.765   6.877   1.462  0.2472  0.1974  0.0979
 8461TIP3    H149578   1.690   6.828   1.430  0.2465  1.5219 -2.1387
 8461TIP3    H249579   1.747   6.890   1.556 -2.5160  0.8199 -0.4320
 8462TIP3   OH249580   1.082   2.243   3.385 -0.1822  0.3113 -0.0192
 8462TIP3    H149581   0.992   2.261   3.357  0.8174  1.5951 -2.8693
 8462TIP3    H249582   1.133   2.314   3.346  2.3241 -1.4575 -0.1832
 8463TIP3   OH249583   3.767   2.513   1.141  0.1830 -0.3617 -0.5751
 8463TIP3    H149584   3.796   2.500   1.051 -0.3405  0.0144 -0.8054
 8463TIP3    H249585   3.672   2.522   1.135  0.2176  0.5376 -0.1009
 8464TIP3   OH249586   2.359   1.048   2.235  0.1696 -0.0664 -0.4867
 8464TIP3    H149587   2.427   1.049   2.168 -0.6025 -1.8238 -1.3670
 8464TIP3    H249588   2.345   1.141   2.257  3.6799  0.3205  0.6787
 8465TIP3   OH249589   1.351   2.887   2.029 -0.1210  0.3549  0.4182
 8465TIP3    H149590   1.444   2.906   2.014 -0.1981  0.8091  0.5006
 8465TIP3    H249591   1.335   2.918   2.118  0.1813 -1.7406  1.2622
 8466TIP3   OH249592   0.249   6.206   1.093  0.0902  0.4885 -0.1208
 8466TIP3    H149593   0.180   6.241   1.037 -0.0421 -0.0032 -0.2733
 8466TIP3    H249594   0.243   6.256   1.174 -1.2446 -0.3608  0.3428
 8467TIP3   OH249595   2.029   3.236   1.527 -0.7082  0.7736  0.0561
 8467TIP3    H149596   1.941   3.234   1.488  0.1381  1.6152 -1.9997
 8467TIP3    H249597   2.030   3.317   1.578 -1.2283  0.5590  0.4291
 8468TIP3   OH249598   3.427   0.562   1.833  0.0433 -0.5680 -0.5421
 8468TIP3    H149599   3.507   0.531   1.789  1.6500  0.7109  1.2928
 8468TIP3    H249600   3.432   0.524   1.921 -1.4568 -0.5539 -0.4239
 8469TIP3   OH249601   6.118   7.284   2.434  0.7554 -0.6100 -0.5720
 8469TIP3    H149602   6.038   7.304   2.483  1.1958  1.1754 -0.4960
 8469TIP3    H249603   6.092   7.218   2.370 -0.5594 -0.7134  0.0541
 8470TIP3   OH249604   5.149   5.691   1.812 -0.1912  0.3013 -0.0223
 8470TIP3    H149605   5.056   5.672   1.805  0.1188 -1.7752  0.8380
 8470TIP3    H249606   5.154   5.786   1.805 -2.3816  0.4749  0.0074
 8471TIP3   OH249607   5.884   1.332   1.229 -0.5001 -0.3768  0.0713
 8471TIP3    H149608   5.918   1.255   1.273 -0.7786 -1.1324 -1.0110
 8471TIP3    H249609   5.794   1.339   1.259 -0.2394  0.0030  0.7849
 8472TIP3   OH249610   4.838   6.099   2.442  0.6187 -0.5088 -0.1010
 8472TIP3    H149611   4.932   6.118   2.441  0.7937 -1.2957  0.6095
 8472TIP3    H249612   4.823   6.054   2.525 -0.2777 -0.9396 -0.4805
 8473TIP3   OH249613   4.956   5.322   2.313  0.0599  0.0194 -0.1177
 8473TIP3    H149614   4.946   5.269   2.233  1.1516 -0.5052  0.0778
 8473TIP3    H249615   4.928   5.410   2.286  1.5956  0.1495 -1.4581
 8474TIP3   OH249616   3.849   5.995   0.754  0.0343  0.3554 -0.2951
 8474TIP3    H149617   3.781   6.052   0.790 -0.6127  0.3073 -1.4074
 8474TIP3    H249618   3.930   6.029   0.792 -0.5206  0.8757  0.4724
 8475TIP3   OH249619   6.022   4.843   1.692 -1.0535 -0.5581  0.2075
 8475TIP3    H149620   6.042   4.916   1.633 -0.6375 -0.9284 -0.1182
 8475TIP3    H249621   6.060   4.766   1.649  0.3666 -0.6560  1.5337
 8476TIP3   OH249622   2.234   0.723   0.757  0.3696  0.1402  0.1656
 8476TIP3    H149623   2.181   0.801   0.776  0.5174  0.1036  0.7326
 8476TIP3    H249624   2.313   0.734   0.809  1.3207  0.6084 -1.3431
 8477TIP3   OH249625   0.081   6.345   1.738  0.2168  0.0618  0.0482
 8477TIP3    H149626   0.021   6.394   1.795  1.4172  0.0537  1.3869
 8477TIP3    H249627   0.028   6.273   1.704 -0.4255 -0.2339  1.5906
 8478TIP3   OH249628   1.670   2.660   1.893  0.0502  0.3737  0.0045
 8478TIP3    H149629   1.725   2.721   1.844 -1.3069  0.8650 -0.9721
 8478TIP3    H249630   1.711   2.655   1.980 -1.2730  4.9586  1.1848
 8479TIP3   OH249631   1.535   5.454   2.668 -0.0361 -0.3140 -0.0598
 8479TIP3    H149632   1.602   5.416   2.724 -0.6798  0.3622  1.2174
 8479TIP3    H249633   1.487   5.379   2.633  0.3245 -0.7514  0.3740
 8480TIP3   OH249634   3.418   3.128   0.529 -0.0435 -0.1195 -0.2939
 8480TIP3    H149635   3.424   3.152   0.437 -0.5632 -0.5293 -0.4402
 8480TIP3    H249636   3.350   3.185   0.564  1.1092  1.0228  0.1825
 8481TIP3   OH249637   5.355   2.118   3.327  0.1583  0.0600 -0.6828
 8481TIP3    H149638   5.343   2.133   3.421 -2.5489  0.8447 -1.0590
 8481TIP3    H249639   5.444   2.146   3.309 -0.0970  2.4278  1.2098
 8482TIP3   OH249640   1.734   1.397   0.439  0.4850 -0.0646 -0.0646
 8482TIP3    H149641   1.703   1.472   0.489  0.2562 -0.7692  0.8744
 8482TIP3    H249642   1.666   1.382   0.373  0.7064  0.7618 -0.4925
 8483TIP3   OH249643   3.206   7.635   1.393 -0.6042  0.3021 -0.1613
 8483TIP3    H149644   3.215   7.728   1.413 -2.6084  0.1384  1.8436
 8483TIP3    H249645   3.195   7.633   1.298  2.1010  1.8068 -0.6230
 8484TIP3   OH249646   2.108   7.056   2.855  0.2391 -0.6757 -0.4909
 8484TIP3    H149647   2.012   7.063   2.860  0.1691 -1.8600  0.1393
 8484TIP3    H249648   2.132   7.109   2.779 -0.9108 -0.3412 -0.6399
 8485TIP3   OH249649   1.599   3.581   2.779 -0.4955  0.0805 -0.1833
 8485TIP3    H149650   1.645   3.523   2.839 -1.8781 -1.3161 -0.3975
 8485TIP3    H249651   1.668   3.623   2.727  0.5545 -2.4835 -1.0249
 8486TIP3   OH249652   6.793   1.923   3.476 -0.4584  0.0555  0.1896
 8486TIP3    H149653   6.843   2.003   3.495 -1.5261  0.8400 -0.1851
 8486TIP3    H249654   6.748   1.902   3.557  0.5580 -0.7307  0.5677
 8487TIP3   OH249655   1.251   6.943   1.766 -0.2114 -0.0778 -0.3103
 8487TIP3    H149656   1.247   7.003   1.840 -1.7441 -1.1774  0.5608
 8487TIP3    H249657   1.214   6.861   1.799  1.2948 -1.3602 -1.6017
 8488TIP3   OH249658   4.387   7.655   2.648  0.0079 -0.3793 -0.6207
 8488TIP3    H149659   4.314   7.677   2.590 -0.0668 -1.8677 -1.1354
 8488TIP3    H249660   4.348   7.600   2.716  0.5160 -0.6020 -0.5042
 8489TIP3   OH249661   5.811   4.129   1.738 -0.1461 -0.4781 -0.0420
 8489TIP3    H149662   5.755   4.153   1.812  0.6226  0.9352  0.1188
 8489TIP3    H249663   5.885   4.084   1.779  0.2124  0.1832  0.0517
 8490TIP3   OH249664   4.053   1.757   2.062  0.1797 -0.0454  0.6730
 8490TIP3    H149665   4.125   1.811   2.028  0.4580 -1.2793 -0.8633
 8490TIP3    H249666   3.979   1.817   2.069  0.7335  0.7517 -0.0259
 8491TIP3   OH249667   0.633   1.424   1.382  0.3907  0.2747  0.5562
 8491TIP3    H149668   0.547   1.456   1.409  0.8207  1.1282  0.9315
 8491TIP3    H249669   0.662   1.369   1.454 -0.9382 -2.1792 -0.6564
 8492TIP3   OH249670   5.374   3.728   1.439  0.5292 -0.4833 -0.0150
 8492TIP3    H149671   5.437   3.800   1.449 -0.9261  0.6883  1.1009
 8492TIP3    H249672   5.427   3.649   1.447  2.2058  0.4200 -1.3814
 8493TIP3   OH249673   3.633   0.748   1.317  0.0936  0.0535  0.0882
 8493TIP3    H149674   3.727   0.760   1.331 -0.0317  0.3536  0.7478
 8493TIP3    H249675   3.608   0.680   1.379 -0.3647  0.9408  0.9157
 8494TIP3   OH249676   1.721   4.761   0.977 -0.1811 -0.4113  0.0874
 8494TIP3    H149677   1.808   4.800   0.988 -0.3039 -0.4349  1.2355
 8494TIP3    H249678   1.711   4.703   1.053 -1.0664 -0.6566 -0.2086
 8495TIP3   OH249679   4.650   6.639   1.082 -0.3680  1.0772 -0.0081
 8495TIP3    H149680   4.683   6.573   1.143 -0.6722 -0.1405 -1.1238
 8495TIP3    H249681   4.729   6.671   1.037 -0.2005  1.6231  0.6592
 8496TIP3   OH249682   2.707   5.895   2.393  0.4546  0.1136 -0.2773
 8496TIP3    H149683   2.654   5.928   2.320 -0.3733 -3.3376 -1.4528
 8496TIP3    H249684   2.683   5.950   2.467 -2.0513  1.0068 -1.6259
 8497TIP3   OH249685   0.545   2.172   0.567 -0.2644  0.2398  0.1374
 8497TIP3    H149686   0.505   2.176   0.480  0.3766 -1.6863 -0.3099
 8497TIP3    H249687   0.497   2.103   0.612  0.7358 -0.2048  0.5583
 8498TIP3   OH249688   0.944   4.981   1.327 -0.3122  0.8749 -0.4559
 8498TIP3    H149689   0.957   4.916   1.258 -0.7465  0.2262  0.0624
 8498TIP3    H249690   1.033   5.000   1.359 -0.2614 -0.3973  0.2211
 8499TIP3   OH249691   0.982   0.664   2.370 -0.0495 -0.8428 -0.2167
 8499TIP3    H149692   1.070   0.696   2.390 -0.4912  0.5186 -0.3653
 8499TIP3    H249693   0.993   0.613   2.290  0.5123 -0.2284 -0.5402
 8500TIP3   OH249694   2.068   6.204   2.862  0.1330  0.0557 -0.2783
 8500TIP3    H149695   2.022   6.288   2.857 -0.7866 -0.3977  0.2366
 8500TIP3    H249696   2.024   6.157   2.933  1.5170 -0.3404  0.3571
 8501TIP3   OH249697   2.814   1.881   3.546 -0.0226 -0.3285  0.2756
 8501TIP3    H149698   2.841   1.950   3.608  0.2878 -1.2821  1.2368
 8501TIP3    H249699   2.896   1.839   3.521 -0.3578 -1.5910  1.2140
 8502TIP3   OH249700   6.033   2.140   0.737  0.5245 -0.6039  0.2253
 8502TIP3    H149701   6.020   2.174   0.825 -0.0857 -1.0053  0.2966
 8502TIP3    H249702   6.120   2.100   0.739  0.5505 -0.5285  0.6145
 8503TIP3   OH249703   2.810   4.928   0.801 -0.2563 -0.5583 -0.1961
 8503TIP3    H149704   2.846   4.996   0.858  1.2941 -1.9654  0.5818
 8503TIP3    H249705   2.887   4.880   0.769 -1.3183 -2.3249 -0.2426
 8504TIP3   OH249706   3.740   2.103   0.907 -0.2545  0.5892 -0.1978
 8504TIP3    H149707   3.696   2.156   0.973  3.0444  2.3570  0.8320
 8504TIP3    H249708   3.829   2.139   0.903  1.5448 -3.4337 -1.1537
 8505TIP3   OH249709   2.149   1.960   2.514 -0.3366  0.4657  0.1700
 8505TIP3    H149710   2.138   1.993   2.603  0.3835 -0.0276  0.4565
 8505TIP3    H249711   2.061   1.961   2.477 -0.6335  0.7491  0.8601
 8506TIP3   OH249712   7.478   4.047   0.697 -0.5025 -0.5171 -0.4560
 8506TIP3    H149713   7.571   4.039   0.675  0.0110  1.2453  0.7540
 8506TIP3    H249714   7.473   4.019   0.789 -1.3074 -1.2990 -0.7315
 8507TIP3   OH249715   5.795   0.797   3.919 -0.3390 -0.0740 -0.6127
 8507TIP3    H149716   5.863   0.771   3.980 -0.9263 -1.7872 -0.6214
 8507TIP3    H249717   5.789   0.892   3.927 -0.1858 -0.2090  1.7570
 8508TIP3   OH249718   1.876   3.420   2.706 -0.0379  0.2790  0.1507
 8508TIP3    H149719   1.820   3.490   2.672  0.1794 -0.1507 -1.1189
 8508TIP3    H249720   1.916   3.381   2.629 -0.9771 -1.9730  0.7016
 8509TIP3   OH249721   6.751   1.965   1.216  0.4835 -0.1354 -0.7656
 8509TIP3    H149722   6.724   1.983   1.306  1.9615 -0.6904 -0.1869
 8509TIP3    H249723   6.762   2.051   1.176  0.2127  0.1143 -0.3053
 8510TIP3   OH249724   4.705   7.484   0.640  0.2079 -0.1458  0.6382
 8510TIP3    H149725   4.659   7.404   0.616 -0.3589  0.7650 -1.5691
 8510TIP3    H249726   4.783   7.485   0.583 -0.3728  1.3589 -0.1943
 8511TIP3   OH249727   4.246   0.283   1.115 -0.2116 -0.4821 -0.5302
 8511TIP3    H149728   4.190   0.308   1.042 -0.0379  0.7935 -0.2509
 8511TIP3    H249729   4.214   0.334   1.189 -1.7807 -3.3276  0.9084
 8512TIP3   OH249730   1.908   5.241   2.152  0.4467  0.0722  0.3229
 8512TIP3    H149731   1.843   5.238   2.082  0.7687  0.3025  0.0109
 8512TIP3    H249732   1.861   5.278   2.226  0.3609  0.7233 -0.0520
 8513TIP3   OH249733   3.950   0.280   0.800  0.0435 -0.1180  0.6801
 8513TIP3    H149734   3.956   0.283   0.895 -0.3177 -1.0095  0.7350
 8513TIP3    H249735   3.897   0.357   0.777  0.6920  0.4801  1.1369
 8514TIP3   OH249736   5.318   6.906   2.564  0.3830 -0.1380 -0.2711
 8514TIP3    H149737   5.267   6.985   2.585  0.1125 -0.5474  0.6426
 8514TIP3    H249738   5.306   6.895   2.470  1.7396  1.8193 -0.7477
 8515TIP3   OH249739   0.332   1.791   1.181 -0.5926 -0.4660 -0.4244
 8515TIP3    H149740   0.295   1.769   1.267  0.5958  1.2986  0.5957
 8515TIP3    H249741   0.299   1.878   1.162 -0.0286 -0.4330 -1.2844
 8516TIP3   OH249742   7.355   3.464   2.339 -0.4565 -0.3994  0.4804
 8516TIP3    H149743   7.295   3.430   2.406  1.9933  0.2519  3.1940
 8516TIP3    H249744   7.371   3.555   2.364  0.4564 -0.0791 -1.1126
 8517TIP3   OH249745   5.840   7.298   2.139  0.2165 -0.1764  0.7203
 8517TIP3    H149746   5.848   7.385   2.102  1.9248 -0.2104  0.9241
 8517TIP3    H249747   5.781   7.251   2.080  0.1805  0.7809 -0.0176
 8518TIP3   OH249748   2.695   5.383   1.100 -0.0622 -0.5775 -0.5751
 8518TIP3    H149749   2.766   5.440   1.071 -1.9091  0.6125 -3.1908
 8518TIP3    H249750   2.735   5.297   1.110  1.9484  0.2892 -0.7185
 8519TIP3   OH249751   1.004   1.700   1.317 -0.0312 -0.2757  1.1811
 8519TIP3    H149752   1.095   1.730   1.316  0.1737 -0.8891  0.2100
 8519TIP3    H249753   1.005   1.620   1.264 -0.7543 -1.4399  2.8606
 8520TIP3   OH249754   6.809   1.026   1.925 -0.2754 -0.4945 -0.3601
 8520TIP3    H149755   6.783   0.934   1.937 -4.1449  0.4062 -0.5600
 8520TIP3    H249756   6.826   1.058   2.013 -2.6407 -0.5423  0.1731
 8521TIP3   OH249757   0.644   4.671   2.198 -0.2470 -0.1553  0.0780
 8521TIP3    H149758   0.557   4.656   2.233 -0.2166 -0.7356 -0.0794
 8521TIP3    H249759   0.671   4.585   2.164 -0.3518  0.3996 -1.5026
 8522TIP3   OH249760   5.001   0.741   2.468  0.2581 -0.2485  0.2004
 8522TIP3    H149761   5.025   0.834   2.465  0.0926 -0.1541  1.2854
 8522TIP3    H249762   4.987   0.724   2.561 -2.4043 -0.6719 -0.2210
 8523TIP3   OH249763   4.644   4.940   1.477  0.4320  0.3320  0.0940
 8523TIP3    H149764   4.609   4.852   1.491 -2.2662  1.3193  0.0588
 8523TIP3    H249765   4.663   4.972   1.566  0.0988  0.2169  0.2073
 8524TIP3   OH249766   0.176   0.552   2.154  0.0116 -0.6890  0.3535
 8524TIP3    H149767   0.104   0.614   2.164  1.2288  1.0715 -1.1182
 8524TIP3    H249768   0.134   0.472   2.122 -1.4914 -0.3701  1.4123
 8525TIP3   OH249769   6.611   4.815   1.807  0.7956  0.2617 -0.2755
 8525TIP3    H149770   6.578   4.764   1.733  1.1749 -0.8182  0.2813
 8525TIP3    H249771   6.537   4.818   1.868  1.3988 -1.3921  0.5802
 8526TIP3   OH249772   0.149   0.231   1.074  0.1150 -0.0459  0.2499
 8526TIP3    H149773   0.212   0.259   1.140  0.6288  0.9789 -0.6264
 8526TIP3    H249774   0.115   0.313   1.038 -0.1932 -0.5716 -0.6998
 8527TIP3   OH249775   4.009   4.877   1.918 -0.1861 -0.2705 -0.5620
 8527TIP3    H149776   4.063   4.952   1.946  0.2260  0.1381 -2.3301
 8527TIP3    H249777   3.921   4.913   1.908 -0.6276 -0.7122  1.3571
 8528TIP3   OH249778   0.645   1.730   2.176 -0.1179 -0.0415 -0.6252
 8528TIP3    H149779   0.736   1.730   2.204 -1.0793 -0.6257  3.0077
 8528TIP3    H249780   0.637   1.653   2.119  1.1913 -1.4380  0.9812
 8529TIP3   OH249781   6.249   3.692   1.346  0.3273 -0.1343  0.1023
 8529TIP3    H149782   6.313   3.719   1.280 -0.1576 -0.3213 -0.4418
 8529TIP3    H249783   6.256   3.596   1.348  0.7912 -0.0991  0.7844
 8530TIP3   OH249784   7.058   1.355   1.511 -0.2216  0.0906  0.3783
 8530TIP3    H149785   7.001   1.300   1.565  0.6755 -0.2029  1.0382
 8530TIP3    H249786   7.037   1.445   1.540 -1.0114  0.0540 -0.0443
 8531TIP3   OH249787   5.897   3.372   1.771  0.1540  0.2722  0.8462
 8531TIP3    H149788   5.806   3.347   1.784 -0.6275  2.4895  0.2140
 8531TIP3    H249789   5.945   3.323   1.837 -1.8332  0.9049  2.9091
 8532TIP3   OH249790   4.295   5.199   1.754  0.4096 -0.0876  1.1246
 8532TIP3    H149791   4.212   5.157   1.731 -0.8834  1.9768  1.6428
 8532TIP3    H249792   4.315   5.255   1.679  0.2391  0.9089  1.7996
 8533TIP3   OH249793   1.374   0.954   1.765 -0.1043 -0.4447  0.2688
 8533TIP3    H149794   1.310   0.918   1.704  0.6653 -2.4884  0.5698
 8533TIP3    H249795   1.343   0.928   1.851  0.4650 -0.3985  0.4958
 8534TIP3   OH249796   5.100   5.690   2.080 -0.5281  0.6192  0.1217
 8534TIP3    H149797   5.123   5.663   1.991  0.0578  0.5541  0.2876
 8534TIP3    H249798   5.091   5.785   2.075 -0.7731  0.5861 -0.0671
 8535TIP3   OH249799   7.654   2.951   0.715  0.1909  0.0488 -1.0664
 8535TIP3    H149800   7.567   2.911   0.716 -0.1940  0.6086  2.7103
 8535TIP3    H249801   7.639   3.040   0.684 -0.8089  0.4391  0.4408
 8536TIP3   OH249802   1.255   7.106   1.985 -0.0871  0.0972 -0.3058
 8536TIP3    H149803   1.332   7.151   1.950  0.2442  0.9537  1.4329
 8536TIP3    H249804   1.258   7.122   2.079 -2.2496 -0.0571 -0.1478
 8537TIP3   OH249805   6.834   5.604   2.181  0.3638 -0.7193  0.5677
 8537TIP3    H149806   6.884   5.664   2.236 -0.6015 -1.5711  2.4773
 8537TIP3    H249807   6.834   5.522   2.229 -3.1427 -0.6760  0.9385
 8538TIP3   OH249808   3.146   1.142   1.205 -0.2010 -0.1846 -0.4407
 8538TIP3    H149809   3.076   1.196   1.242 -1.5916 -1.0230 -1.7284
 8538TIP3    H249810   3.217   1.203   1.188 -0.1509  0.5256  1.8861
 8539TIP3   OH249811   5.141   6.380   0.405 -0.2548  0.1302 -0.0334
 8539TIP3    H149812   5.145   6.286   0.387 -2.7214 -0.1967  0.7293
 8539TIP3    H249813   5.074   6.389   0.472  0.6556  2.3740  0.6961
 8540TIP3   OH249814   5.343   6.579   1.967 -0.5173  0.1761  0.6389
 8540TIP3    H149815   5.382   6.665   1.982 -0.1493  0.4029 -1.2949
 8540TIP3    H249816   5.416   6.518   1.976 -0.6444  0.1286  1.3735
 8541TIP3   OH249817   4.193   3.083   0.893 -0.3017  0.0826  0.5449
 8541TIP3    H149818   4.138   3.148   0.850  0.4676  0.3662 -0.0421
 8541TIP3    H249819   4.265   3.068   0.831  0.6466  0.2393  1.5855
 8542TIP3   OH249820   0.059   3.542   1.979  0.0904 -0.4219  0.0271
 8542TIP3    H149821   0.117   3.478   1.938 -0.9619 -0.1407 -2.0566
 8542TIP3    H249822  -0.021   3.538   1.927 -0.7763  1.0708  1.1741
 8543TIP3   OH249823   6.251   5.490   1.334 -0.7943  0.8882  0.1912
 8543TIP3    H149824   6.319   5.530   1.389 -1.4023  1.4036  0.5811
 8543TIP3    H249825   6.299   5.440   1.268 -0.0387  0.2929  1.1616
 8544TIP3   OH249826   2.695   7.500   1.580  0.2706 -0.3569  0.0040
 8544TIP3    H149827   2.704   7.461   1.667 -0.5305  1.4825  0.9902
 8544TIP3    H249828   2.780   7.541   1.563 -0.3876  1.6776  1.2452
 8545TIP3   OH249829   0.261   1.093   0.886  0.1338 -0.4062 -0.1775
 8545TIP3    H149830   0.260   0.999   0.904  0.1985 -0.3053  0.3556
 8545TIP3    H249831   0.336   1.105   0.827 -0.6281 -0.8696 -1.2722
 8546TIP3   OH249832   1.985   4.501   0.540  0.5775  0.0954  0.0568
 8546TIP3    H149833   1.938   4.531   0.618 -0.9393 -0.6525 -0.5233
 8546TIP3    H249834   2.022   4.581   0.502 -1.5092  0.9787 -0.2461
 8547TIP3   OH249835   4.604   3.541   1.216  0.0763  0.1291 -0.2230
 8547TIP3    H149836   4.544   3.614   1.203 -0.4174  1.1398  5.3067
 8547TIP3    H249837   4.550   3.471   1.251  1.4224 -0.7528  0.1744
 8548TIP3   OH249838   2.878   1.890   2.858  0.3494 -0.4231  0.6378
 8548TIP3    H149839   2.788   1.882   2.825  0.8431 -1.8042 -0.4751
 8548TIP3    H249840   2.916   1.803   2.845  1.4067 -0.2755  2.4714
 8549TIP3   OH249841   0.535   7.301   1.865  0.0882 -0.1126  0.1540
 8549TIP3    H149842   0.505   7.390   1.883 -1.2577 -1.0528  3.1559
 8549TIP3    H249843   0.506   7.284   1.776 -0.5255  2.0947 -0.1322
 8550TIP3   OH249844   0.516   3.284   7.792  0.7274 -0.1538  0.2181
 8550TIP3    H149845   0.487   3.248   7.876  0.8711  2.4853  1.4877
 8550TIP3    H249846   0.611   3.267   7.789  0.5567 -1.1568  0.0635
 8551TIP3   OH249847   2.213   6.328   3.218 -0.4448  0.7645 -0.0086
 8551TIP3    H149848   2.131   6.363   3.251 -0.9892  1.7983 -2.2392
 8551TIP3    H249849   2.202   6.233   3.219 -1.4989  0.8805  0.1158
 8552TIP3   OH249850   1.219   6.613   2.706  0.1545  0.1756  0.7064
 8552TIP3    H149851   1.159   6.581   2.773  0.3694 -1.8540 -0.0172
 8552TIP3    H249852   1.256   6.534   2.666  0.3338  1.3075 -1.5290
 8553TIP3   OH249853   4.196   1.735   3.511  0.5501 -0.1573 -0.1071
 8553TIP3    H149854   4.219   1.706   3.600  0.8460 -0.0321 -0.1421
 8553TIP3    H249855   4.153   1.819   3.524  1.0004  0.0765 -0.1154
 8554TIP3   OH249856   5.488   4.123   1.122 -0.1778 -0.1878 -0.6828
 8554TIP3    H149857   5.549   4.065   1.168  2.2379  0.9250 -2.2875
 8554TIP3    H249858   5.429   4.063   1.076  0.4808 -1.3457 -0.0687
 8555TIP3   OH249859   1.319   3.726   2.407 -0.0079  0.2909  0.2758
 8555TIP3    H149860   1.339   3.817   2.381  0.1999  0.2655  0.3446
 8555TIP3    H249861   1.240   3.733   2.460 -0.5734  0.3226 -0.5457
 8556TIP3   OH249862   2.644   0.841   1.291  0.5864  0.1479 -0.3878
 8556TIP3    H149863   2.586   0.910   1.257 -0.8382  0.2129  1.9208
 8556TIP3    H249864   2.635   0.769   1.228 -2.4093 -0.0010  0.0442
 8557TIP3   OH249865   3.890   7.659   1.069  0.3785 -0.0243 -0.1304
 8557TIP3    H149866   3.978   7.663   1.033  1.0403 -2.5208  1.0201
 8557TIP3    H249867   3.854   7.577   1.036 -1.2704  0.6039  0.0020
 8558TIP3   OH249868   4.034   5.192   1.231 -0.3749 -0.0080 -0.7611
 8558TIP3    H149869   4.102   5.179   1.165  0.1755  1.5446 -0.5441
 8558TIP3    H249870   3.985   5.110   1.232  0.2570 -0.4364 -2.3483
 8559TIP3   OH249871   5.672   3.671   0.799 -0.5113  0.6953  0.5147
 8559TIP3    H149872   5.609   3.724   0.848 -3.5630 -0.2940 -1.9943
 8559TIP3    H249873   5.719   3.734   0.744 -0.6329  1.2629  1.0451
 8560TIP3   OH249874   0.110   3.448   0.807 -0.2788  0.0928 -0.0607
 8560TIP3    H149875   0.191   3.439   0.756 -0.2589  1.5938 -0.3328
 8560TIP3    H249876   0.120   3.385   0.878  0.3853 -0.9186 -1.0243
 8561TIP3   OH249877   1.216   2.864   2.992 -0.5269  0.0347  0.3190
 8561TIP3    H149878   1.212   2.955   3.023 -0.3827  1.2197 -2.7023
 8561TIP3    H249879   1.308   2.840   3.002 -0.2213  0.8620 -0.3688
 8562TIP3   OH249880   0.185   3.557   7.143 -0.0605  0.1961  0.0892
 8562TIP3    H149881   0.194   3.614   7.066  0.9226 -1.1828 -0.8765
 8562TIP3    H249882   0.234   3.478   7.120 -1.1642 -0.9548  1.4730
 8563TIP3   OH249883   1.914   1.828   1.769  0.1428  0.4447 -0.0510
 8563TIP3    H149884   1.978   1.882   1.723 -0.7065  1.4291 -0.0975
 8563TIP3    H249885   1.851   1.803   1.702 -1.0686  1.8422  0.5104
 8564TIP3   OH249886   4.070   1.561   3.749 -0.5291 -0.2444 -0.1915
 8564TIP3    H149887   4.095   1.469   3.757 -1.1885 -0.4522 -0.4178
 8564TIP3    H249888   4.151   1.610   3.764 -0.2808 -0.8429  0.4561
 8565TIP3   OH249889   6.236   0.888   2.008  0.0573 -0.3652 -0.1398
 8565TIP3    H149890   6.332   0.881   2.006  0.1727  0.6744  0.8046
 8565TIP3    H249891   6.219   0.978   2.036 -1.2085 -0.4497 -0.5673
 8566TIP3   OH249892   3.215   0.641   2.115  0.2744 -0.2570  0.1752
 8566TIP3    H149893   3.245   0.717   2.065 -1.4540 -0.3628 -1.0818
 8566TIP3    H249894   3.135   0.670   2.158 -1.8882 -2.0428 -2.3915
 8567TIP3   OH249895   2.318   3.109   0.718  0.0755  0.7372  0.2941
 8567TIP3    H149896   2.282   3.050   0.785 -0.0812  1.3143  0.7242
 8567TIP3    H249897   2.397   3.144   0.757  0.4709  0.3881 -0.1843
 8568TIP3   OH249898   6.456   6.620   2.140 -0.6045 -0.1596  0.1066
 8568TIP3    H149899   6.383   6.622   2.202 -0.5394  3.8980  0.3353
 8568TIP3    H249900   6.424   6.668   2.063  0.9500 -0.7175 -0.9410
 8569TIP3   OH249901   4.136   6.754   2.385  0.1202 -0.6716  0.2905
 8569TIP3    H149902   4.214   6.808   2.374  0.9600 -1.7020  0.9570
 8569TIP3    H249903   4.150   6.708   2.468 -0.4745 -2.0131 -0.3080
 8570TIP3   OH249904   2.981   7.380   1.773 -0.0127  0.6418 -0.0989
 8570TIP3    H149905   2.891   7.404   1.794  0.4356  0.6093  2.0394
 8570TIP3    H249906   3.013   7.451   1.717 -1.9054 -0.3028 -2.5719
 8571TIP3   OH249907   4.516   6.491   0.879 -0.1978  0.0270  0.4660
 8571TIP3    H149908   4.466   6.565   0.913  0.5903  0.4403  0.7451
 8571TIP3    H249909   4.595   6.489   0.933  0.7829  0.2988 -0.8992
 8572TIP3   OH249910   5.034   6.797   1.567  0.6284  0.6347  0.0168
 8572TIP3    H149911   5.020   6.810   1.660 -0.0752  1.6276 -0.2096
 8572TIP3    H249912   4.949   6.768   1.533  0.4829  1.6696 -0.5374
 8573TIP3   OH249913   0.578   0.096   0.484 -0.6483  0.4973 -0.4794
 8573TIP3    H149914   0.670   0.094   0.456 -0.1769  0.3130  1.0149
 8573TIP3    H249915   0.545   0.008   0.466 -0.4119  0.4333 -0.6059
 8574TIP3   OH249916   4.389   2.073   1.131  0.7615  0.0663 -0.5809
 8574TIP3    H149917   4.376   1.979   1.144  1.4296  0.0172 -0.2528
 8574TIP3    H249918   4.453   2.098   1.198 -0.7356  1.1090  0.5424
 8575TIP3   OH249919   1.159   2.476   3.264 -0.1169 -0.1032 -0.4508
 8575TIP3    H149920   1.116   2.424   3.196 -1.1640 -0.7709  0.6861
 8575TIP3    H249921   1.236   2.513   3.221 -0.3399 -1.1288 -1.7853
 8576TIP3   OH249922   6.765   1.341   0.844  0.1083  0.2497 -0.1669
 8576TIP3    H149923   6.716   1.421   0.866  3.6658  2.4465  0.6117
 8576TIP3    H249924   6.807   1.361   0.760 -0.6227 -1.7591 -1.0818
 8577TIP3   OH249925   2.694   0.912   1.661 -0.4963 -0.4876  0.1761
 8577TIP3    H149926   2.604   0.941   1.677 -0.4524 -0.5618  0.5781
 8577TIP3    H249927   2.687   0.818   1.648 -0.5294 -0.4294 -0.2239
 8578TIP3   OH249928   5.523   1.502   2.617  0.3863 -0.0756 -0.3044
 8578TIP3    H149929   5.597   1.545   2.660  0.0060  0.7386 -0.4351
 8578TIP3    H249930   5.560   1.462   2.539  1.0348 -1.3279  0.6207
 8579TIP3   OH249931   4.101   6.142   0.853  0.5087 -0.1466 -0.0155
 8579TIP3    H149932   4.157   6.166   0.779  1.1002  0.4339  0.6005
 8579TIP3    H249933   4.154   6.162   0.930 -0.9849  1.5307  0.6351
 8580TIP3   OH249934   1.988   2.683   1.878  0.3743  0.4295 -0.4853
 8580TIP3    H149935   1.952   2.750   1.935  0.7302  0.7941 -0.6819
 8580TIP3    H249936   2.015   2.612   1.937 -0.1356  0.3961 -0.2921
 8581TIP3   OH249937   6.052   2.319   1.954 -0.0611 -0.1458 -0.0262
 8581TIP3    H149938   6.032   2.412   1.941  3.3986  0.6165 -0.8231
 8581TIP3    H249939   6.042   2.306   2.049  1.6002  1.6951  0.4624
 8582TIP3   OH249940   5.649   0.362   1.918  0.1721  0.0049  0.6122
 8582TIP3    H149941   5.724   0.422   1.912  0.2582 -0.0229  1.3175
 8582TIP3    H249942   5.617   0.373   2.008 -1.0362  0.4498  0.1592
 8583TIP3   OH249943   7.360   7.646   1.570 -0.0106  0.1770 -0.0134
 8583TIP3    H149944   7.403   7.602   1.497 -0.3257  1.2165 -0.8361
 8583TIP3    H249945   7.308   7.716   1.530  0.7758  1.5585  1.2781
 8584TIP3   OH249946   4.112   0.227   1.909 -0.0265 -0.4510  0.0094
 8584TIP3    H149947   4.022   0.241   1.881  0.0693  0.0808 -0.0530
 8584TIP3    H249948   4.155   0.189   1.832  0.5626  2.2509 -1.1327
 8585TIP3   OH249949   4.830   1.523   1.339 -0.3210  1.3068  0.2478
 8585TIP3    H149950   4.909   1.549   1.387  0.5856  0.8166 -0.9389
 8585TIP3    H249951   4.859   1.452   1.282 -1.9621  0.0992  0.8363
 8586TIP3   OH249952   7.195   0.202   1.471 -0.2844 -0.6675 -0.7365
 8586TIP3    H149953   7.101   0.216   1.464 -0.0738  2.1927  0.8370
 8586TIP3    H249954   7.235   0.282   1.439  1.5772 -1.2998 -0.1633
 8587TIP3   OH249955   7.674   7.202   2.014  0.4035 -0.5737  0.5579
 8587TIP3    H149956   7.722   7.126   2.047 -0.0757 -0.5323  1.3546
 8587TIP3    H249957   7.617   7.167   1.946 -0.2419 -1.0373  1.3242
 8588TIP3   OH249958   7.097   1.166   1.153 -0.7526  0.5333 -0.0219
 8588TIP3    H149959   7.111   1.095   1.090 -1.6962  0.2653  0.0493
 8588TIP3    H249960   7.045   1.231   1.105  1.6558  2.1001 -0.6950
 8589TIP3   OH249961   3.973   4.350   1.049  0.5455  0.2306 -0.3487
 8589TIP3    H149962   4.019   4.286   1.103  1.0606  0.9122  0.0242
 8589TIP3    H249963   3.929   4.407   1.111 -1.0805 -0.5914 -0.7022
 8590TIP3   OH249964   5.121   7.267   0.366  0.7013  0.0928 -0.1130
 8590TIP3    H149965   5.151   7.224   0.286 -0.0325 -0.7166  0.0282
 8590TIP3    H249966   5.065   7.202   0.409  0.4656  0.7917  0.6745
 8591TIP3   OH249967   1.445   3.271   2.254  0.3226 -0.1733 -0.1590
 8591TIP3    H149968   1.505   3.218   2.306  2.0178  2.1022  0.3829
 8591TIP3    H249969   1.496   3.297   2.177 -0.6860  0.1047 -0.7559
 8592TIP3   OH249970   3.221   1.184   1.605 -0.3798  0.5696  0.9449
 8592TIP3    H149971   3.183   1.100   1.628 -1.7982  0.7714 -0.4519
 8592TIP3    H249972   3.288   1.163   1.539 -0.3796  0.4857  0.9726
 8593TIP3   OH249973   6.104   2.032   2.693  0.5008  0.1152 -0.0923
 8593TIP3    H149974   6.068   2.119   2.675  2.0720  0.9219  0.4148
 8593TIP3    H249975   6.161   2.014   2.618  0.5176 -0.2905  0.0156
 8594TIP3   OH249976   4.975   5.084   2.129 -0.1179  0.5468 -0.1985
 8594TIP3    H149977   4.952   4.993   2.146 -1.2781  0.0739 -3.5752
 8594TIP3    H249978   5.070   5.088   2.141  0.3204 -1.7693 -2.2675
 8595TIP3   OH249979   1.438   5.614   1.720  0.0533 -0.4418 -0.0576
 8595TIP3    H149980   1.370   5.680   1.710 -0.5765 -0.9321  0.8590
 8595TIP3    H249981   1.410   5.542   1.664  0.8775  0.1526 -1.2669
 8596TIP3   OH249982   1.865   7.484   3.024 -0.4070  0.3123  0.3963
 8596TIP3    H149983   1.896   7.545   3.091  0.6228  0.1566  0.0865
 8596TIP3    H249984   1.945   7.446   2.987 -1.0074 -0.8994  0.2776
 8597TIP3   OH249985   5.676   0.534   1.323 -0.3124 -0.0291  0.0960
 8597TIP3    H149986   5.768   0.526   1.297 -0.7752 -1.3060 -1.3121
 8597TIP3    H249987   5.679   0.571   1.411  1.5403  0.0978  0.0204
 8598TIP3   OH249988   2.375   6.467   1.959  0.4109 -0.0461  0.4901
 8598TIP3    H149989   2.333   6.491   2.042 -0.8153  0.5505 -0.2621
 8598TIP3    H249990   2.412   6.380   1.975 -0.6185 -0.3435  1.3828
 8599TIP3   OH249991   4.460   2.834   1.230 -0.3010  0.2466 -0.3151
 8599TIP3    H149992   4.384   2.889   1.209  1.6080  3.1763 -0.0983
 8599TIP3    H249993   4.436   2.788   1.310 -1.6022  1.6236  0.1167
 8600TIP3   OH249994   3.705   5.358   0.585  0.0860  0.6452  0.1802
 8600TIP3    H149995   3.797   5.333   0.587  0.2781  1.3111 -0.3761
 8600TIP3    H249996   3.659   5.279   0.555  0.6463  0.8043 -1.1521
 8601TIP3   OH249997   7.633   2.027   2.581 -0.4651  0.2540 -0.2601
 8601TIP3    H149998   7.661   2.047   2.670  0.0045 -0.6046 -0.2048
 8601TIP3    H249999   7.713   1.996   2.537 -0.9148 -0.3644 -0.6604
 8602TIP3   OH250000   0.113   2.034   2.844  0.5075 -0.1776 -0.8160
 8602TIP3    H150001   0.068   2.090   2.907 -0.7908 -1.7337 -0.2776
 8602TIP3    H250002   0.205   2.060   2.850  0.2045  0.6815  0.6837
 8603TIP3   OH250003   2.017   5.023   2.236 -0.3564 -0.0524  0.3008
 8603TIP3    H150004   1.975   5.102   2.201 -2.6216 -0.7830  1.2242
 8603TIP3    H250005   2.054   5.050   2.320 -1.4862 -0.0414  0.8074
 8604TIP3   OH250006   7.167   3.982   0.608 -0.1183  0.1526  0.1977
 8604TIP3    H150007   7.141   3.893   0.584 -1.0733  0.3061  0.6164
 8604TIP3    H250008   7.262   3.977   0.619  0.0472 -0.4711 -1.2194
 8605TIP3   OH250009   1.735   2.560   0.851 -0.4129 -0.6300  0.2085
 8605TIP3    H150010   1.688   2.643   0.859 -0.7837 -0.9477  1.6779
 8605TIP3    H250011   1.764   2.540   0.940  1.1220 -1.2554 -0.3954
 8606TIP3   OH250012   6.627   2.485   2.357  0.7792 -0.8835 -0.1094
 8606TIP3    H150013   6.575   2.428   2.413  1.5435 -2.1500 -0.6564
 8606TIP3    H250014   6.562   2.536   2.308  0.0556 -1.9390 -0.2786
 8607TIP3   OH250015   3.706   3.457   1.983  0.7565 -0.5619 -0.3094
 8607TIP3    H150016   3.685   3.449   2.076  1.2706 -1.7315 -0.2713
 8607TIP3    H250017   3.670   3.542   1.957  1.1673  0.0623  1.0966
 8608TIP3   OH250018   7.391   4.717   1.430  0.4792 -0.4043  0.1734
 8608TIP3    H150019   7.402   4.724   1.525 -0.0096  1.9537  0.1140
 8608TIP3    H250020   7.301   4.686   1.418  0.1663  0.3438  0.4989
 8609TIP3   OH250021   7.252   1.904   1.551 -0.5549 -0.5558  0.2441
 8609TIP3    H150022   7.163   1.929   1.575 -0.5953 -0.4604 -0.0050
 8609TIP3    H250023   7.307   1.966   1.599 -0.5507 -1.6325  1.6966
 8610TIP3   OH250024   6.394   5.470   0.761 -0.4344  0.2245 -0.2398
 8610TIP3    H150025   6.337   5.449   0.686  0.6522 -1.3065 -0.7020
 8610TIP3    H250026   6.442   5.388   0.777  0.5061  1.0130  1.1163
 8611TIP3   OH250027   2.226   2.771   2.140 -0.6926  0.1787  0.1005
 8611TIP3    H150028   2.190   2.808   2.220 -1.4183  1.6264 -0.8558
 8611TIP3    H250029   2.274   2.843   2.099 -0.3468 -0.5238 -0.7711
 8612TIP3   OH250030   1.928   7.351   1.452 -0.3086  0.0619  0.2053
 8612TIP3    H150031   1.982   7.312   1.520  0.6392  0.7046 -0.1479
 8612TIP3    H250032   1.913   7.279   1.390  2.4717  0.4371 -1.0868
 8613TIP3   OH250033   3.438   6.243   2.099 -0.0921 -0.9348 -0.9260
 8613TIP3    H150034   3.461   6.328   2.137 -0.4291 -1.4384  0.4796
 8613TIP3    H250035   3.459   6.252   2.006  3.5065 -0.5558 -0.2324
 8614TIP3   OH250036   6.734   6.362   1.773 -0.0590 -0.0019 -1.0089
 8614TIP3    H150037   6.679   6.289   1.744  0.2072 -0.0694 -1.3511
 8614TIP3    H250038   6.679   6.439   1.761 -0.6721 -0.2206  0.1984
 8615TIP3   OH250039   6.289   4.809   2.275  0.4996  0.5996 -0.0917
 8615TIP3    H150040   6.360   4.758   2.315  1.3102  2.2412  0.6411
 8615TIP3    H250041   6.307   4.803   2.181  0.9473  0.0528  0.0187
 8616TIP3   OH250042   4.374   1.031   1.203  0.8535  0.5145  0.3750
 8616TIP3    H150043   4.457   1.077   1.218  1.6349 -0.6329 -0.2648
 8616TIP3    H250044   4.317   1.060   1.274  1.3770  2.2897  0.1141
 8617TIP3   OH250045   2.140   4.148   2.412 -0.5044  0.2023 -0.1301
 8617TIP3    H150046   2.142   4.243   2.397 -0.0159  0.1261 -0.5758
 8617TIP3    H250047   2.099   4.112   2.334 -2.6073  0.1954  0.9110
 8618TIP3   OH250048   7.192   7.114   1.823 -0.3691  0.0243 -0.2247
 8618TIP3    H150049   7.126   7.176   1.791  0.6298  1.5670  0.5919
 8618TIP3    H250050   7.150   7.073   1.899 -0.9749 -0.1741 -0.6613
 8619TIP3   OH250051   1.076   5.884   2.440  0.3083 -0.5709  0.3355
 8619TIP3    H150052   1.064   5.871   2.346 -0.8662  1.3842  0.1652
 8619TIP3    H250053   1.038   5.970   2.458  0.5297 -0.8785  2.6107
 8620TIP3   OH250054   3.005   3.899   1.353  0.0175 -0.4760 -0.6915
 8620TIP3    H150055   2.983   3.853   1.272 -0.9500 -0.0045 -0.7015
 8620TIP3    H250056   2.978   3.838   1.423 -0.3326 -0.3460 -0.7131
 8621TIP3   OH250057   4.237   0.204   1.485 -0.1877  0.1181  0.6463
 8621TIP3    H150058   4.209   0.288   1.451  0.8694  1.3530  2.6348
 8621TIP3    H250059   4.326   0.192   1.450 -0.4484 -0.3538  0.1174
 8622TIP3   OH250060   5.537   3.851   0.967  0.7156 -0.0736 -0.0062
 8622TIP3    H150061   5.581   3.875   1.049  2.6851 -2.7708 -0.1313
 8622TIP3    H250062   5.443   3.852   0.989  0.8444  3.5326  0.9516
 8623TIP3   OH250063   6.697   0.981   2.513 -0.0101 -0.1672  0.2040
 8623TIP3    H150064   6.728   1.070   2.501  2.1056 -0.9939 -1.0573
 8623TIP3    H250065   6.756   0.943   2.578 -2.6281  0.0859  2.9094
 8624TIP3   OH250066   4.871   5.857   0.499 -0.1969  0.2146 -0.0416
 8624TIP3    H150067   4.841   5.799   0.569 -1.2351  0.6939 -0.0692
 8624TIP3    H250068   4.879   5.943   0.540 -2.2975  0.8319 -0.8171
 8625TIP3   OH250069   2.938   1.468   1.930 -0.2354 -0.1682 -0.0660
 8625TIP3    H150070   2.976   1.555   1.918 -0.9387  0.4615  1.9165
 8625TIP3    H250071   3.011   1.414   1.960  0.1894 -0.2865 -1.2453
 8626TIP3   OH250072   1.927   4.917   1.345  0.3673 -0.0568 -0.4170
 8626TIP3    H150073   1.879   4.834   1.351 -0.2883  0.3762  0.8896
 8626TIP3    H250074   1.910   4.960   1.429  1.7932  0.8102 -0.5365
 8627TIP3   OH250075   6.081   6.189   1.339 -0.3133 -0.0306  0.0357
 8627TIP3    H150076   6.033   6.122   1.289 -1.9947 -0.3354  1.9478
 8627TIP3    H250077   6.173   6.168   1.324 -0.6516  0.2998 -3.4247
 8628TIP3   OH250078   5.655   0.088   1.042  0.3148  0.6133 -0.4975
 8628TIP3    H150079   5.677   0.117   1.130  1.0399 -0.5403 -0.2753
 8628TIP3    H250080   5.604   0.007   1.056  1.5411 -0.3008 -1.1302
 8629TIP3   OH250081   3.626   6.823   2.271  0.4090  0.1607  0.2814
 8629TIP3    H150082   3.716   6.827   2.240  0.3433  0.4630  0.1209
 8629TIP3    H250083   3.620   6.892   2.338  0.3431  0.0277  0.4139
 8630TIP3   OH250084   5.148   1.542   3.407 -0.1367 -0.0247  0.0463
 8630TIP3    H150085   5.136   1.496   3.490 -2.2629  0.9006  0.3129
 8630TIP3    H250086   5.066   1.591   3.394  1.0714  1.7778 -1.3951
 8631TIP3   OH250087   2.941   7.335   2.515 -0.0661  0.0501  0.3756
 8631TIP3    H150088   2.915   7.376   2.432 -0.0904 -0.2663  0.2247
 8631TIP3    H250089   2.959   7.409   2.573 -2.1068  0.3091  0.7627
 8632TIP3   OH250090   4.630   3.399   0.697 -0.0838  0.3418 -0.2384
 8632TIP3    H150091   4.538   3.376   0.711  0.0009  1.4268  3.3147
 8632TIP3    H250092   4.627   3.487   0.660 -0.4053 -0.4064 -2.0888
 8633TIP3   OH250093   1.236   7.196   2.272  0.5637  0.0968  0.4195
 8633TIP3    H150094   1.219   7.110   2.311  0.1237  0.0045  0.0442
 8633TIP3    H250095   1.324   7.219   2.301  0.5082 -0.2749  0.8971
 8634TIP3   OH250096   0.008   6.868   1.885 -0.0030 -0.0764 -0.6357
 8634TIP3    H150097  -0.071   6.868   1.939 -1.1882  0.5223 -2.2924
 8634TIP3    H250098  -0.024   6.862   1.795  1.8898 -0.7616 -1.3162
 8635TIP3   OH250099   2.353   7.473   2.220  0.4090  0.1856  0.5023
 8635TIP3    H150100   2.331   7.492   2.312  1.6638  0.8720  0.6751
 8635TIP3    H250101   2.342   7.556   2.175  0.8629  0.1068  0.2436
 8636TIP3   OH250102   6.303   6.831   1.902  0.1239 -0.0624  0.1219
 8636TIP3    H150103   6.359   6.816   1.826  0.8881 -0.2317  0.7080
 8636TIP3    H250104   6.239   6.760   1.899 -1.2923  1.1888 -1.6219
 8637TIP3   OH250105   0.396   4.671   2.294 -0.1392  0.2760  0.1566
 8637TIP3    H150106   0.318   4.644   2.245 -0.0591  1.7968 -0.8941
 8637TIP3    H250107   0.372   4.753   2.335  1.1570  1.2430 -0.9199
 8638TIP3   OH250108   4.754   7.326   1.523  0.1368 -0.0418 -0.1435
 8638TIP3    H150109   4.681   7.307   1.464 -0.8115 -0.5175  1.1345
 8638TIP3    H250110   4.802   7.397   1.480 -0.8721  0.0391 -1.1806
 8639TIP3   OH250111   6.892   7.558   2.415 -0.4893  0.0242  0.1009
 8639TIP3    H150112   6.916   7.643   2.452 -1.3492  0.2525  0.1534
 8639TIP3    H250113   6.930   7.560   2.327  3.3451 -1.3359  1.5189
 8640TIP3   OH250114   5.784   6.803   2.042 -0.2477 -0.1330  0.1089
 8640TIP3    H150115   5.766   6.893   2.016 -1.9394  0.1258  1.9536
 8640TIP3    H250116   5.707   6.754   2.014  0.9756 -1.2465 -1.5748
 8641TIP3   OH250117   4.738   5.479   2.002 -0.2941 -0.5099 -0.0079
 8641TIP3    H150118   4.681   5.409   2.033  0.8567 -2.0687 -1.2710
 8641TIP3    H250119   4.800   5.493   2.074 -1.6547  0.5756  1.0106
 8642TIP3   OH250120   0.964   1.093   1.577  0.2985  0.0256 -0.0489
 8642TIP3    H150121   1.040   1.130   1.620  0.4717  1.3693 -1.4250
 8642TIP3    H250122   0.976   1.115   1.484 -2.2372  1.1567 -0.1770
 8643TIP3   OH250123   7.132   6.462   1.545  0.1469 -0.5332 -0.1123
 8643TIP3    H150124   7.055   6.421   1.504 -0.2196  0.9338 -0.9871
 8643TIP3    H250125   7.131   6.430   1.635 -1.7693 -0.1892  0.0320
 8644TIP3   OH250126   6.134   1.137   3.380  0.0669  0.6908 -0.2565
 8644TIP3    H150127   6.176   1.185   3.308 -0.4836 -0.4469 -1.3878
 8644TIP3    H250128   6.118   1.050   3.344 -0.0283  0.0137  1.3423
 8645TIP3   OH250129   2.674   0.179   0.985 -0.6071  0.1796  0.1581
 8645TIP3    H150130   2.641   0.252   0.934  1.1787  0.1483 -1.1485
 8645TIP3    H250131   2.621   0.179   1.065 -3.3417  0.3672 -1.5366
 8646TIP3   OH250132   3.327   0.266   2.374  0.9404 -0.1743  0.1503
 8646TIP3    H150133   3.406   0.232   2.417  0.7581  0.9211  1.4412
 8646TIP3    H250134   3.294   0.192   2.322  1.6295 -1.3294  1.2853
 8647TIP3   OH250135   0.258   0.554   0.575  0.2067  0.1721 -0.3281
 8647TIP3    H150136   0.291   0.473   0.536 -0.1082  1.2591 -3.0761
 8647TIP3    H250137   0.289   0.551   0.666  2.1748 -1.9157 -0.9599
 8648TIP3   OH250138   4.311   4.857   0.885  0.5721 -0.0200  0.3757
 8648TIP3    H150139   4.390   4.889   0.842  0.0969  1.6526  0.6928
 8648TIP3    H250140   4.338   4.773   0.923  2.1997  0.5086  0.4919
 8649TIP3   OH250141   2.250   0.491   1.757  1.1081 -0.0617 -0.1108
 8649TIP3    H150142   2.298   0.418   1.720 -0.6638 -2.5824  2.1144
 8649TIP3    H250143   2.172   0.499   1.702  0.2957 -1.3533  0.7590
 8650TIP3   OH250144   0.748   4.270   1.031  0.5880  0.2070 -0.3258
 8650TIP3    H150145   0.684   4.320   0.980 -0.2866  1.1027  1.5730
 8650TIP3    H250146   0.697   4.199   1.070  1.0638  0.0312 -0.0126
 8651TIP3   OH250147   5.907   1.377   2.145  0.0305  0.2796 -0.2609
 8651TIP3    H150148   5.965   1.382   2.221 -0.7021 -0.5366  0.3771
 8651TIP3    H250149   5.912   1.286   2.118 -0.8281  0.2300 -0.2822
 8652TIP3   OH250150   1.208   2.976   2.487  0.1247  0.1310  0.6362
 8652TIP3    H150151   1.239   2.969   2.577  1.6586 -0.2969  0.1040
 8652TIP3    H250152   1.136   3.038   2.491 -0.3835 -0.5094  2.2883
 8653TIP3   OH250153   4.999   6.753   1.847  0.9659 -0.0891  0.0614
 8653TIP3    H150154   4.940   6.679   1.855 -1.0344  1.2376 -1.2166
 8653TIP3    H250155   4.945   6.829   1.868  2.7620  1.0860  0.7021
 8654TIP3   OH250156   5.893   3.068   2.875  0.1258  0.2596 -0.4815
 8654TIP3    H150157   5.894   2.985   2.827  0.9798  0.6712 -1.1976
 8654TIP3    H250158   5.818   3.060   2.935  1.2142 -1.7367  0.7347
 8655TIP3   OH250159   0.329   3.700   1.330  0.7203  0.3230 -0.2084
 8655TIP3    H150160   0.362   3.668   1.246  0.4976 -0.2084 -0.0965
 8655TIP3    H250161   0.311   3.621   1.381 -1.1444  0.5679 -0.4231
 8656TIP3   OH250162   2.386   4.219   1.239  0.5311  0.6081 -0.1991
 8656TIP3    H150163   2.316   4.272   1.277 -1.3007 -1.3661 -0.6169
 8656TIP3    H250164   2.401   4.257   1.152 -1.1206  0.1883 -0.7043
 8657TIP3   OH250165   6.223   7.237   1.018 -0.2169  0.4120  0.2065
 8657TIP3    H150166   6.273   7.282   1.086 -0.1090  0.7113 -0.0701
 8657TIP3    H250167   6.268   7.258   0.936 -0.8836  0.8212 -0.0657
 8658TIP3   OH250168   0.051   6.978   1.345 -0.1869 -0.2741  0.5878
 8658TIP3    H150169  -0.016   6.918   1.311  0.9410 -0.8053 -0.7912
 8658TIP3    H250170   0.126   6.966   1.287  0.2019  2.2644  0.4536
 8659TIP3   OH250171   2.226   0.213   1.385 -0.0900 -0.8785  0.1811
 8659TIP3    H150172   2.237   0.273   1.311  0.6590 -0.6159  0.5057
 8659TIP3    H250173   2.138   0.231   1.418  0.9866  1.8249  1.8359
 8660TIP3   OH250174   0.096   3.954   1.662  0.3428 -0.5952 -0.4874
 8660TIP3    H150175   0.125   3.985   1.577 -2.4212  1.9413 -0.6737
 8660TIP3    H250176   0.065   3.865   1.646 -0.6127  0.0121 -2.3234
 8661TIP3   OH250177   6.161   0.247   3.040  0.7390  0.3687  0.1811
 8661TIP3    H150178   6.205   0.289   2.966  0.3537  0.4647  0.0051
 8661TIP3    H250179   6.151   0.317   3.105  1.0320  0.2965  0.3056
 8662TIP3   OH250180   5.328   1.768   2.202 -0.3032  0.4972  0.1502
 8662TIP3    H150181   5.300   1.830   2.135 -0.8789 -1.1555 -1.2211
 8662TIP3    H250182   5.333   1.820   2.283 -2.4784  1.9608 -0.5572
 8663TIP3   OH250183   1.060   3.984   2.085 -0.4861 -0.0382 -0.1160
 8663TIP3    H150184   1.081   3.956   1.996  0.9985 -1.4633  0.6524
 8663TIP3    H250185   0.984   4.042   2.074 -0.4668 -0.3481 -2.2726
 8664TIP3   OH250186   1.748   5.417   2.865 -0.4719 -0.1019 -0.2450
 8664TIP3    H150187   1.697   5.444   2.942 -1.1810 -0.2164 -0.6572
 8664TIP3    H250188   1.728   5.324   2.855 -2.1010  0.3525 -1.7871
 8665TIP3   OH250189   4.292   2.491   1.500  0.8959 -0.0413 -1.1622
 8665TIP3    H150190   4.273   2.402   1.471 -1.6250  0.2203 -0.5182
 8665TIP3    H250191   4.290   2.486   1.595  0.6634  0.7069 -1.1247
 8666TIP3   OH250192   4.763   2.101   0.988 -0.3056  0.0804 -0.5007
 8666TIP3    H150193   4.720   2.186   0.993  1.3457  0.9093  0.4166
 8666TIP3    H250194   4.734   2.054   1.065 -0.1476  0.3636 -0.2656
 8667TIP3   OH250195   3.267   5.331   0.590 -0.0817 -0.0954  0.1747
 8667TIP3    H150196   3.337   5.388   0.559 -1.6922  1.7920 -0.2034
 8667TIP3    H250197   3.271   5.254   0.533  0.5605  0.7888 -1.0125
 8668TIP3   OH250198   1.371   5.645   0.419  0.2008  0.3274 -0.3862
 8668TIP3    H150199   1.441   5.710   0.413 -0.1683  0.8607  0.8194
 8668TIP3    H250200   1.291   5.694   0.400  0.2236 -0.5895 -3.3462
 8669TIP3   OH250201   6.349   0.699   2.245 -0.0313 -0.9280 -0.0545
 8669TIP3    H150202   6.292   0.773   2.224 -0.2920 -0.4981  1.9847
 8669TIP3    H250203   6.432   0.739   2.269  0.1199 -1.3572  0.1455
 8670TIP3   OH250204   5.774   6.137   1.859  0.5413 -0.4372  0.0952
 8670TIP3    H150205   5.794   6.196   1.786 -0.9715  0.4514  0.3640
 8670TIP3    H250206   5.679   6.127   1.857  0.4291 -0.1850  2.0745
 8671TIP3   OH250207   4.169   3.062   1.632 -0.4850 -0.4747 -0.2571
 8671TIP3    H150208   4.146   3.020   1.714  0.8674 -1.8903 -0.5672
 8671TIP3    H250209   4.256   3.100   1.648 -0.5353 -0.1082 -0.8156
 8672TIP3   OH250210   6.900   2.237   1.446 -0.0241 -0.6455  0.1837
 8672TIP3    H150211   6.960   2.312   1.445 -0.1469 -0.5574 -0.4621
 8672TIP3    H250212   6.913   2.198   1.533 -1.1022  1.0330  1.1467
 8673TIP3   OH250213   6.832   6.014   3.437  0.2473  0.5449  0.5236
 8673TIP3    H150214   6.748   6.061   3.441  0.3144  0.8806 -1.1987
 8673TIP3    H250215   6.808   5.923   3.422  0.1352  0.9757 -2.5354
 8674TIP3   OH250216   1.083   4.952   1.043  0.2350  0.7836 -0.3607
 8674TIP3    H150217   1.158   4.960   1.103  2.0087 -0.5870 -2.2356
 8674TIP3    H250218   1.104   5.011   0.971  0.1008 -0.4510 -1.4452
 8675TIP3   OH250219   5.230   3.067   2.293  0.8280  0.3519  0.1287
 8675TIP3    H150220   5.300   3.017   2.334  3.8417  3.6232 -0.4853
 8675TIP3    H250221   5.248   3.158   2.317 -3.0112  1.4644 -0.5032
 8676TIP3   OH250222   5.679   4.057   0.764  0.5553  0.2803 -0.4998
 8676TIP3    H150223   5.732   4.123   0.808  0.2799 -0.3025  0.7711
 8676TIP3    H250224   5.743   3.994   0.730  0.7456  0.0052  0.3224
 8677TIP3   OH250225   6.792   5.439   1.278 -0.0632 -0.3358 -0.1677
 8677TIP3    H150226   6.714   5.429   1.224 -0.0110  0.1465 -0.3379
 8677TIP3    H250227   6.799   5.533   1.294  0.5928 -0.3514 -0.3184
 8678TIP3   OH250228   6.834   2.957   3.076  0.5168  0.0702  0.8060
 8678TIP3    H150229   6.900   2.907   3.027  0.5465  1.1733 -0.3533
 8678TIP3    H250230   6.837   3.044   3.036 -1.6817  0.1382  0.6939
 8679TIP3   OH250231   5.075   4.070   2.159 -0.7296 -0.3547 -0.2841
 8679TIP3    H150232   5.138   4.026   2.217  0.1351  0.3863 -0.6419
 8679TIP3    H250233   5.089   4.164   2.175 -2.3169 -0.1800  0.2279
 8680TIP3   OH250234   6.094   2.385   2.778 -0.9197  0.3481  0.2738
 8680TIP3    H150235   6.034   2.355   2.710 -1.1553  0.5067  0.4097
 8680TIP3    H250236   6.098   2.480   2.766  2.2780  0.0828 -2.2014
 8681TIP3   OH250237   7.117   4.976   2.010 -0.2701  0.4504  0.1125
 8681TIP3    H150238   7.155   4.960   2.096 -0.1237  1.2601  0.2024
 8681TIP3    H250239   7.169   4.922   1.950 -1.5807 -1.6450  0.7512
 8682TIP3   OH250240   4.153   3.530   1.184  0.0931  0.1496  0.7220
 8682TIP3    H150241   4.165   3.585   1.261 -1.0043 -0.1068  1.1016
 8682TIP3    H250242   4.238   3.489   1.169  0.5417  0.8606  1.2744
 8683TIP3   OH250243   3.862   2.508   0.870 -0.2086 -0.0519  0.9740
 8683TIP3    H150244   3.953   2.536   0.862  0.6915 -2.9342 -0.1860
 8683TIP3    H250245   3.811   2.585   0.846  1.9137  1.5188  1.2639
 8684TIP3   OH250246   1.769   7.078   0.796  0.4768  0.0934  0.0490
 8684TIP3    H150247   1.827   7.093   0.722  1.0247 -0.1422  0.4208
 8684TIP3    H250248   1.687   7.048   0.758  0.8092 -0.1845 -0.4529
 8685TIP3   OH250249   0.783   0.885   2.876  0.2110  0.1288  0.5990
 8685TIP3    H150250   0.771   0.927   2.791  0.3897 -1.3982 -0.2136
 8685TIP3    H250251   0.848   0.940   2.921 -1.2082  1.9935  0.5314
 8686TIP3   OH250252   1.219   4.318   2.420  0.0228  0.5853 -0.0960
 8686TIP3    H150253   1.285   4.357   2.478  0.6436  0.4801 -0.7239
 8686TIP3    H250254   1.155   4.387   2.406  0.1636  0.7926  0.2534
 8687TIP3   OH250255   7.429   2.793   2.037  0.5512  0.2748  0.1628
 8687TIP3    H150256   7.462   2.879   2.010 -0.7939  1.2011  1.2710
 8687TIP3    H250257   7.376   2.763   1.963  0.8750  0.4935 -0.1595
 8688TIP3   OH250258   7.406   0.830   3.209  0.1331  0.0342  0.0447
 8688TIP3    H150259   7.391   0.742   3.243  0.9288 -0.1761 -0.1199
 8688TIP3    H250260   7.379   0.888   3.279 -3.8095 -0.1833 -1.0821
 8689TIP3   OH250261   5.685   2.683   1.138 -0.2509  0.3282 -0.1370
 8689TIP3    H150262   5.750   2.613   1.136 -0.8945 -0.3164  0.9495
 8689TIP3    H250263   5.690   2.722   1.050  0.0407 -1.1440 -0.8015
 8690TIP3   OH250264   7.134   7.127   0.947  0.9681 -0.2719 -0.5586
 8690TIP3    H150265   7.167   7.173   0.869 -1.3346  0.3851 -1.2279
 8690TIP3    H250266   7.057   7.080   0.915  1.8258 -2.6233  0.6745
 8691TIP3   OH250267   7.282   6.596   1.838 -0.5816 -0.4808  0.1565
 8691TIP3    H150268   7.267   6.680   1.795 -0.0655  0.0644  0.9984
 8691TIP3    H250269   7.197   6.554   1.841 -1.7264  1.6593  3.0789
 8692TIP3   OH250270   1.521   4.498   1.750 -0.4447 -0.7231  0.0598
 8692TIP3    H150271   1.510   4.578   1.800  0.6202 -1.2615  1.2201
 8692TIP3    H250272   1.446   4.496   1.691  0.2102  1.8105 -0.9878
 8693TIP3   OH250273   0.017   1.542   2.977  0.8979  1.2468  0.0962
 8693TIP3    H150274   0.013   1.605   2.904  2.3002  0.5887 -0.5891
 8693TIP3    H250275   0.024   1.457   2.934 -2.1847  0.4220  0.9916
 8694TIP3   OH250276   2.782   6.279   1.140 -0.7190 -0.5501 -0.3203
 8694TIP3    H150277   2.692   6.248   1.154 -1.7553  1.6844 -1.3596
 8694TIP3    H250278   2.775   6.374   1.149  1.7141 -0.3761  0.2468
 8695TIP3   OH250279   7.024   5.967   1.306  0.0103  0.0849  0.1786
 8695TIP3    H150280   7.078   6.020   1.247  0.2922 -0.4363 -0.0447
 8695TIP3    H250281   6.985   5.901   1.249 -0.6355  0.2758  0.3911
 8696TIP3   OH250282   3.521   6.542   2.189 -0.2314 -0.2338  0.0971
 8696TIP3    H150283   3.549   6.476   2.252  0.7717 -0.3056 -0.3927
 8696TIP3    H250284   3.481   6.611   2.242  0.6410 -0.2677  0.8272
 8697TIP3   OH250285   7.336   3.284   2.096  0.5859 -0.1235  0.0502
 8697TIP3    H150286   7.329   3.208   2.154 -1.6888  0.3961  0.5680
 8697TIP3    H250287   7.322   3.359   2.154 -0.8989  0.4572 -1.0199
 8698TIP3   OH250288   5.525   2.716   1.708 -0.1259  0.5638 -0.8000
 8698TIP3    H150289   5.433   2.715   1.681 -0.1328  2.8348 -1.0474
 8698TIP3    H250290   5.574   2.696   1.629 -0.4014 -1.6914 -0.4446
 8699TIP3   OH250291   1.287   4.834   2.798 -0.0345  0.1177 -0.1957
 8699TIP3    H150292   1.283   4.892   2.722 -1.0460 -1.2589 -1.2453
 8699TIP3    H250293   1.325   4.753   2.765 -1.8081 -1.0047  0.3884
 8700TIP3   OH250294   6.513   1.529   0.970  0.0476 -0.1602 -0.0701
 8700TIP3    H150295   6.485   1.592   1.037 -1.5215  1.1313 -1.8352
 8700TIP3    H250296   6.595   1.564   0.937 -0.4971  0.6496 -0.6005
 8701TIP3   OH250297   7.209   5.837   0.908  0.0171  0.4563 -0.0571
 8701TIP3    H150298   7.203   5.743   0.892 -0.9394  0.7198 -1.4351
 8701TIP3    H250299   7.281   5.846   0.971  0.9623 -1.0774 -0.8496
 8702TIP3   OH250300   1.260   6.112   1.996  0.5949 -0.6343  0.6021
 8702TIP3    H150301   1.172   6.085   1.969  1.1108 -0.2225 -1.6542
 8702TIP3    H250302   1.306   6.030   2.011  0.3872 -0.9113 -0.2020
 8703TIP3   OH250303   2.419   5.876   1.510  0.0745  0.8677 -0.0467
 8703TIP3    H150304   2.335   5.836   1.493 -0.1569  1.4684 -0.3593
 8703TIP3    H250305   2.481   5.826   1.457  0.3258 -1.0863  1.9440
 8704TIP3   OH250306   7.083   5.423   1.568  0.4160  0.1303 -0.4357
 8704TIP3    H150307   7.105   5.430   1.475  4.2065  2.4796  0.4035
 8704TIP3    H250308   7.099   5.331   1.589 -1.5783 -0.7060 -2.2297
 8705TIP3   OH250309   5.736   2.346   2.917 -0.0020 -0.0725  0.6420
 8705TIP3    H150310   5.787   2.408   2.969  0.7141  0.4164 -0.5964
 8705TIP3    H250311   5.795   2.272   2.902  1.2260  1.3378 -2.4909
 8706TIP3   OH250312   0.629   0.580   1.370  0.5449 -0.5554 -0.9005
 8706TIP3    H150313   0.646   0.657   1.424  0.1463 -0.5691 -0.7522
 8706TIP3    H250314   0.540   0.553   1.393  0.8628 -1.3637 -0.5726
 8707TIP3   OH250315   0.260   0.479   2.395 -0.0107 -0.3114  0.3068
 8707TIP3    H150316   0.271   0.389   2.365  1.0702 -0.1042  0.0232
 8707TIP3    H250317   0.236   0.529   2.317 -1.7150 -0.5111  0.6609
 8708TIP3   OH250318   4.148   5.595   1.565 -0.7159 -0.3085  0.1957
 8708TIP3    H150319   4.105   5.574   1.483  3.0249  0.9507 -2.3497
 8708TIP3    H250320   4.206   5.521   1.581  0.4418  0.5908  0.2596
 8709TIP3   OH250321   1.135   6.934   2.401 -0.1913 -0.6290  0.1089
 8709TIP3    H150322   1.128   6.914   2.495  1.5664  0.4874  0.5429
 8709TIP3    H250323   1.189   6.864   2.366 -0.1904 -0.6243  0.1008
 8710TIP3   OH250324   4.613   0.394   2.071 -0.2188 -0.8423  0.4040
 8710TIP3    H150325   4.545   0.401   2.138  0.2062 -1.0966  0.8687
 8710TIP3    H250326   4.611   0.302   2.045  0.1680 -0.9269  0.6606
 8711TIP3   OH250327   1.635   0.938   2.944 -0.4950  0.7985  0.0130
 8711TIP3    H150328   1.718   0.973   2.975 -0.3496  0.2213  0.2856
 8711TIP3    H250329   1.584   1.015   2.918  0.2748  1.1294 -0.5423
 8712TIP3   OH250330   3.135   7.214   0.705 -0.0434 -0.0150  0.2271
 8712TIP3    H150331   3.101   7.289   0.656  0.3129 -0.3886 -0.6016
 8712TIP3    H250332   3.214   7.187   0.657  0.1841 -0.5341  0.8730
 8713TIP3   OH250333   5.889   7.204   1.722  0.3439  0.2408 -0.1832
 8713TIP3    H150334   5.927   7.208   1.634 -2.2859  0.0081 -1.4261
 8713TIP3    H250335   5.963   7.219   1.781  1.9373  2.1007 -2.4699
 8714TIP3   OH250336   0.603   7.643   2.829 -0.3172  0.3829 -0.1090
 8714TIP3    H150337   0.591   7.719   2.773  0.4631  1.6871  1.4110
 8714TIP3    H250338   0.535   7.652   2.896  0.3083  0.1993  0.5537
 8715TIP3   OH250339   7.116   4.284   0.632  0.1533 -0.0227  0.3794
 8715TIP3    H150340   7.087   4.198   0.661  0.0996  0.0634  0.5825
 8715TIP3    H250341   7.121   4.277   0.537 -0.3920 -0.0835  0.3519
 8716TIP3   OH250342   1.488   0.842   2.301 -0.0429  0.1824 -0.2795
 8716TIP3    H150343   1.562   0.858   2.359 -0.2636  1.0858 -0.2421
 8716TIP3    H250344   1.427   0.913   2.320 -1.0880 -0.7488 -0.0350
 8717TIP3   OH250345   7.489   5.300   1.392  0.4002 -0.6005  0.8556
 8717TIP3    H150346   7.484   5.239   1.318 -0.2139 -0.5328  0.8406
 8717TIP3    H250347   7.464   5.248   1.468  2.2451 -1.0099  1.2323
 8718TIP3   OH250348   1.655   5.214   1.459 -0.2648  0.0499 -0.0691
 8718TIP3    H150349   1.674   5.120   1.463  0.4855  0.2220  0.5982
 8718TIP3    H250350   1.675   5.239   1.369 -0.0247 -0.3367 -0.1246
 8719TIP3   OH250351   2.514   2.885   2.480 -0.4526  0.0761  0.0505
 8719TIP3    H150352   2.558   2.832   2.412 -1.4510  0.5126 -0.9627
 8719TIP3    H250353   2.551   2.853   2.562  1.3549  0.0403 -0.7258
 8720TIP3   OH250354   2.152   6.469   2.578 -0.6389  0.5556  0.2572
 8720TIP3    H150355   2.106   6.482   2.495 -2.1577  0.7629  1.0983
 8720TIP3    H250356   2.178   6.376   2.576  1.3949  1.0834 -1.4043
 8721TIP3   OH250357   1.551   2.507   1.599  0.4260 -0.4001  0.3414
 8721TIP3    H150358   1.602   2.585   1.621  1.4553 -1.4258  1.6954
 8721TIP3    H250359   1.538   2.514   1.504  1.9493  0.5710  0.1643
 8722TIP3   OH250360   4.292   5.250   2.368  0.2055  0.5329 -0.0973
 8722TIP3    H150361   4.384   5.269   2.386 -0.0990  0.9823  1.1092
 8722TIP3    H250362   4.293   5.163   2.327  1.1032  0.1696  0.6589
 8723TIP3   OH250363   3.026   3.683   2.150  0.0405  0.5933  0.5224
 8723TIP3    H150364   2.971   3.753   2.184 -1.5400 -0.4529  0.1961
 8723TIP3    H250365   3.005   3.607   2.203 -1.6692 -0.7974 -1.9505
 8724TIP3   OH250366   2.542   1.953   1.653 -0.8019  0.4832 -0.4686
 8724TIP3    H150367   2.522   1.869   1.610  2.2074  0.3104 -1.8204
 8724TIP3    H250368   2.562   1.929   1.744  0.0395 -0.3008 -0.8459
 8725TIP3   OH250369   4.555   1.791   3.073  0.0038  0.2289  0.2995
 8725TIP3    H150370   4.467   1.780   3.037 -0.2966  0.8321  0.8236
 8725TIP3    H250371   4.604   1.716   3.040 -0.9952 -0.7078  0.8549
 8726TIP3   OH250372   1.098   0.772   2.083  0.3906  0.8603  0.0955
 8726TIP3    H150373   1.109   0.723   2.165  0.5713  0.4828 -0.1546
 8726TIP3    H250374   1.068   0.859   2.112  0.1181  0.6236  0.5442
 8727TIP3   OH250375   1.726   3.760   1.311  0.6930 -0.0099  0.1469
 8727TIP3    H150376   1.663   3.832   1.307  0.6198 -0.0202  1.0936
 8727TIP3    H250377   1.704   3.712   1.390  0.4467 -1.3674 -0.7111
 8728TIP3   OH250378   3.324   2.104   1.116 -0.2858 -0.5255 -0.2197
 8728TIP3    H150379   3.388   2.171   1.091 -1.8906  0.4290 -1.9987
 8728TIP3    H250380   3.298   2.063   1.034 -1.9033 -0.9512  0.4605
 8729TIP3   OH250381   6.533   1.539   3.263 -0.0160  0.6023 -0.0151
 8729TIP3    H150382   6.590   1.556   3.338 -0.5337 -0.1064  0.5600
 8729TIP3    H250383   6.466   1.607   3.269 -0.0162  0.5908  0.1315
 8730TIP3   OH250384   3.540   0.395   0.988  0.8585 -0.6577  0.1087
 8730TIP3    H150385   3.593   0.318   0.966  0.1536 -0.6364 -1.7799
 8730TIP3    H250386   3.597   0.469   0.967  1.1677 -0.6293  0.9864
 8731TIP3   OH250387   7.238   0.208   3.070 -0.7973 -0.3950  0.0981
 8731TIP3    H150388   7.204   0.190   3.158 -0.1619 -0.8166  0.2661
 8731TIP3    H250389   7.271   0.123   3.039  0.5792  0.0804  0.1639
 8732TIP3   OH250390   1.891   2.549   0.627  0.1688  0.2182  0.1329
 8732TIP3    H150391   1.934   2.631   0.603 -0.1527  0.2534 -0.3231
 8732TIP3    H250392   1.842   2.570   0.707 -2.4958  1.3529 -1.6575
 8733TIP3   OH250393   2.035   0.890   0.852  0.0254  0.7050  0.1603
 8733TIP3    H150394   1.940   0.886   0.860  0.0813  0.0988  0.5115
 8733TIP3    H250395   2.051   0.969   0.799 -0.5817  1.7513  1.4672
 8734TIP3   OH250396   1.661   7.357   1.524  0.6700  0.1264 -0.0914
 8734TIP3    H150397   1.643   7.420   1.454  1.9535  1.1756  0.4809
 8734TIP3    H250398   1.756   7.356   1.532  0.5449  1.0326  2.4695
 8735TIP3   OH250399   3.684   6.090   0.974 -0.1065 -0.0559  0.1180
 8735TIP3    H150400   3.632   6.010   0.969  1.8685 -1.3331 -1.6795
 8735TIP3    H250401   3.631   6.156   0.930 -1.2183 -0.7025  0.4640
 8736TIP3   OH250402   6.159   7.449   0.492  0.0521  0.5736  0.2811
 8736TIP3    H150403   6.108   7.436   0.572 -0.6926 -0.6000 -0.3548
 8736TIP3    H250404   6.243   7.407   0.510 -0.1044  0.3366  0.4684
 8737TIP3   OH250405   5.629   0.639   1.024  0.3443  0.0362  0.5573
 8737TIP3    H150406   5.627   0.634   1.120  1.3048 -1.3377  0.5222
 8737TIP3    H250407   5.641   0.549   0.995 -2.6040  0.0153 -0.9840
 8738TIP3   OH250408   1.425   3.909   0.868 -0.1970  0.0532  0.1704
 8738TIP3    H150409   1.362   3.980   0.874  1.1421  1.3041  0.2058
 8738TIP3    H250410   1.435   3.893   0.774 -0.3345  0.0630  0.1544
 8739TIP3   OH250411   3.659   2.181   1.161  0.5498  0.4865 -0.6624
 8739TIP3    H150412   3.591   2.247   1.168  2.1796  2.1023  0.7755
 8739TIP3    H250413   3.640   2.119   1.232  1.0580  1.4670  0.3730
 8740TIP3   OH250414   2.757   0.141   1.702 -0.3833  0.5178  0.5641
 8740TIP3    H150415   2.707   0.198   1.644 -1.8465 -1.1543  0.0931
 8740TIP3    H250416   2.842   0.132   1.660 -0.2257  2.0848  0.5021
 8741TIP3   OH250417   6.388   0.436   1.416  0.0679  0.4429 -0.8913
 8741TIP3    H150418   6.363   0.438   1.508  1.0968 -2.3111 -0.4517
 8741TIP3    H250419   6.314   0.476   1.370 -1.7057 -0.5253  0.9383
 8742TIP3   OH250420   7.071   1.097   1.416 -0.1803  0.8125 -0.4819
 8742TIP3    H150421   7.073   1.189   1.443  0.7623  1.0963 -1.4839
 8742TIP3    H250422   7.077   1.099   1.321 -2.9435 -0.1943 -0.7968
 8743TIP3   OH250423   6.579   2.157   3.677  0.0325  0.3159  0.1162
 8743TIP3    H150424   6.568   2.108   3.758  0.2722  0.7518  0.4213
 8743TIP3    H250425   6.674   2.161   3.664  0.2788  3.1666  1.7045
 8744TIP3   OH250426   4.677   0.004   1.748 -0.8531  0.0370 -0.3919
 8744TIP3    H150427   4.686   0.099   1.753  0.7578 -0.0261 -1.1773
 8744TIP3    H250428   4.652  -0.013   1.657  0.8192 -0.3631 -0.8118
 8745TIP3   OH250429   4.592   6.271   2.439 -0.5838  0.0065  0.4370
 8745TIP3    H150430   4.636   6.356   2.438 -0.9814  0.2207 -0.6505
 8745TIP3    H250431   4.660   6.209   2.465  0.3104  0.3692 -0.9273
 8746TIP3   OH250432   3.752   6.625   2.051 -0.1008  0.5038  0.0758
 8746TIP3    H150433   3.665   6.613   2.089 -0.2735  0.0466 -0.4680
 8746TIP3    H250434   3.765   6.549   1.995  0.4895  0.7696 -0.1523
 8747TIP3   OH250435   5.447   3.124   1.982 -0.3535 -0.3447  0.7862
 8747TIP3    H150436   5.508   3.072   2.034  0.1143 -0.6500 -0.0589
 8747TIP3    H250437   5.434   3.074   1.902  1.1620  1.4395 -0.6610
 8748TIP3   OH250438   0.271   6.430   1.291  0.5711 -0.2989  0.1586
 8748TIP3    H150439   0.265   6.506   1.349  0.0413 -0.7477  0.7181
 8748TIP3    H250440   0.268   6.355   1.351  1.9776 -0.7523 -0.3152
 8749TIP3   OH250441   5.240   0.009   0.698 -0.2278  0.4722 -0.3121
 8749TIP3    H150442   5.271  -0.065   0.647 -1.8546 -0.7497  0.3530
 8749TIP3    H250443   5.293   0.008   0.777 -0.9826 -0.7627  0.2209
 8750TIP3   OH250444   4.780   1.596   1.846 -0.1287 -0.3173 -0.5682
 8750TIP3    H150445   4.711   1.653   1.813  1.5540  2.7834  0.8200
 8750TIP3    H250446   4.749   1.566   1.931  0.3901  1.6166  0.3595
 8751TIP3   OH250447   0.144   3.742   0.849  0.7015  0.3076 -0.8726
 8751TIP3    H150448   0.230   3.714   0.882  0.5323  1.5834  0.7977
 8751TIP3    H250449   0.095   3.661   0.837  1.4606 -0.3237  0.1604
 8752TIP3   OH250450   3.157   0.794   2.477 -0.0384 -0.3227  0.2924
 8752TIP3    H150451   3.172   0.700   2.467 -0.6653 -0.5649  1.5004
 8752TIP3    H250452   3.071   0.809   2.437 -0.1185 -0.3301  0.4628
 8753TIP3   OH250453   5.588   1.659   1.774 -0.1850 -0.3998 -0.4974
 8753TIP3    H150454   5.623   1.570   1.765 -0.7585 -0.5531 -1.3395
 8753TIP3    H250455   5.501   1.646   1.811 -0.3337 -0.1981 -0.7789
 8754TIP3   OH250456   2.159   4.693   2.914 -0.3125 -0.4294  0.1785
 8754TIP3    H150457   2.159   4.781   2.876  0.1455 -0.7409 -0.5649
 8754TIP3    H250458   2.251   4.674   2.932 -0.2699 -1.1925 -0.7293
 8755TIP3   OH250459   2.708   0.609   1.738  0.4139 -0.1955  0.1577
 8755TIP3    H150460   2.785   0.574   1.693 -0.4402 -1.9029 -0.0635
 8755TIP3    H250461   2.682   0.539   1.799 -2.0490 -0.4880 -1.1059
 8756TIP3   OH250462   0.411   2.933   0.890  0.5869  0.0761  0.2539
 8756TIP3    H150463   0.479   2.868   0.910  0.0270 -0.4487  0.4824
 8756TIP3    H250464   0.328   2.886   0.903  0.1800  0.6321 -0.2733
 8757TIP3   OH250465   2.576   7.485   0.712  0.9901 -0.5268 -0.3449
 8757TIP3    H150466   2.662   7.527   0.704  0.2729  0.7505 -2.2426
 8757TIP3    H250467   2.514   7.557   0.712 -0.3026 -1.4502 -3.6806
 8758TIP3   OH250468   3.928   2.796   2.545  0.1943 -0.3489  0.3220
 8758TIP3    H150469   4.006   2.801   2.490 -0.8010 -2.2806 -1.3991
 8758TIP3    H250470   3.938   2.713   2.592 -1.8466 -1.8722 -1.7230
 8759TIP3   OH250471   0.971   2.446   0.999 -0.1725  0.5406 -0.3253
 8759TIP3    H150472   0.941   2.442   1.090 -0.0560 -0.9688 -0.3283
 8759TIP3    H250473   1.065   2.430   1.005 -0.1930  0.2614 -0.7221
 8760TIP3   OH250474   6.806   0.672   2.635 -0.4208 -0.6564 -0.3326
 8760TIP3    H150475   6.890   0.714   2.616  0.1432 -0.5175  2.1571
 8760TIP3    H250476   6.804   0.596   2.577  2.0629 -1.4111  0.4349
 8761TIP3   OH250477   3.537   3.844   1.317 -0.1927  0.4450 -0.1069
 8761TIP3    H150478   3.523   3.917   1.377  0.7501  1.0228 -0.5650
 8761TIP3    H250479   3.542   3.766   1.373  3.0230  1.2182  0.8914
 8762TIP3   OH250480   6.526   1.824   0.645 -0.0779 -0.3236 -0.0997
 8762TIP3    H150481   6.469   1.781   0.709 -0.2021  0.2173  0.1557
 8762TIP3    H250482   6.517   1.917   0.663 -1.9073  0.0273 -2.3357
 8763TIP3   OH250483   3.520   0.683   2.111 -0.0618  0.0449 -0.8030
 8763TIP3    H150484   3.483   0.596   2.096 -1.5801  0.4440  0.3030
 8763TIP3    H250485   3.444   0.741   2.111  0.5837  0.9847  1.0756
 8764TIP3   OH250486   7.124   6.897   6.518  0.5495  0.3213 -0.0509
 8764TIP3    H150487   7.062   6.934   6.581  0.1720  1.4629 -1.0672
 8764TIP3    H250488   7.190   6.965   6.506  0.7485  0.0193 -0.7258
 8765TIP3   OH250489   4.111   3.557   1.743 -0.2705  0.1231  0.3187
 8765TIP3    H150490   4.072   3.470   1.750 -2.3721  1.0184  0.5421
 8765TIP3    H250491   4.179   3.547   1.676 -0.6174 -1.6199  0.1597
 8766TIP3   OH250492   2.391   6.820   1.444 -0.3849  0.2999 -0.2393
 8766TIP3    H150493   2.308   6.773   1.440 -1.1807  1.2143  2.9373
 8766TIP3    H250494   2.456   6.756   1.412 -1.9693 -1.2926 -0.4428
 8767TIP3   OH250495   2.411   7.083   1.536  0.3459 -0.1951 -0.4359
 8767TIP3    H150496   2.431   7.144   1.465 -0.8788  1.0410  0.2093
 8767TIP3    H250497   2.423   6.996   1.499  1.2026  0.4376 -1.6870
 8768TIP3   OH250498   6.916   1.136   2.439 -0.2935  0.7634  0.1406
 8768TIP3    H150499   6.990   1.099   2.486 -1.2115 -0.7812  0.4455
 8768TIP3    H250500   6.908   1.225   2.473 -0.7093 -0.1706  2.7532
 8769TIP3   OH250501   7.475   2.528   1.624 -0.3817 -0.1522 -0.6833
 8769TIP3    H150502   7.418   2.478   1.565 -0.7801  0.5899 -0.9448
 8769TIP3    H250503   7.495   2.467   1.695 -2.0252 -0.2326 -0.2573
 8770TIP3   OH250504   4.460   0.954   3.397 -0.4402 -0.0730  0.6190
 8770TIP3    H150505   4.503   0.882   3.444  0.4526 -0.0243 -0.0933
 8770TIP3    H250506   4.477   0.936   3.305 -0.6935  0.7511  0.4029
 8771TIP3   OH250507   0.714   1.219   3.044 -0.0028  0.1275 -0.4288
 8771TIP3    H150508   0.809   1.211   3.039  0.1020  0.3531  0.8717
 8771TIP3    H250509   0.695   1.227   3.138 -1.3365 -0.2754 -0.6410
 8772TIP3   OH250510   6.208   6.480   1.928  0.0267 -0.0638  0.4778
 8772TIP3    H150511   6.114   6.477   1.910  0.2703  1.4128 -1.4211
 8772TIP3    H250512   6.223   6.409   1.990 -2.3691 -0.1804  1.0100
 8773TIP3   OH250513   7.183   5.011   1.236  0.8851 -0.0167  0.0580
 8773TIP3    H150514   7.278   5.013   1.241  0.9364  0.2145 -0.7783
 8773TIP3    H250515   7.155   4.969   1.317  1.5925  1.6232  1.1897
 8774TIP3   OH250516   6.128   4.007   1.353 -0.0736 -0.3478 -0.2916
 8774TIP3    H150517   6.054   4.000   1.414  0.7345  1.4461  0.9868
 8774TIP3    H250518   6.203   3.974   1.402  0.0770 -1.9181 -1.4950
 8775TIP3   OH250519   7.098   0.478   0.595  0.3938 -0.1944  0.3077
 8775TIP3    H150520   7.056   0.480   0.509  0.5002 -0.9564  0.2300
 8775TIP3    H250521   7.118   0.386   0.609  1.0492  0.0210  0.8263
 8776TIP3   OH250522   1.965   1.678   8.068 -0.0906  0.1998  0.3070
 8776TIP3    H150523   2.026   1.671   8.142  1.7827 -0.0901 -1.2099
 8776TIP3    H250524   1.958   1.589   8.034 -1.7648  0.1412  0.7187
 8777TIP3   OH250525   2.590   6.867   1.765  0.3586 -0.3185 -0.5561
 8777TIP3    H150526   2.521   6.801   1.756  0.2300 -0.2070 -0.3757
 8777TIP3    H250527   2.593   6.910   1.679 -0.7900  0.6604 -0.1252
 8778TIP3   OH250528   5.896   7.157   0.822 -0.3431 -0.1149  0.3435
 8778TIP3    H150529   5.805   7.130   0.828 -0.0855 -0.8765  0.9529
 8778TIP3    H250530   5.947   7.076   0.830  0.4226  0.4515  1.5075
 8779TIP3   OH250531   5.209   2.323   2.622 -0.3728 -0.3801  0.3118
 8779TIP3    H150532   5.245   2.411   2.630 -4.2295  1.3507  1.1649
 8779TIP3    H250533   5.162   2.324   2.538 -0.4801 -1.6424  0.3358
 8780TIP3   OH250534   4.016   4.358   0.493  0.1535 -0.2403  0.1129
 8780TIP3    H150535   4.002   4.440   0.446  1.6516  0.2693  0.4994
 8780TIP3    H250536   4.098   4.371   0.541 -1.4047 -0.5759  3.1589
 8781TIP3   OH250537   7.172   7.391   2.342  0.5434 -0.4924  0.0181
 8781TIP3    H150538   7.224   7.339   2.280  0.2686 -0.4487 -0.2516
 8781TIP3    H250539   7.083   7.355   2.335  0.4919 -0.4302  0.3251
 8782TIP3   OH250540   1.638   3.382   2.089  0.4990  0.4161 -0.6346
 8782TIP3    H150541   1.665   3.434   2.165 -0.6460  1.2549 -0.7795
 8782TIP3    H250542   1.673   3.429   2.014 -0.5311  0.9999 -0.7658
 8783TIP3   OH250543   1.532   5.856   0.554 -0.5955  0.1963 -0.5022
 8783TIP3    H150544   1.494   5.910   0.624  1.0903  2.1469 -1.0131
 8783TIP3    H250545   1.616   5.827   0.588  0.8265  2.1983 -2.0641
 8784TIP3   OH250546   3.146   7.595   1.675 -0.2117 -0.4481 -0.6294
 8784TIP3    H150547   3.216   7.620   1.735  0.6471 -1.8589 -1.0039
 8784TIP3    H250548   3.157   7.655   1.600 -0.9871  0.9876  0.3639
 8785TIP3   OH250549   6.613   0.427   1.672  0.5524  0.5620 -0.3026
 8785TIP3    H150550   6.645   0.368   1.739  0.6995  1.4262  0.4139
 8785TIP3    H250551   6.518   0.422   1.679  0.5656  0.9032  0.2230
 8786TIP3   OH250552   1.165   1.954   0.806  0.3723  0.1184  0.0616
 8786TIP3    H150553   1.189   1.952   0.713  1.1533  0.4290  0.2469
 8786TIP3    H250554   1.208   1.877   0.844 -0.0005 -0.0452  0.1537
 8787TIP3   OH250555   3.055   1.657   2.843 -0.4431  0.0224 -0.3966
 8787TIP3    H150556   2.989   1.626   2.780 -1.4807 -1.3087  1.2569
 8787TIP3    H250557   3.114   1.583   2.854  1.4416  1.2024 -1.8549
 8788TIP3   OH250558   3.028   0.173   1.599 -0.3290 -0.3944  0.6869
 8788TIP3    H150559   3.056   0.207   1.685  0.4915  0.1414  0.2226
 8788TIP3    H250560   3.059   0.238   1.537 -0.8674 -0.8154 -0.0315
 8789TIP3   OH250561   3.455   0.429   2.081  0.3940  0.0321  0.0950
 8789TIP3    H150562   3.507   0.360   2.121 -0.0491 -0.9542 -0.9621
 8789TIP3    H250563   3.364   0.401   2.095  0.2114 -0.7748 -2.1773
 8790TIP3   OH250564   6.958   1.085   2.157 -0.3065 -0.1087  0.6538
 8790TIP3    H150565   6.971   1.130   2.240 -0.0947 -0.0078  0.5661
 8790TIP3    H250566   6.982   0.994   2.175 -0.4330 -0.1232  0.7498
 8791TIP3   OH250567   0.073   1.665   2.313 -0.6728 -0.2212 -0.0422
 8791TIP3    H150568   0.167   1.645   2.307 -0.9412 -1.2543 -4.0071
 8791TIP3    H250569   0.038   1.598   2.372  0.9707 -0.2025  1.0113
 8792TIP3   OH250570   5.678   4.199   2.330 -0.2159 -1.0089  0.2615
 8792TIP3    H150571   5.628   4.276   2.301 -0.1517 -0.5838  1.2494
 8792TIP3    H250572   5.705   4.220   2.419  0.3496 -1.9196  0.3159
 8793TIP3   OH250573   4.902   0.641   1.682  0.7447 -0.6381 -0.6214
 8793TIP3    H150574   4.923   0.620   1.773 -0.7229  1.8764  0.4060
 8793TIP3    H250575   4.982   0.679   1.647  1.1735 -1.1920 -0.2726
 8794TIP3   OH250576   3.636   2.901   2.130  0.4758 -0.2479  0.3418
 8794TIP3    H150577   3.628   2.958   2.206  2.4190  1.1511 -0.4056
 8794TIP3    H250578   3.647   2.813   2.166 -0.1186  0.1776  1.6064
 8795TIP3   OH250579   6.562   3.974   2.473 -0.4747 -0.1187 -0.1507
 8795TIP3    H150580   6.531   4.047   2.527 -3.7093 -0.5911 -1.1310
 8795TIP3    H250581   6.631   3.933   2.525  1.4393  3.4885  0.4780
 8796TIP3   OH250582   0.529   2.324   1.087 -0.0739  0.3547 -0.2178
 8796TIP3    H150583   0.608   2.318   1.033  0.5767 -0.3788  0.7753
 8796TIP3    H250584   0.460   2.354   1.026  0.8971  0.7627 -1.1524
 8797TIP3   OH250585   2.191   4.884   2.088  0.9652 -0.3378 -0.1375
 8797TIP3    H150586   2.154   4.849   2.007  0.5409  1.5877 -0.8305
 8797TIP3    H250587   2.122   4.938   2.125  2.3772  1.7987 -0.4616
 8798TIP3   OH250588   7.117   3.856   1.004  0.1992  0.2894  0.3958
 8798TIP3    H150589   7.135   3.813   1.088  0.2540  1.9047  1.2423
 8798TIP3    H250590   7.022   3.867   1.003  0.2119  0.3892  0.3064
 8799TIP3   OH250591   0.131   6.676   0.879  0.1085  0.4591  0.2798
 8799TIP3    H150592   0.063   6.618   0.846 -0.8273  1.8267 -0.2438
 8799TIP3    H250593   0.208   6.655   0.825 -0.7597  1.0415 -1.2430
 8800TIP3   OH250594   7.042   6.814   1.950 -0.4017 -0.5059  0.1421
 8800TIP3    H150595   7.084   6.798   1.866  0.8747 -0.7611  0.8052
 8800TIP3    H250596   6.964   6.757   1.949 -1.4468  0.8440 -1.5721
 8801TIP3   OH250597   7.310   0.402   1.174  0.1564  0.6010 -0.0032
 8801TIP3    H150598   7.292   0.419   1.081  0.2174  0.2442 -0.0841
 8801TIP3    H250599   7.224   0.388   1.213  0.2199 -1.4120 -0.4510
 8802TIP3   OH250600   6.971   6.118   3.178 -0.7511 -0.4860 -0.4312
 8802TIP3    H150601   6.970   6.077   3.265 -1.1143  0.7568  0.1714
 8802TIP3    H250602   7.039   6.186   3.185  0.9651 -1.9475 -1.9078
 8803TIP3   OH250603   3.650   5.578   1.810  0.6322 -0.1404 -0.5298
 8803TIP3    H150604   3.629   5.621   1.727  0.7821  1.4037  0.1884
 8803TIP3    H250605   3.726   5.627   1.843 -0.8643  0.8662  1.6188
 8804TIP3   OH250606   4.407   2.291   0.755  0.1925  0.1126  0.0661
 8804TIP3    H150607   4.425   2.197   0.760  0.2104  0.0803 -0.6020
 8804TIP3    H250608   4.492   2.332   0.742  0.1614  0.2132  0.1692
 8805TIP3   OH250609   5.255   0.359   2.066 -0.0505  0.3535 -0.0687
 8805TIP3    H150610   5.314   0.320   2.130  0.3740  0.5414 -0.3419
 8805TIP3    H250611   5.176   0.305   2.070  1.0490 -1.4916 -1.5010
 8806TIP3   OH250612   2.579   0.147   2.800 -0.6538  0.2637 -0.5842
 8806TIP3    H150613   2.528   0.158   2.881  0.5194  0.7403  0.1163
 8806TIP3    H250614   2.574   0.053   2.781 -0.1572 -0.0168  0.5806
 8807TIP3   OH250615   0.773   4.212   1.499  0.1688 -0.1727 -0.0898
 8807TIP3    H150616   0.811   4.261   1.426 -1.0530  0.3990 -0.3537
 8807TIP3    H250617   0.777   4.121   1.470  0.8706 -0.0843 -0.3116
 8808TIP3   OH250618   1.011   5.686   0.536  0.3204 -0.0387 -0.4518
 8808TIP3    H150619   1.010   5.737   0.455 -1.4820  0.2278 -0.3061
 8808TIP3    H250620   0.993   5.751   0.604 -1.3289 -0.7260 -0.1966
 8809TIP3   OH250621   1.133   2.827   1.862  0.5502  0.1537  0.2496
 8809TIP3    H150622   1.051   2.856   1.903 -0.3003 -2.3736  0.5347
 8809TIP3    H250623   1.201   2.855   1.922 -0.2227  1.1961  0.6677
 8810TIP3   OH250624   0.548   7.204   2.277  0.0217  0.2851  0.1642
 8810TIP3    H150625   0.594   7.176   2.357  1.8438  1.1173 -0.5192
 8810TIP3    H250626   0.616   7.200   2.209 -1.6307 -0.9779 -1.4906
 8811TIP3   OH250627   2.985   6.415   1.604  0.0099 -0.2879  0.2670
 8811TIP3    H150628   2.958   6.407   1.512  1.1929 -0.1975 -0.1080
 8811TIP3    H250629   2.968   6.328   1.641  1.8151 -1.1067 -0.7056
 8812TIP3   OH250630   7.378   7.484   1.807 -0.0327 -0.5634  0.1501
 8812TIP3    H150631   7.368   7.404   1.756  0.4671 -0.0120 -0.8657
 8812TIP3    H250632   7.415   7.547   1.744 -0.2552  0.4053  0.9655
 8813TIP3   OH250633   5.650   5.322   0.825  0.3946 -0.1125 -0.0813
 8813TIP3    H150634   5.662   5.251   0.762  1.1929  0.2253 -0.3209
 8813TIP3    H250635   5.573   5.370   0.793  0.5338 -0.2012 -0.5522
 8814TIP3   OH250636   1.821   4.720   1.544 -0.0382 -0.1517 -0.0670
 8814TIP3    H150637   1.800   4.727   1.637 -0.1162 -0.2261 -0.0787
 8814TIP3    H250638   1.890   4.653   1.539 -1.8029 -2.0678 -0.3074
 8815TIP3   OH250639   4.123   5.952   2.647 -0.1587  0.0340 -0.0272
 8815TIP3    H150640   4.208   5.912   2.628  0.3027  1.3915 -0.9912
 8815TIP3    H250641   4.066   5.878   2.670  1.0055 -1.0077 -0.3959
 8816TIP3   OH250642   6.490   0.173   3.206  0.2047  0.3620  0.6874
 8816TIP3    H150643   6.462   0.144   3.294 -2.3502 -0.1315 -0.1942
 8816TIP3    H250644   6.586   0.173   3.210  0.1998 -1.4293  2.9213
 8817TIP3   OH250645   4.395   0.523   2.314  0.1465 -0.1264  0.8565
 8817TIP3    H150646   4.455   0.568   2.374 -2.2504  2.1313  1.7799
 8817TIP3    H250647   4.391   0.580   2.237 -0.9969 -0.0376  0.9582
 8818TIP3   OH250648   5.306   6.487   2.624 -0.3116  0.3513 -0.1462
 8818TIP3    H150649   5.347   6.408   2.660 -0.6892  0.8640  1.5004
 8818TIP3    H250650   5.379   6.542   2.597  0.0638  0.5032  1.1017
 8819TIP3   OH250651   2.071   1.494   3.290  0.3041  0.0221 -0.0918
 8819TIP3    H150652   1.995   1.553   3.296 -0.3564 -0.7264 -0.8546
 8819TIP3    H250653   2.049   1.421   3.348  0.7600  0.1256  0.2170
 8820TIP3   OH250654   7.465   4.394   1.248  0.6998  0.2145  0.1452
 8820TIP3    H150655   7.499   4.393   1.337 -0.2077  0.5754  0.5143
 8820TIP3    H250656   7.518   4.460   1.203 -1.9105  3.8216  1.7838
 8821TIP3   OH250657   5.059   2.570   1.776  0.1549 -0.4788  0.4490
 8821TIP3    H150658   4.970   2.548   1.806  0.1792 -0.3768  0.6013
 8821TIP3    H250659   5.106   2.591   1.857 -0.0541  0.7768  0.2635
 8822TIP3   OH250660   3.597   5.644   2.093 -0.4645  0.1260 -0.3247
 8822TIP3    H150661   3.599   5.568   2.036 -0.4106  0.9433 -1.4531
 8822TIP3    H250662   3.550   5.711   2.043  2.1562  1.8399 -0.6873
 8823TIP3   OH250663   0.370   5.522   1.757 -0.3773  0.9056 -0.4870
 8823TIP3    H150664   0.423   5.526   1.677 -0.2395 -0.0616 -0.4525
 8823TIP3    H250665   0.296   5.467   1.733  0.5200 -0.8187  0.5186
 8824TIP3   OH250666   7.335   6.215   2.539  0.2674  0.4901  0.1518
 8824TIP3    H150667   7.399   6.279   2.569  0.2761  0.8243 -0.5564
 8824TIP3    H250668   7.252   6.244   2.578  0.5059  0.1724  0.9027
 8825TIP3   OH250669   2.374   5.353   2.540  0.0942  0.1279  0.1888
 8825TIP3    H150670   2.347   5.390   2.624  1.8440  2.5005 -0.1753
 8825TIP3    H250671   2.456   5.307   2.560  0.9920  1.4585 -0.3155
 8826TIP3   OH250672   1.225   4.354   2.767  0.3825  0.4957  0.4768
 8826TIP3    H150673   1.183   4.437   2.745  0.0319 -0.4879 -3.2165
 8826TIP3    H250674   1.315   4.363   2.736  0.9639  0.1772  1.9901
 8827TIP3   OH250675   2.887   0.887   1.435 -0.0672 -0.0694  0.3198
 8827TIP3    H150676   2.815   0.864   1.377  0.8024  1.9158 -1.6916
 8827TIP3    H250677   2.851   0.955   1.493  0.0364  0.6111 -0.3989
 8828TIP3   OH250678   0.450   2.853   1.436 -0.3604 -0.7571  0.3715
 8828TIP3    H150679   0.390   2.925   1.416 -2.2230 -2.1169  0.7963
 8828TIP3    H250680   0.433   2.832   1.528  1.2865 -0.7705  0.7154
 8829TIP3   OH250681   5.117   2.016   1.875  0.0561  0.1476  0.0889
 8829TIP3    H150682   5.089   2.089   1.930 -1.7640 -1.1297  0.9405
 8829TIP3    H250683   5.156   2.058   1.798 -2.0058  2.0653 -0.0215
 8830TIP3   OH250684   7.404   1.924   2.217  0.4204  0.0251 -0.1214
 8830TIP3    H150685   7.460   1.851   2.189  2.1933  0.8564  1.0773
 8830TIP3    H250686   7.322   1.882   2.243  0.9848 -1.4057 -0.5344
 8831TIP3   OH250687   3.025   7.673   2.013 -0.1366  0.0690 -0.2369
 8831TIP3    H150688   2.936   7.709   2.005 -0.2736 -0.4010 -0.8674
 8831TIP3    H250689   3.012   7.579   2.019  0.3551 -0.0434 -0.9436
 8832TIP3   OH250690   7.234   2.948   1.894  0.2511  0.1053 -0.2786
 8832TIP3    H150691   7.306   2.999   1.857 -0.5604  1.0038 -0.6743
 8832TIP3    H250692   7.181   2.922   1.819 -0.4002  0.3515  0.0807
 8833TIP3   OH250693   2.103   5.259   2.492  0.2686 -0.4788  0.3375
 8833TIP3    H150694   2.168   5.322   2.520 -0.8145  0.3512  1.0850
 8833TIP3    H250695   2.041   5.309   2.440  0.0686 -1.1872 -0.1228
 8834TIP3   OH250696   6.685   0.739   3.188 -0.2248  0.1714  0.6195
 8834TIP3    H150697   6.641   0.773   3.266 -1.3571  0.1141  0.0186
 8834TIP3    H250698   6.652   0.650   3.178 -1.6719  0.8530 -1.0634
 8835TIP3   OH250699   4.548   0.188   0.820  0.2075  0.2470  0.1013
 8835TIP3    H150700   4.584   0.273   0.842  0.6412  0.3838 -1.0598
 8835TIP3    H250701   4.623   0.129   0.817 -0.0076 -0.0421  0.2864
 8836TIP3   OH250702   3.130   5.539   1.240 -0.0394  0.5661 -0.6019
 8836TIP3    H150703   3.098   5.592   1.167  1.6820  1.4611 -0.7687
 8836TIP3    H250704   3.197   5.593   1.281  0.2678 -0.6446  0.5603
 8837TIP3   OH250705   2.041   2.394   1.881  0.0201  0.1035 -0.0555
 8837TIP3    H150706   2.131   2.399   1.851 -0.0426  2.5761  0.0231
 8837TIP3    H250707   2.048   2.386   1.977  0.2465  3.9132  0.3681
 8838TIP3   OH250708   2.310   3.416   1.910 -0.0675  0.0165  0.1339
 8838TIP3    H150709   2.353   3.349   1.857  0.3647 -0.2609  0.8247
 8838TIP3    H250710   2.231   3.438   1.861 -0.3465 -1.1788  0.0001
 8839TIP3   OH250711   1.286   6.851   0.785 -0.1339 -0.5063  0.2171
 8839TIP3    H150712   1.221   6.909   0.745 -0.2998 -1.1920 -0.5296
 8839TIP3    H250713   1.272   6.861   0.879  0.0445  0.8905  0.1125
 8840TIP3   OH250714   2.080   5.398   3.387 -0.0517 -0.0344  0.4546
 8840TIP3    H150715   2.001   5.345   3.400  0.3771 -0.6372  0.6557
 8840TIP3    H250716   2.138   5.342   3.336 -0.0531  0.7028 -0.3820
 8841TIP3   OH250717   6.124   2.756   3.394 -0.1692 -0.3394  0.2527
 8841TIP3    H150718   6.210   2.774   3.356 -0.3821  0.5102  0.1407
 8841TIP3    H250719   6.062   2.799   3.336 -0.5085  0.8564  1.4272
 8842TIP3   OH250720   5.273   7.406   2.892  0.2972  0.1944  0.2400
 8842TIP3    H150721   5.204   7.466   2.864  1.8809  2.1705  0.3038
 8842TIP3    H250722   5.257   7.393   2.985 -0.5236 -0.1178  0.0575
 8843TIP3   OH250723   4.174   6.107   1.714  0.5550 -0.3076 -0.0729
 8843TIP3    H150724   4.206   6.040   1.776  0.1946 -1.4095 -1.0417
 8843TIP3    H250725   4.096   6.067   1.675  0.5217  0.5665 -0.9092
 8844TIP3   OH250726   1.323   0.015   1.764 -0.5713  0.2173  0.0351
 8844TIP3    H150727   1.256  -0.037   1.808 -0.0434 -0.2016  0.3583
 8844TIP3    H250728   1.398  -0.044   1.757 -0.5211  0.3933 -1.1099
 8845TIP3   OH250729   1.015   1.799   2.539  0.4460 -0.1779 -0.3275
 8845TIP3    H150730   1.067   1.842   2.606  1.0718 -1.5434  0.1083
 8845TIP3    H250731   0.925   1.822   2.560  0.6004 -0.8799  1.2469
 8846TIP3   OH250732   5.787   3.071   0.870 -0.6884  0.2442 -0.1069
 8846TIP3    H150733   5.848   3.005   0.901  1.1011 -0.1133 -3.8434
 8846TIP3    H250734   5.712   3.021   0.837 -1.5174  0.4638  1.3762
 8847TIP3   OH250735   6.286   1.597   2.272 -0.3906 -0.1961 -0.4221
 8847TIP3    H150736   6.325   1.675   2.313  0.0651  0.5650 -2.2116
 8847TIP3    H250737   6.263   1.626   2.184 -1.8437 -1.6242 -0.5514
 8848TIP3   OH250738   3.277   7.269   2.430  0.3255 -0.6970  0.3791
 8848TIP3    H150739   3.282   7.296   2.522  1.3861 -1.1984  0.4739
 8848TIP3    H250740   3.323   7.338   2.383 -0.4432 -0.3037  0.1731
 8849TIP3   OH250741   2.556   2.285   0.876 -0.3686 -0.1769  0.0125
 8849TIP3    H150742   2.579   2.367   0.831 -2.4161 -0.0189 -0.8701
 8849TIP3    H250743   2.546   2.310   0.967  1.3487  0.0298  0.1816
 8850TIP3   OH250744   3.099   2.894   0.477 -0.1964  0.1307  0.1381
 8850TIP3    H150745   3.190   2.875   0.456 -0.0255  0.7141  0.3325
 8850TIP3    H250746   3.091   2.990   0.469 -0.8982  0.0434 -0.3071
 8851TIP3   OH250747   5.876   1.664   3.854  0.3742 -0.3616  0.6964
 8851TIP3    H150748   5.795   1.696   3.892  0.3159  0.7906 -0.3465
 8851TIP3    H250749   5.852   1.639   3.764  1.2920  0.6042  0.1640
 8852TIP3   OH250750   4.176   1.243   1.307  0.6421 -0.2866  0.2449
 8852TIP3    H150751   4.147   1.317   1.254  1.6976  0.6729  0.9751
 8852TIP3    H250752   4.233   1.281   1.373  0.1288 -1.5829  1.4853
 8853TIP3   OH250753   7.198   6.012   0.694 -0.1072  0.6176  0.1404
 8853TIP3    H150754   7.202   5.933   0.747 -1.8261  0.7440  0.4979
 8853TIP3    H250755   7.195   5.980   0.603 -2.1979  0.1801  0.3246
 8854TIP3   OH250756   4.918   2.473   3.197 -0.5502  0.1895 -0.0295
 8854TIP3    H150757   4.954   2.487   3.109  1.2328  0.5899  0.7269
 8854TIP3    H250758   4.951   2.547   3.248 -0.3792 -0.7910  1.3200
 8855TIP3   OH250759   0.060   7.401   1.673 -0.2534  0.0576 -0.9172
 8855TIP3    H150760   0.085   7.314   1.643  0.4034 -0.9472  2.1787
 8855TIP3    H250761   0.117   7.418   1.748 -0.6124  3.0317 -1.1903
 8856TIP3   OH250762   3.383   7.029   2.674 -0.3041 -0.7899  1.0182
 8856TIP3    H150763   3.292   7.036   2.645 -0.4103  1.3433  1.6860
 8856TIP3    H250764   3.379   7.040   2.769  0.6651 -0.1813  1.0091
 8857TIP3   OH250765   0.204   1.395   2.690 -0.6937 -0.7087  0.3209
 8857TIP3    H150766   0.130   1.370   2.746 -0.1202  0.0473  1.4591
 8857TIP3    H250767   0.277   1.407   2.751  0.0912 -0.3910 -0.6654
 8858TIP3   OH250768   4.376   3.454   1.011  0.0869 -0.0074 -0.1019
 8858TIP3    H150769   4.395   3.548   1.018 -0.7444  0.1852 -0.3639
 8858TIP3    H250770   4.375   3.437   0.916 -0.7357 -0.0797 -0.0813
 8859TIP3   OH250771   3.991   2.283   2.311  0.4265  0.2617 -0.1983
 8859TIP3    H150772   3.916   2.232   2.279  0.8929 -1.1917  0.8759
 8859TIP3    H250773   4.067   2.231   2.287  0.9784  0.8447  0.2611
 8860TIP3   OH250774   2.351   4.018   2.198 -0.2908  0.0108  0.2402
 8860TIP3    H150775   2.278   4.057   2.150  0.7710 -0.1191 -1.5704
 8860TIP3    H250776   2.321   3.931   2.222 -0.9523  0.1841  0.0525
 8861TIP3   OH250777   1.175   1.996   1.686  0.6517  0.1430 -0.5615
 8861TIP3    H150778   1.184   2.084   1.651  0.0196 -0.1520 -1.5191
 8861TIP3    H250779   1.264   1.968   1.706  0.8141  1.1532  0.1622
 8862TIP3   OH250780   0.879   7.146   0.598  0.1326 -0.4950 -0.2895
 8862TIP3    H150781   0.792   7.113   0.575  0.1780 -1.0364  0.3005
 8862TIP3    H250782   0.879   7.236   0.565 -1.0493 -0.1170  0.6463
 8863TIP3   OH250783   0.099   3.389   2.203 -0.2073  0.2053 -0.3938
 8863TIP3    H150784   0.111   3.439   2.284  1.8080 -0.2330 -0.3868
 8863TIP3    H250785   0.085   3.457   2.136  2.0379  0.8273 -0.3070
 8864TIP3   OH250786   2.968   3.604   0.861  0.0167  0.5608 -0.2812
 8864TIP3    H150787   3.012   3.676   0.816 -0.7646  0.3341 -1.4420
 8864TIP3    H250788   2.881   3.601   0.823 -0.5466  0.0941  0.9879
 8865TIP3   OH250789   4.906   6.969   3.188 -0.8417  0.6681 -0.2289
 8865TIP3    H150790   4.818   6.932   3.201 -0.5044 -0.7249 -1.5845
 8865TIP3    H250791   4.929   6.945   3.098  1.8392 -1.0443  0.7878
 8866TIP3   OH250792   5.178   6.963   2.856 -0.2884  0.3844  0.1989
 8866TIP3    H150793   5.182   6.917   2.939 -0.4664 -0.8597 -0.4667
 8866TIP3    H250794   5.224   6.906   2.794  1.0171  1.9055 -0.3058
 8867TIP3   OH250795   1.990   0.416   1.653  0.5117  0.0859  0.1846
 8867TIP3    H150796   1.902   0.451   1.638  0.6100 -0.5356 -2.1003
 8867TIP3    H250797   1.978   0.322   1.658  1.1761 -0.1349 -1.6183
 8868TIP3   OH250798   5.092   2.711   2.544 -0.2760  0.7619 -0.0519
 8868TIP3    H150799   5.096   2.806   2.532 -2.0216  0.9653  0.6841
 8868TIP3    H250800   5.184   2.684   2.550  0.2737  2.2950 -0.9597
 8869TIP3   OH250801   2.663   3.059   1.121 -0.2145 -0.0662 -0.3059
 8869TIP3    H150802   2.710   2.978   1.102 -0.6340 -0.2062 -0.7804
 8869TIP3    H250803   2.659   3.064   1.216  0.3375 -0.2980 -0.2706
 8870TIP3   OH250804   4.283   7.478   2.845  0.6548  0.1045 -0.3825
 8870TIP3    H150805   4.205   7.468   2.900  1.2942 -0.1941  0.4891
 8870TIP3    H250806   4.350   7.511   2.904  1.4577 -0.5501 -0.9046
 8871TIP3   OH250807   5.824   0.086   0.843 -0.6139 -0.1375  0.6016
 8871TIP3    H150808   5.906   0.043   0.867  0.4825  2.3912  1.7582
 8871TIP3    H250809   5.774   0.089   0.924 -0.4584  1.1007  0.6785
 8872TIP3   OH250810   2.831   7.131   0.738  0.3692  0.0428  0.0320
 8872TIP3    H150811   2.822   7.046   0.697 -0.1433  0.8756 -1.6646
 8872TIP3    H250812   2.923   7.153   0.729 -0.0583  1.0893 -2.6174
 8873TIP3   OH250813   3.459   2.808   2.774  0.1381  0.8175  0.2541
 8873TIP3    H150814   3.407   2.820   2.854 -1.7183 -1.4239 -0.5090
 8873TIP3    H250815   3.532   2.752   2.801  1.6478  3.0512  1.0834
 8874TIP3   OH250816   1.125   6.225   2.229  0.1724  0.2549 -0.4472
 8874TIP3    H150817   1.160   6.158   2.171  0.1751  0.3277 -0.5300
 8874TIP3    H250818   1.197   6.243   2.290  1.1499  2.0423 -2.0085
 8875TIP3   OH250819   5.940   5.140   1.790 -0.0716  0.4223 -0.1881
 8875TIP3    H150820   5.864   5.153   1.846 -0.7283  1.1336 -1.2095
 8875TIP3    H250821   5.919   5.186   1.709  1.8997  1.6342 -0.0920
 8876TIP3   OH250822   3.850   3.570   0.752 -0.1344  0.3278 -0.2428
 8876TIP3    H150823   3.794   3.497   0.726  0.3626 -0.9505  2.0047
 8876TIP3    H250824   3.789   3.637   0.783 -0.5469 -0.8862  1.7808
 8877TIP3   OH250825   2.815   6.631   0.591  0.3582  0.8082  0.2395
 8877TIP3    H150826   2.722   6.625   0.567  0.8141  0.8412 -1.6627
 8877TIP3    H250827   2.815   6.677   0.675 -1.2960  1.7197 -0.2173
 8878TIP3   OH250828   0.902   7.293   2.591 -0.3914  0.2530  0.0643
 8878TIP3    H150829   0.916   7.215   2.644  0.6507 -0.7279 -1.5441
 8878TIP3    H250830   0.828   7.338   2.632 -1.2501 -1.7562  0.8349
 8879TIP3   OH250831   0.158   1.471   1.613 -0.1053  0.2863 -0.3313
 8879TIP3    H150832   0.165   1.421   1.695  0.1715  1.0069  0.0927
 8879TIP3    H250833   0.065   1.470   1.592  0.0192 -1.3430 -0.9283
 8880TIP3   OH250834   0.216   7.319   2.429 -0.3074 -0.3387 -0.1350
 8880TIP3    H150835   0.192   7.244   2.374 -3.1661  0.0392  0.4156
 8880TIP3    H250836   0.210   7.286   2.519 -0.2275  0.1788  0.0638
 8881TIP3   OH250837   4.302   2.036   1.707  0.1537 -0.1093 -0.4875
 8881TIP3    H150838   4.321   2.022   1.614 -1.5895  3.4471 -1.5550
 8881TIP3    H250839   4.386   2.064   1.744  0.2862  1.1538 -1.6677
 8882TIP3   OH250840   2.520   5.348   1.621 -0.4972  0.0388 -0.3060
 8882TIP3    H150841   2.494   5.287   1.691 -0.8087 -2.5883 -2.5262
 8882TIP3    H250842   2.615   5.351   1.626 -0.4430 -0.9973 -0.3653
 8883TIP3   OH250843   7.173   1.662   1.868  0.2628  0.2487  0.7135
 8883TIP3    H150844   7.123   1.581   1.852  0.5975 -0.2620  2.1173
 8883TIP3    H250845   7.264   1.632   1.874  0.8150  1.1635 -1.7885
 8884TIP3   OH250846   1.445   6.545   2.362 -0.0210 -0.3772  0.0845
 8884TIP3    H150847   1.382   6.521   2.429 -0.6146 -0.2834 -0.4312
 8884TIP3    H250848   1.530   6.519   2.398 -0.3945 -0.8955  0.5997
 8885TIP3   OH250849   2.101   5.485   1.710 -0.1360  0.1741  0.1817
 8885TIP3    H150850   2.071   5.468   1.621  1.7888 -0.5438 -0.3911
 8885TIP3    H250851   2.105   5.398   1.751  1.2387  0.2168  0.1764
 8886TIP3   OH250852   4.349   2.767   1.473  0.2566 -0.0140  0.4710
 8886TIP3    H150853   4.318   2.677   1.485  0.6047 -0.4224 -1.4400
 8886TIP3    H250854   4.404   2.783   1.550  2.2371 -2.3662 -0.2877
 8887TIP3   OH250855   5.866   2.091   1.303  0.0958  0.5312  0.6509
 8887TIP3    H150856   5.838   2.144   1.378 -0.3490  0.3397  0.6234
 8887TIP3    H250857   5.810   2.014   1.306  0.5516  0.1884  0.5280
 8888TIP3   OH250858   6.182   0.922   1.721  0.1241 -0.2185  0.7205
 8888TIP3    H150859   6.229   1.004   1.736  2.4651 -1.4960  1.0127
 8888TIP3    H250860   6.174   0.883   1.808 -2.0227  0.1694  0.7449
 8889TIP3   OH250861   1.426   3.146   1.714 -0.2195 -0.6278 -0.4890
 8889TIP3    H150862   1.334   3.125   1.700 -0.2004 -0.2496 -1.2745
 8889TIP3    H250863   1.470   3.061   1.717 -0.4793 -0.7869 -1.0499
 8890TIP3   OH250864   1.165   5.130   0.531 -0.6500  0.5853 -0.0382
 8890TIP3    H150865   1.208   5.216   0.529 -0.3948  0.5094  1.4392
 8890TIP3    H250866   1.231   5.070   0.497 -0.3944  0.7972  0.0771
 8891TIP3   OH250867   2.078   6.583   2.335  0.1248 -0.4601  0.3242
 8891TIP3    H150868   2.067   6.667   2.379  0.9961 -0.4421  0.5110
 8891TIP3    H250869   2.065   6.602   2.242 -0.3649 -0.2514  0.4333
 8892TIP3   OH250870   7.462   2.102   0.795  0.4979 -0.0845 -0.0630
 8892TIP3    H150871   7.534   2.122   0.735 -0.9565 -0.7285 -2.1074
 8892TIP3    H250872   7.503   2.048   0.863  2.0046 -0.2474 -1.0434
 8893TIP3   OH250873   1.782   0.789   1.522  0.5895 -0.1330 -0.1509
 8893TIP3    H150874   1.725   0.807   1.447  0.8023  0.5348 -0.1579
 8893TIP3    H250875   1.810   0.699   1.509  0.1321 -0.2242 -0.5469
 8894TIP3   OH250876   5.933   5.316   0.753 -0.1801  0.3259 -0.0976
 8894TIP3    H150877   5.916   5.230   0.793 -0.6235  0.1112 -0.7186
 8894TIP3    H250878   5.847   5.359   0.755  0.0238  0.7224  0.1264
 8895TIP3   OH250879   6.445   3.153   2.362 -0.0120 -0.1225  0.4081
 8895TIP3    H150880   6.412   3.216   2.298  0.8070  1.4186  1.4191
 8895TIP3    H250881   6.373   3.141   2.424 -0.3685 -0.6366 -0.1010
 8896TIP3   OH250882   6.153   3.076   0.999 -0.2399  0.2905 -0.1658
 8896TIP3    H150883   6.136   3.168   0.979  0.6150  0.6266  0.5526
 8896TIP3    H250884   6.069   3.032   0.988 -0.7747  1.2608 -0.0063
 8897TIP3   OH250885   1.102   4.032   1.194  0.8645  0.6707 -0.0944
 8897TIP3    H150886   1.190   4.059   1.219  0.1213  3.3762 -0.0879
 8897TIP3    H250887   1.079   4.091   1.122  0.0201 -1.7742 -1.9555
 8898TIP3   OH250888   3.017   4.120   1.193 -0.0174  0.6311 -0.5274
 8898TIP3    H150889   3.004   4.031   1.224  1.2278  0.1309 -1.3480
 8898TIP3    H250890   3.109   4.139   1.212 -0.2498  1.7076 -0.4307
 8899TIP3   OH250891   2.278   3.221   2.900  0.6641  0.1455  0.0628
 8899TIP3    H150892   2.328   3.194   2.977  1.6812 -2.7726 -1.4637
 8899TIP3    H250893   2.345   3.244   2.835 -0.0731  0.1721 -0.7100
 8900TIP3   OH250894   0.801   1.964   2.602  0.0578  0.6681  0.5682
 8900TIP3    H150895   0.733   1.971   2.535 -1.2303 -1.1108  1.6123
 8900TIP3    H250896   0.794   2.046   2.652 -1.4381  0.4524  0.7445
 8901TIP3   OH250897   6.739   1.245   2.880  0.2704  0.5874 -0.0193
 8901TIP3    H150898   6.748   1.155   2.912  2.5622  0.9534  0.5279
 8901TIP3    H250899   6.710   1.295   2.956 -3.6399  0.0371 -0.8946
 8902TIP3   OH250900   4.796   0.115   1.078  0.3777 -0.5464 -0.3435
 8902TIP3    H150901   4.811   0.198   1.123 -0.2714 -0.6978  0.1615
 8902TIP3    H250902   4.793   0.138   0.985  1.3962 -0.1869 -0.3012
 8903TIP3   OH250903   0.932   5.780   2.189  0.1206 -0.1719 -0.4458
 8903TIP3    H150904   0.894   5.702   2.148  0.3911  0.3110 -1.6556
 8903TIP3    H250905   0.857   5.835   2.210  0.0437  0.0691 -1.3398
 8904TIP3   OH250906   4.029   2.196   3.205 -0.4874  0.7575  0.3447
 8904TIP3    H150907   3.952   2.166   3.254 -0.3208  0.6263  0.5279
 8904TIP3    H250908   4.078   2.249   3.268 -0.4569  0.8905  0.2102
 8905TIP3   OH250909   2.874   5.154   0.950  0.6109 -0.0305  0.3501
 8905TIP3    H150910   2.876   5.117   1.039 -0.3304 -0.7202  0.0944
 8905TIP3    H250911   2.919   5.238   0.959 -0.1295  0.2623  1.6565
 8906TIP3   OH250912   2.105   5.587   2.141  0.2760 -0.3130 -0.1734
 8906TIP3    H150913   2.114   5.539   2.058 -0.4343 -0.2295 -0.3024
 8906TIP3    H250914   2.134   5.675   2.121 -0.5208 -0.1197 -0.5133
 8907TIP3   OH250915   2.190   3.713   2.008 -0.7331 -0.5571  0.0164
 8907TIP3    H150916   2.257   3.687   1.944  0.7905  0.9740  0.9130
 8907TIP3    H250917   2.237   3.714   2.092 -1.9574  0.3325  0.7113
 8908TIP3   OH250918   2.197   0.382   1.100 -0.1229 -1.0768  0.0040
 8908TIP3    H150919   2.147   0.401   1.021  0.4935  0.3335 -0.0691
 8908TIP3    H250920   2.189   0.460   1.154  0.4644 -1.5474  0.8037
 8909TIP3   OH250921   1.084   1.636   0.979  0.3506  0.5447 -0.1444
 8909TIP3    H150922   1.042   1.722   0.982 -0.9091 -0.0695  1.0552
 8909TIP3    H250923   1.034   1.587   0.913  0.6193  0.4959 -0.3162
 8910TIP3   OH250924   7.007   5.728   2.355  0.0033  0.0856  0.5650
 8910TIP3    H150925   7.070   5.716   2.425  0.8269 -1.6924 -0.4145
 8910TIP3    H250926   7.046   5.684   2.279 -2.8242 -2.0141  0.1801
 8911TIP3   OH250927   4.069   4.105   2.177  0.0250 -0.0805 -0.0037
 8911TIP3    H150928   4.140   4.042   2.166  1.4699  1.3200  0.8127
 8911TIP3    H250929   4.104   4.170   2.239 -1.4826  1.3654 -0.5864
 8912TIP3   OH250930   1.913   6.750   0.923 -0.1936 -0.0127  0.4430
 8912TIP3    H150931   2.002   6.737   0.890 -1.2200 -0.3969 -2.4557
 8912TIP3    H250932   1.905   6.845   0.931  0.2004  0.0761 -0.1506
 8913TIP3   OH250933   1.880   0.379   1.080  0.0110  1.2298 -0.3797
 8913TIP3    H150934   1.798   0.427   1.067 -0.4964  0.2688 -0.8626
 8913TIP3    H250935   1.946   0.432   1.036 -0.6520  1.1729 -1.4837
 8914TIP3   OH250936   1.606   0.440   2.299 -0.2867 -0.0826  0.1072
 8914TIP3    H150937   1.642   0.528   2.291  1.2233 -0.7243 -0.3786
 8914TIP3    H250938   1.662   0.397   2.363 -0.4545 -0.9775 -0.3399
 8915TIP3   OH250939   3.575   5.807   2.411  0.4493 -0.3066  0.6848
 8915TIP3    H150940   3.506   5.782   2.472  0.0827  0.5722  0.6541
 8915TIP3    H250941   3.541   5.886   2.368  0.8045 -0.7536 -0.4741
 8916TIP3   OH250942   6.916   3.543   3.180 -0.0471  0.7468  0.0088
 8916TIP3    H150943   6.871   3.492   3.247  2.4573  0.8579  1.9176
 8916TIP3    H250944   6.969   3.479   3.133  2.9436  1.3534  2.2749
 8917TIP3   OH250945   5.488   7.176   2.149  0.1143  0.7307  0.0193
 8917TIP3    H150946   5.521   7.259   2.184  0.1056  0.2804  1.1246
 8917TIP3    H250947   5.557   7.145   2.091 -0.1063  1.7636 -0.8281
 8918TIP3   OH250948   4.044   4.940   1.462 -0.0741  0.1897  0.0596
 8918TIP3    H150949   4.102   4.873   1.499  0.6913  0.4737 -0.6115
 8918TIP3    H250950   3.989   4.966   1.536  0.8716  0.1498  0.8071
 8919TIP3   OH250951   4.773   3.152   1.302  0.2448  0.0520 -0.4123
 8919TIP3    H150952   4.766   3.093   1.228 -0.3243  1.1808 -1.2855
 8919TIP3    H250953   4.856   3.129   1.343  1.1062  0.1289 -2.0402
 8920TIP3   OH250954   3.620   0.251   3.265  0.0685  0.6119 -0.4094
 8920TIP3    H150955   3.706   0.228   3.232 -0.1014 -1.0634  0.2021
 8920TIP3    H250956   3.637   0.288   3.352  0.1272 -0.8462  0.2273
 8921TIP3   OH250957   3.481   1.787   1.184 -0.7196 -0.1417 -0.0933
 8921TIP3    H150958   3.406   1.826   1.138 -1.5131 -1.8380 -0.3249
 8921TIP3    H250959   3.467   1.692   1.175  0.1324 -0.5094  1.9999
 8922TIP3   OH250960   1.623   7.429   2.316 -0.1247  0.1054 -0.2477
 8922TIP3    H150961   1.579   7.442   2.401  1.0122  0.8108  0.2507
 8922TIP3    H250962   1.657   7.340   2.320 -1.7835 -0.6015 -0.7957
 8923TIP3   OH250963   6.636   4.130   1.307 -0.1768 -0.1712  0.0876
 8923TIP3    H150964   6.591   4.191   1.365  0.0681  0.4073 -0.3308
 8923TIP3    H250965   6.697   4.083   1.364 -1.1651 -0.8459  0.6308
 8924TIP3   OH250966   0.750   3.943   1.386 -0.7132 -0.1218  1.0728
 8924TIP3    H150967   0.719   3.852   1.386  0.4007 -0.5238  0.2444
 8924TIP3    H250968   0.705   3.983   1.312 -1.7024  0.2049  1.8252
 8925TIP3   OH250969   1.821   5.026   3.174 -0.1922 -0.2421  0.0292
 8925TIP3    H150970   1.741   5.067   3.142 -0.3911  1.1752  2.1733
 8925TIP3    H250971   1.888   5.095   3.167  0.4022 -0.8010  0.0883
 8926TIP3   OH250972   5.619   7.199   2.617  0.9096 -0.4885 -0.3993
 8926TIP3    H150973   5.552   7.266   2.632  0.7605 -0.3760 -1.5061
 8926TIP3    H250974   5.598   7.130   2.679 -0.1851 -0.4125 -0.6734
 8927TIP3   OH250975   2.801   1.337   1.450  0.3198 -0.3323 -0.8478
 8927TIP3    H150976   2.819   1.426   1.479  2.4182 -0.7666 -0.6125
 8927TIP3    H250977   2.765   1.293   1.527 -0.1616  0.1511 -0.7946
 8928TIP3   OH250978   0.445   6.283   0.566 -0.0739  0.0780  0.0827
 8928TIP3    H150979   0.478   6.265   0.654  0.8263 -0.0154 -0.2662
 8928TIP3    H250980   0.468   6.204   0.516  0.5987  0.6663 -0.5549
 8929TIP3   OH250981   7.041   3.666   1.905 -0.2900 -0.3509  0.1200
 8929TIP3    H150982   6.985   3.735   1.941 -0.2373  0.4683 -1.3237
 8929TIP3    H250983   7.000   3.584   1.935 -1.6325  0.2571  0.0078
 8930TIP3   OH250984   3.493   4.733   2.435  0.3041  0.2253 -0.0278
 8930TIP3    H150985   3.553   4.771   2.371 -0.7902  0.2691 -1.0598
 8930TIP3    H250986   3.407   4.771   2.414 -0.5027 -1.4501  0.0396
 8931TIP3   OH250987   2.647   5.905   1.865 -0.7398  0.7377 -0.0901
 8931TIP3    H150988   2.657   5.819   1.823  1.5651  0.6039  0.6026
 8931TIP3    H250989   2.563   5.938   1.832 -1.2269 -1.3581 -1.1149
 8932TIP3   OH250990   2.490   0.023   1.719  0.1885 -0.2117 -0.6872
 8932TIP3    H150991   2.468  -0.065   1.686  0.7141 -0.1584 -1.1953
 8932TIP3    H250992   2.583   0.033   1.699 -0.2180  1.0863 -2.0802
 8933TIP3   OH250993   5.557   1.111   2.771 -0.3006 -0.5584  0.0455
 8933TIP3    H150994   5.604   1.051   2.713  1.3264 -0.7328  1.4735
 8933TIP3    H250995   5.536   1.059   2.848 -0.4826  0.2443  0.5549
 8934TIP3   OH250996   1.675   7.506   1.287 -0.0919 -0.2208 -0.0541
 8934TIP3    H150997   1.704   7.432   1.234  0.9806  0.3470 -0.2924
 8934TIP3    H250998   1.620   7.558   1.228 -1.3408 -1.1156  0.2902
 8935TIP3   OH250999   1.102   5.503   1.033 -0.0796  0.0536 -0.0225
 8935TIP3    H151000   1.136   5.455   0.958  0.3392  0.7647 -0.2899
 8935TIP3    H251001   1.067   5.435   1.091 -2.4264 -0.3913 -1.8199
 8936TIP3   OH251002   0.520   0.086   2.272 -0.2481  0.5345  0.0408
 8936TIP3    H151003   0.537   0.074   2.179 -2.0549  0.6645 -0.3405
 8936TIP3    H251004   0.497  -0.001   2.304  0.0843  0.5414  0.2956
 8937TIP3   OH251005   2.252   6.022   0.515 -0.5136  0.3686  0.3015
 8937TIP3    H151006   2.167   6.053   0.487 -0.3284  1.5014  0.9445
 8937TIP3    H251007   2.292   6.097   0.559 -0.1208 -0.8131  2.0655
 8938TIP3   OH251008   4.569   1.813   2.604  0.0263  0.1779 -0.3961
 8938TIP3    H151009   4.629   1.739   2.614  1.5474  1.3275 -0.4840
 8938TIP3    H251010   4.482   1.774   2.601  0.8771 -1.7836 -2.3855
 8939TIP3   OH251011   2.037   2.837   1.621  0.2426  0.9535  0.2376
 8939TIP3    H151012   2.031   2.799   1.708 -0.6461  0.4162 -0.0420
 8939TIP3    H251013   1.955   2.812   1.578  0.3974  1.7232 -0.5459
 8940TIP3   OH251014   4.596   0.851   2.059  0.0915 -0.0819  0.3017
 8940TIP3    H151015   4.606   0.782   2.124  1.9160 -2.8286 -2.5823
 8940TIP3    H251016   4.654   0.921   2.088  1.0592 -1.3327  1.4650
 8941TIP3   OH251017   4.415   5.662   1.298 -0.0063  0.4252 -0.2958
 8941TIP3    H151018   4.359   5.679   1.222 -1.1287 -0.1086  0.3936
 8941TIP3    H251019   4.435   5.569   1.292  0.6242  0.5639 -0.4076
 8942TIP3   OH251020   6.260   2.563   2.093  0.0588 -0.0407  0.1410
 8942TIP3    H151021   6.304   2.478   2.104 -1.2035 -0.8290 -0.6623
 8942TIP3    H251022   6.169   2.545   2.118 -0.1119  1.2222  0.4669
 8943TIP3   OH251023   3.251   2.012   0.867  0.0837 -0.5731 -0.1704
 8943TIP3    H151024   3.295   2.011   0.782  0.2317  0.9905 -0.1527
 8943TIP3    H251025   3.159   2.023   0.846  0.2600  1.3124 -0.1529
 8944TIP3   OH251026   4.322   1.213   1.606 -0.3909  0.1846 -0.5785
 8944TIP3    H151027   4.392   1.260   1.562  0.2147  1.1291  1.2731
 8944TIP3    H251028   4.247   1.273   1.604 -0.6382 -0.1376 -1.0960
 8945TIP3   OH251029   0.424   7.544   1.912  0.6588  0.1354 -0.5705
 8945TIP3    H151030   0.348   7.595   1.941  1.1911  1.3888 -1.2743
 8945TIP3    H251031   0.428   7.557   1.817  1.1044 -0.8283 -0.6974
 8946TIP3   OH251032   2.762   4.179   2.476  0.3259  0.0500  0.1173
 8946TIP3    H151033   2.779   4.250   2.415  0.9409 -1.0413 -1.0187
 8946TIP3    H251034   2.709   4.117   2.427  1.8323 -1.4137  0.2438
 8947TIP3   OH251035   7.479   2.193   2.113  0.2654  0.1351  0.5332
 8947TIP3    H151036   7.391   2.223   2.089  0.0051 -1.4573 -0.6311
 8947TIP3    H251037   7.465   2.108   2.155  1.3223 -0.9192 -1.1439
 8948TIP3   OH251038   0.009   0.703   1.897 -0.2506 -0.1561 -0.0793
 8948TIP3    H151039   0.099   0.736   1.893 -0.9196  1.8622  0.0989
 8948TIP3    H251040   0.017   0.608   1.887  1.8274  0.0476 -0.8475
 8949TIP3   OH251041   0.973   5.674   2.984  0.0147 -0.0850 -0.0672
 8949TIP3    H151042   1.012   5.587   2.980  1.2140  0.4686 -2.4492
 8949TIP3    H251043   0.886   5.663   2.946  0.4985 -0.1214 -1.2027
 8950TIP3   OH251044   3.976   2.039   2.857  0.3981  0.7579 -0.3945
 8950TIP3    H151045   4.052   1.990   2.889 -0.8006  0.3186  2.0306
 8950TIP3    H251046   4.014   2.114   2.810  2.4569  1.7602  2.5356
 8951TIP3   OH251047   1.722   6.631   3.040 -0.0677 -0.1974  0.1174
 8951TIP3    H151048   1.717   6.727   3.038  2.0517 -0.0613 -0.6942
 8951TIP3    H251049   1.665   6.603   2.968 -1.3710  0.3688  0.8817
 8952TIP3   OH251050   1.437   4.091   2.250 -0.1191 -0.6451  0.0608
 8952TIP3    H151051   1.500   4.087   2.178 -0.9622  1.5934 -0.9025
 8952TIP3    H251052   1.479   4.147   2.315  0.7778 -2.9274  1.5515
 8953TIP3   OH251053   6.079   0.248   2.480  0.6004 -0.4135  0.2398
 8953TIP3    H151054   6.124   0.315   2.430  2.9808 -1.0212  1.4361
 8953TIP3    H251055   6.132   0.169   2.469 -0.6649 -1.4198  1.0040
 8954TIP3   OH251056   2.211   0.866   3.416  0.4609  0.1571 -0.1165
 8954TIP3    H151057   2.245   0.824   3.494 -2.8391 -0.3961  1.2098
 8954TIP3    H251058   2.160   0.798   3.372 -1.1287  1.4790 -0.4456
 8955TIP3   OH251059   4.291   5.036   2.194 -0.1729  0.6633  0.6186
 8955TIP3    H151060   4.338   4.999   2.119  2.2877  0.5623  2.1084
 8955TIP3    H251061   4.264   4.959   2.245 -0.8829  0.7656  0.4078
 8956TIP3   OH251062   1.654   2.790   1.235 -0.1671 -0.3429  0.8492
 8956TIP3    H151063   1.595   2.772   1.308 -0.1380  1.6391  1.4022
 8956TIP3    H251064   1.658   2.885   1.230  0.2609 -0.4381 -1.4162
 8957TIP3   OH251065   3.083   1.563   3.263 -0.2594 -0.0913  0.0377
 8957TIP3    H151066   3.118   1.641   3.306  1.4999 -0.8869  0.1238
 8957TIP3    H251067   2.996   1.552   3.301 -1.3936  2.8813 -1.3706
 8958TIP3   OH251068   2.082   2.529   2.121  0.3943 -0.0486  0.1932
 8958TIP3    H151069   2.105   2.620   2.141 -0.1860  0.3576 -0.9210
 8958TIP3    H251070   2.110   2.480   2.199 -0.0861  1.1926  1.1889
 8959TIP3   OH251071   2.129   5.580   0.753 -0.0562 -0.2049  0.1200
 8959TIP3    H151072   2.160   5.645   0.690 -0.6368  1.3237  1.3342
 8959TIP3    H251073   2.075   5.521   0.702  1.8585 -0.7879 -1.3463
 8960TIP3   OH251074   4.336   7.522   1.205  0.2088 -0.1322  0.2155
 8960TIP3    H151075   4.265   7.475   1.160  0.7644 -0.7730 -0.0284
 8960TIP3    H251076   4.294   7.566   1.278 -0.9825  2.1258 -1.7181
 8961TIP3   OH251077   2.510   4.860   3.560 -0.4039  0.0698 -0.1571
 8961TIP3    H151078   2.500   4.937   3.504  0.8219 -0.1455 -0.7271
 8961TIP3    H251079   2.575   4.807   3.514 -2.1807 -1.9577 -0.4590
 8962TIP3   OH251080   2.906   2.108   3.287 -0.2976  0.2898 -0.0080
 8962TIP3    H151081   2.979   2.046   3.287  0.3823  1.0331  1.7200
 8962TIP3    H251082   2.917   2.158   3.206 -0.1720 -1.0205 -0.8340
 8963TIP3   OH251083   2.945   0.692   2.819  0.0657 -0.0627  0.5555
 8963TIP3    H151084   2.894   0.703   2.738  0.1501  0.3574  0.5617
 8963TIP3    H251085   2.897   0.624   2.867 -1.0220  0.9845  0.9829
 8964TIP3   OH251086   5.232   0.620   2.011  0.0899 -0.9143 -0.1924
 8964TIP3    H151087   5.217   0.529   2.036  0.5014 -0.6903  0.9320
 8964TIP3    H251088   5.192   0.671   2.081  0.8592 -0.2417 -0.2246
 8965TIP3   OH251089   1.933   0.288   2.310 -0.1569  0.0340  0.2063
 8965TIP3    H151090   1.952   0.217   2.248 -1.0243  0.4380 -0.5323
 8965TIP3    H251091   1.939   0.368   2.257 -0.0183  0.4555  0.8521
 8966TIP3   OH251092   5.248   5.697   1.112 -0.3986  0.2997  0.5498
 8966TIP3    H151093   5.157   5.693   1.083  0.0885  0.6206 -1.1287
 8966TIP3    H251094   5.248   5.651   1.196 -2.0549  0.0874  0.4727
 8967TIP3   OH251095   4.239   7.015   2.572  0.0756 -0.0457  0.2524
 8967TIP3    H151096   4.172   7.063   2.523  0.6718  1.4262  0.8263
 8967TIP3    H251097   4.271   7.078   2.637  1.1754 -1.1046  0.7726
 8968TIP3   OH251098   4.796   3.849   1.553  0.0253 -0.0617 -0.3219
 8968TIP3    H151099   4.805   3.839   1.648  2.5971  1.9913 -0.2659
 8968TIP3    H251100   4.771   3.761   1.523 -2.1324 -0.5068  2.2930
 8969TIP3   OH251101   3.269   2.587   0.664  0.1207  0.4825 -0.0019
 8969TIP3    H151102   3.178   2.584   0.636  0.2820  2.1005 -0.8042
 8969TIP3    H251103   3.314   2.636   0.596  1.6090 -0.2522  0.3894
 8970TIP3   OH251104   4.485   1.200   3.298  0.2661  0.3540  0.1273
 8970TIP3    H151105   4.469   1.111   3.330 -0.0588  0.4782  0.3187
 8970TIP3    H251106   4.408   1.219   3.243  1.2309 -0.1899 -1.4760
 8971TIP3   OH251107   6.270   2.457   2.564 -0.1081 -0.4410 -0.0963
 8971TIP3    H151108   6.236   2.529   2.510  0.8707  0.8386  0.9260
 8971TIP3    H251109   6.193   2.410   2.594 -0.7585  0.0580 -0.9484
 8972TIP3   OH251110   0.431   7.495   1.641 -0.3223 -0.5678 -0.1501
 8972TIP3    H151111   0.506   7.483   1.582  2.2458 -0.3413  2.8457
 8972TIP3    H251112   0.372   7.423   1.618  0.9865 -1.0477 -2.3141
 8973TIP3   OH251113   5.024   2.226   3.336  0.4807 -0.1749  0.1193
 8973TIP3    H151114   5.036   2.285   3.261  0.0213  0.4450  0.5235
 8973TIP3    H251115   5.036   2.282   3.412  0.2782 -0.6667  0.5151
 8974TIP3   OH251116   4.467   5.337   0.802  0.5939  0.0993  0.4678
 8974TIP3    H151117   4.412   5.388   0.743 -0.5254 -2.2890 -0.7132
 8974TIP3    H251118   4.423   5.341   0.887 -0.6672 -0.6420 -0.1364
 8975TIP3   OH251119   0.476   6.892   1.031  0.5956 -0.4664  0.4391
 8975TIP3    H151120   0.473   6.863   1.122  0.4106 -2.8068 -0.2488
 8975TIP3    H251121   0.421   6.830   0.984  0.7155  0.6639 -1.3038
 8976TIP3   OH251122   0.958   4.462   2.907 -0.3577 -0.2090 -0.6131
 8976TIP3    H151123   0.963   4.546   2.953 -1.5591 -0.6504  0.3768
 8976TIP3    H251124   0.994   4.480   2.821 -1.2824  1.5169 -0.6823
 8977TIP3   OH251125   6.922   1.134   3.474  0.1241  0.5468  0.2416
 8977TIP3    H151126   6.989   1.175   3.420 -1.0939  0.4193 -1.4559
 8977TIP3    H251127   6.901   1.199   3.541 -0.0575  1.7461 -0.9380
 8978TIP3   OH251128   1.972   4.535   2.223 -0.5805  0.1717 -0.1500
 8978TIP3    H151129   1.924   4.466   2.176 -1.7303 -0.0925  1.3411
 8978TIP3    H251130   1.903   4.593   2.257  0.3514  2.0787 -1.3174
 8979TIP3   OH251131   0.216   7.600   1.392 -0.0214  0.1022 -0.1161
 8979TIP3    H151132   0.151   7.531   1.406  0.9103 -0.9186 -0.6423
 8979TIP3    H251133   0.178   7.678   1.433 -1.8548 -0.2962 -0.9552
 8980TIP3   OH251134   7.192   1.294   2.829 -0.1875 -0.2144  0.3326
 8980TIP3    H151135   7.251   1.246   2.887 -0.5896  1.7982  2.6016
 8980TIP3    H251136   7.249   1.338   2.766  0.6263  0.2308  1.3500
 8981TIP3   OH251137   5.325   5.612   0.473  0.0598 -0.2450 -0.1412
 8981TIP3    H151138   5.295   5.580   0.388 -0.4686  0.9693 -0.4425
 8981TIP3    H251139   5.268   5.688   0.491  0.0773 -0.5581  1.3553
 8982TIP3   OH251140   0.797   1.336   1.190  0.2212  0.0427 -0.8170
 8982TIP3    H151141   0.745   1.366   1.265  1.9666  0.1590  0.4109
 8982TIP3    H251142   0.745   1.266   1.151 -0.6341 -0.1792  0.6464
 8983TIP3   OH251143   1.501   0.521   3.617  0.3753  0.1318 -0.5362
 8983TIP3    H151144   1.444   0.478   3.554 -0.4555  0.0966  0.2308
 8983TIP3    H251145   1.456   0.512   3.701  0.9507  1.1099 -0.1039
 8984TIP3   OH251146   6.335   3.898   0.827  0.8784 -0.2463 -0.1099
 8984TIP3    H151147   6.305   3.837   0.761  1.4035  0.5278 -1.0986
 8984TIP3    H251148   6.338   3.847   0.908 -0.0744 -1.1263 -0.6081
 8985TIP3   OH251149   2.189   7.245   0.804 -0.0727  0.3556 -0.5154
 8985TIP3    H151150   2.187   7.335   0.837  0.7920  0.0692  0.3670
 8985TIP3    H251151   2.279   7.231   0.776 -0.8098  0.6653 -3.3579
 8986TIP3   OH251152   4.537   6.626   2.009  0.1641  0.1058 -0.0435
 8986TIP3    H151153   4.515   6.633   1.916  0.0445 -1.1622 -0.1372
 8986TIP3    H251154   4.454   6.642   2.054  0.1660  0.4668 -0.1662
 8987TIP3   OH251155   3.639   5.497   2.315  0.2467  0.3260  0.8252
 8987TIP3    H151156   3.611   5.570   2.261  0.0872  3.1798  4.3474
 8987TIP3    H251157   3.732   5.487   2.297  0.3147  1.5830  0.4033
 8988TIP3   OH251158   5.627   1.718   1.492  0.2107 -0.0800 -0.5220
 8988TIP3    H151159   5.702   1.764   1.531 -0.0943  0.6930 -0.8259
 8988TIP3    H251160   5.584   1.675   1.565  0.7030 -0.1640 -0.2796
 8989TIP3   OH251161   2.277   4.466   1.277  0.3886  0.3797 -0.3253
 8989TIP3    H151162   2.333   4.473   1.200  0.9512  0.0313  0.0476
 8989TIP3    H251163   2.257   4.556   1.301  0.7034  0.5025 -0.5217
 8990TIP3   OH251164   7.468   1.116   0.525  0.2178  0.3691 -0.0681
 8990TIP3    H151165   7.548   1.111   0.472  0.2780  1.1462 -0.0706
 8990TIP3    H251166   7.456   1.028   0.559  1.3272  0.3401  0.2906
 8991TIP3   OH251167   5.690   1.101   1.989 -0.3426  0.1614  0.1127
 8991TIP3    H151168   5.784   1.113   1.983 -0.6347  2.3641 -0.9825
 8991TIP3    H251169   5.679   1.028   2.050  1.9912  2.3756  3.5798
 8992TIP3   OH251170   6.601   1.308   0.525 -0.2359  0.1739 -0.7635
 8992TIP3    H151171   6.598   1.392   0.480 -0.9217  0.6908  0.1937
 8992TIP3    H251172   6.691   1.301   0.557 -0.6689  1.5849  0.9695
 8993TIP3   OH251173   1.203   0.484   2.174 -0.4608  0.2767  0.2838
 8993TIP3    H151174   1.270   0.537   2.130 -0.4391 -1.5714 -2.0795
 8993TIP3    H251175   1.227   0.488   2.266  2.0426  0.9016 -0.3123
 8994TIP3   OH251176   7.333   3.769   2.678 -0.1159  1.0066 -0.2216
 8994TIP3    H151177   7.391   3.692   2.675  0.5668  1.4363  1.2616
 8994TIP3    H251178   7.369   3.829   2.612 -0.9838 -0.1092 -1.8044
 8995TIP3   OH251179   4.504   7.400   0.989 -0.1510  0.1615  0.6999
 8995TIP3    H151180   4.465   7.487   0.994 -1.4243 -0.4519  1.9300
 8995TIP3    H251181   4.595   7.413   1.015  0.1833  1.4029 -0.9371
 8996TIP3   OH251182   3.770   1.550   1.348  0.4109 -0.1346  0.1803
 8996TIP3    H151183   3.682   1.514   1.352 -1.0608  2.9420 -1.4298
 8996TIP3    H251184   3.807   1.515   1.267 -0.5785  0.9674 -0.7845
 8997TIP3   OH251185   0.273   4.032   1.016 -0.1700 -0.5189  0.3250
 8997TIP3    H151186   0.258   4.039   0.921 -2.4517 -0.3007  0.6429
 8997TIP3    H251187   0.190   3.999   1.050 -0.0014  1.0914  2.4651
 8998TIP3   OH251188   5.942   6.516   2.041 -0.7545 -0.7281  0.0672
 8998TIP3    H151189   5.897   6.439   2.075 -0.3287 -0.3024  1.6563
 8998TIP3    H251190   5.882   6.550   1.974 -1.8439 -1.3292  0.7023
 8999TIP3   OH251191   5.664   3.647   1.922  0.7290  0.0254 -0.2041
 8999TIP3    H151192   5.711   3.679   1.845 -0.7785 -1.4731 -1.8365
 8999TIP3    H251193   5.579   3.691   1.917  0.3762 -0.6023  0.2329
 9000TIP3   OH251194   3.765   0.582   0.956 -0.0190 -0.3258  0.4387
 9000TIP3    H151195   3.820   0.566   1.032 -1.3293  0.2991  1.5568
 9000TIP3    H251196   3.775   0.676   0.939  0.0215 -0.4006  0.0447
 9001TIP3   OH251197   6.334   0.621   0.406  0.1538  0.0068  0.2694
 9001TIP3    H151198   6.350   0.709   0.373  1.5710 -0.2727  0.1423
 9001TIP3    H251199   6.420   0.579   0.405 -0.4182 -1.2308  0.7630
 9002TIP3   OH251200   2.468   1.137   1.652  0.0369  0.2787 -0.4056
 9002TIP3    H151201   2.400   1.188   1.607  0.2944  0.8219 -0.1931
 9002TIP3    H251202   2.420   1.080   1.711 -0.2929 -0.2482 -1.1713
 9003TIP3   OH251203   4.290   7.464   2.230 -0.1376  0.1471 -0.3552
 9003TIP3    H151204   4.249   7.378   2.219  2.3652 -1.1414 -0.3235
 9003TIP3    H251205   4.229   7.512   2.287 -1.5064 -1.6653 -0.1715
 9004TIP3   OH251206   7.442   5.568   1.281 -0.1073 -0.2606 -0.1476
 9004TIP3    H151207   7.460   5.528   1.196  0.7437 -1.0798  0.3861
 9004TIP3    H251208   7.426   5.493   1.339  0.8582  0.1908  0.7367
 9005TIP3   OH251209   3.343   3.223   0.910  0.0552 -0.2757  0.3303
 9005TIP3    H151210   3.335   3.305   0.959 -0.9236 -0.7463  0.9867
 9005TIP3    H251211   3.436   3.214   0.893  0.4941 -0.3273  2.5102
 9006TIP3   OH251212   2.621   2.026   0.794  0.0550 -0.3770  0.7104
 9006TIP3    H151213   2.663   2.111   0.806  0.7891 -0.6945  0.4674
 9006TIP3    H251214   2.554   2.041   0.728  2.7770 -0.7451 -2.3917
 9007TIP3   OH251215   3.785   3.452   0.353  0.6192 -0.4362 -0.0949
 9007TIP3    H151216   3.708   3.439   0.409  0.6619 -0.1737  0.0264
 9007TIP3    H251217   3.780   3.544   0.326  0.7527 -0.4872 -0.2926
 9008TIP3   OH251218   0.611   2.757   2.329 -0.5002 -0.0154  0.0523
 9008TIP3    H151219   0.557   2.713   2.264  1.3163 -2.2965 -0.0522
 9008TIP3    H251220   0.631   2.842   2.291 -0.3702 -0.8712 -1.8971
 9009TIP3   OH251221   6.852   5.159   1.323  0.0600  0.1049  0.4406
 9009TIP3    H151222   6.843   5.251   1.348 -0.4216  0.4392 -0.8360
 9009TIP3    H251223   6.815   5.155   1.234  2.3315 -0.8030 -0.5401
 9010TIP3   OH251224   2.535   6.771   2.483  0.1311 -0.1445 -0.0999
 9010TIP3    H151225   2.505   6.823   2.409 -2.2464 -1.4267 -0.1268
 9010TIP3    H251226   2.498   6.684   2.468 -0.1282 -0.5507  2.4053
 9011TIP3   OH251227   4.791   6.187   1.624 -0.0212  0.7215 -0.3507
 9011TIP3    H151228   4.776   6.155   1.535  0.0583  1.8914 -0.8032
 9011TIP3    H251229   4.870   6.241   1.616  0.3469  0.3367  0.5643
 9012TIP3   OH251230   2.696   0.722   0.822  0.0274  0.2056  0.8632
 9012TIP3    H151231   2.621   0.735   0.880  0.4089 -1.3869  1.7622
 9012TIP3    H251232   2.682   0.636   0.783  0.0368  1.0405 -1.0661
 9013TIP3   OH251233   5.195   2.186   1.683 -0.3777  0.1995  0.1996
 9013TIP3    H151234   5.109   2.198   1.643 -0.2608  0.8349  0.1306
 9013TIP3    H251235   5.220   2.273   1.714 -0.7413 -0.3559  2.2436
 9014TIP3   OH251236   3.613   1.857   2.433  0.6210  0.0300  0.0389
 9014TIP3    H151237   3.658   1.854   2.348 -0.7452 -2.2368 -0.6923
 9014TIP3    H251238   3.683   1.875   2.496  2.0640 -0.4935 -1.3357
 9015TIP3   OH251239   0.254   4.743   1.069 -0.4438 -0.2935 -0.3567
 9015TIP3    H151240   0.310   4.668   1.053 -0.7235 -0.9322  1.4189
 9015TIP3    H251241   0.168   4.716   1.035 -0.5011 -0.7116  0.1123
 9016TIP3   OH251242   7.307   0.917   2.689 -0.4166 -0.6730 -0.1246
 9016TIP3    H151243   7.284   0.841   2.634 -0.5521 -0.6288 -0.1288
 9016TIP3    H251244   7.314   0.881   2.778  0.0730 -0.7976 -0.2099
 9017TIP3   OH251245   1.095   3.382   1.199  0.0691  0.1468  0.2114
 9017TIP3    H151246   1.028   3.324   1.164  0.2041 -0.8614  1.5188
 9017TIP3    H251247   1.149   3.406   1.123 -0.6336 -0.5752 -0.5296
 9018TIP3   OH251248   6.518   2.973   1.522  0.4658  0.0691  0.7362
 9018TIP3    H151249   6.555   3.041   1.465  1.5932 -0.1938  1.1215
 9018TIP3    H251250   6.592   2.916   1.542 -0.4095 -1.1450  0.6220
 9019TIP3   OH251251   0.807   7.323   1.514 -1.0136 -0.3437  0.8045
 9019TIP3    H151252   0.899   7.340   1.497 -1.5586  1.6849 -0.5514
 9019TIP3    H251253   0.797   7.334   1.608 -0.1615  1.2417  0.7428
 9020TIP3   OH251254   2.528   2.752   1.823  0.3700  0.3499  0.3383
 9020TIP3    H151255   2.441   2.715   1.807  0.1124  0.9763  0.2501
 9020TIP3    H251256   2.554   2.787   1.738  0.4850  0.6185  0.4832
 9021TIP3   OH251257   5.851   4.381   1.938 -0.7140 -0.3653 -0.2781
 9021TIP3    H151258   5.908   4.457   1.928  1.2365 -1.8418 -0.9479
 9021TIP3    H251259   5.763   4.415   1.919 -0.0600  1.8865  0.3545
 9022TIP3   OH251260   2.037   3.369   2.955 -0.2167 -0.0927 -0.4397
 9022TIP3    H151261   2.116   3.337   2.912 -1.9225 -3.3479 -1.4877
 9022TIP3    H251262   1.972   3.377   2.885 -1.3941  0.4518  0.6648
 9023TIP3   OH251263   1.476   1.663   1.651 -0.0618 -0.2236 -0.4946
 9023TIP3    H151264   1.462   1.571   1.672 -0.7877 -0.4459 -1.8793
 9023TIP3    H251265   1.423   1.710   1.716  0.3906 -0.7698  0.2787
 9024TIP3   OH251266   6.009   1.343   0.764  0.0681  0.0209  0.4240
 9024TIP3    H151267   5.921   1.347   0.801  0.2095 -1.6843  1.0345
 9024TIP3    H251268   6.051   1.424   0.793 -1.3573  0.9819 -0.0952
 9025TIP3   OH251269   2.958   4.539   2.269  0.2170 -0.2428  0.1436
 9025TIP3    H151270   3.001   4.497   2.344  1.2905 -0.1508 -0.3889
 9025TIP3    H251271   2.881   4.485   2.252  1.2793 -1.7393 -0.1977
 9026TIP3   OH251272   1.302   2.583   2.523  0.3606 -0.2765  0.1374
 9026TIP3    H151273   1.296   2.629   2.607  0.7935  1.3883 -0.7006
 9026TIP3    H251274   1.392   2.548   2.522  0.2636 -0.5409  0.4768
 9027TIP3   OH251275   7.469   1.866   1.885  0.1753 -0.4078 -0.1790
 9027TIP3    H151276   7.444   1.923   1.957 -2.0019 -0.1804 -1.0545
 9027TIP3    H251277   7.473   1.924   1.808  3.5216 -0.4272 -0.1732
 9028TIP3   OH251278   5.050   5.861   2.342 -0.3036  0.3884  0.1820
 9028TIP3    H151279   4.982   5.924   2.319  0.7909  1.9203  0.9461
 9028TIP3    H251280   5.060   5.807   2.263 -1.6062  0.8520 -0.3320
 9029TIP3   OH251281   6.567   1.378   1.834  0.0456  0.1466 -0.2160
 9029TIP3    H151282   6.610   1.397   1.917  0.1523 -1.7191  0.2034
 9029TIP3    H251283   6.630   1.403   1.767  0.2643  0.9454  0.2760
 9030TIP3   OH251284   3.540   3.909   1.793  0.5686 -0.7051 -0.3954
 9030TIP3    H151285   3.532   4.004   1.803  1.2116 -0.7016  0.1178
 9030TIP3    H251286   3.561   3.897   1.700 -0.8892 -0.4490 -0.7855
 9031TIP3   OH251287   1.401   5.508   1.172 -0.0544  0.1256  0.3107
 9031TIP3    H151288   1.495   5.489   1.164 -0.0389 -0.8259  2.1895
 9031TIP3    H251289   1.363   5.428   1.208 -1.7125  0.2943 -0.9426
 9032TIP3   OH251290   5.820   7.472   1.821  0.3287  0.0430 -0.0474
 9032TIP3    H151291   5.900   7.521   1.800  0.8813 -0.7117  0.2632
 9032TIP3    H251292   5.818   7.401   1.757 -0.2708  0.2408 -0.2570
 9033TIP3   OH251293   5.813   1.777   1.031 -0.3300 -0.3426  0.9184
 9033TIP3    H151294   5.903   1.744   1.024 -0.5224 -0.5352 -1.0532
 9033TIP3    H251295   5.774   1.727   1.103  0.8302 -0.9459  1.1441
 9034TIP3   OH251296   6.010   0.753   4.070  0.0502  0.0305 -0.2384
 9034TIP3    H151297   6.101   0.770   4.047  0.3527 -1.3271 -0.1568
 9034TIP3    H251298   6.007   0.757   4.165 -0.4965  2.3581 -0.3024
 9035TIP3   OH251299   3.267   1.136   0.745  0.7517  0.3266  0.1141
 9035TIP3    H151300   3.332   1.198   0.713  0.7916  0.2586  0.0643
 9035TIP3    H251301   3.204   1.129   0.673  0.3104  0.9312  0.4295
 9036TIP3   OH251302   0.080   5.001   2.534  0.3139 -0.0629 -0.7923
 9036TIP3    H151303   0.054   5.091   2.511  0.9757  0.1271 -0.8043
 9036TIP3    H251304   0.033   4.982   2.615  0.9838  0.6798 -0.2210
 9037TIP3   OH251305   4.099   5.496   2.525  0.1884  0.1268  0.0222
 9037TIP3    H151306   4.117   5.462   2.613  0.3000 -1.6605 -0.6510
 9037TIP3    H251307   4.180   5.541   2.500  1.1055 -1.4964 -0.0896
 9038TIP3   OH251308   7.008   4.139   2.727  0.1135  0.1470 -0.2474
 9038TIP3    H151309   6.915   4.162   2.733 -0.5921 -2.4180  0.1557
 9038TIP3    H251310   7.021   4.117   2.635  0.2592  0.2861 -0.2593
 9039TIP3   OH251311   3.216   3.751   0.782  0.2693 -0.5704 -0.1632
 9039TIP3    H151312   3.251   3.806   0.851  2.3153 -2.1698  0.1982
 9039TIP3    H251313   3.238   3.662   0.810 -1.4306 -1.4678 -1.5034
 9040TIP3   OH251314   6.787   6.827   1.048  0.5667  0.1460  0.2940
 9040TIP3    H151315   6.783   6.879   1.128 -1.8190 -0.8020  0.8847
 9040TIP3    H251316   6.795   6.737   1.078 -2.5700 -0.4504 -0.3248
 9041TIP3   OH251317   2.680   6.309   1.535  0.0420 -0.5088  0.0444
 9041TIP3    H151318   2.587   6.306   1.558 -0.0422 -2.1802 -0.4271
 9041TIP3    H251319   2.704   6.401   1.549 -1.7095  0.0048  0.0191
 9042TIP3   OH251320   1.148   6.868   2.661 -0.3152  0.1499 -0.0980
 9042TIP3    H151321   1.154   6.773   2.672 -0.0239  0.0863 -0.7099
 9042TIP3    H251322   1.148   6.903   2.750  0.0146 -0.4014  0.1285
 9043TIP3   OH251323   2.947   0.525   1.927 -0.5314  0.3629  0.1923
 9043TIP3    H151324   2.877   0.460   1.921 -1.3571  1.2610 -0.0655
 9043TIP3    H251325   2.976   0.537   1.836 -0.4834  0.4599  0.2208
 9044TIP3   OH251326   2.222   0.034   1.837  0.8246  0.0224 -0.1293
 9044TIP3    H151327   2.314   0.017   1.857  0.9909 -2.2900 -2.3135
 9044TIP3    H251328   2.221   0.057   1.744 -0.7979  0.1899 -0.1049
 9045TIP3   OH251329   6.347   4.497   1.619 -0.3372 -0.2245 -0.0347
 9045TIP3    H151330   6.377   4.419   1.574 -0.6877  0.2908 -1.2006
 9045TIP3    H251331   6.369   4.482   1.711  0.2005 -1.3917 -0.3390
 9046TIP3   OH251332   4.251   4.528   1.213 -0.1158 -0.0816 -0.2090
 9046TIP3    H151333   4.312   4.594   1.246  0.9468 -1.5580  0.9457
 9046TIP3    H251334   4.189   4.514   1.285 -1.3535  0.7988 -1.0641
 9047TIP3   OH251335   7.312   2.366   1.477 -0.1855 -0.6133  0.1273
 9047TIP3    H151336   7.324   2.371   1.382 -0.3485 -0.5517  0.1087
 9047TIP3    H251337   7.217   2.369   1.488 -0.1441  0.2620  0.3366
 9048TIP3   OH251338   3.629   2.221   2.331  0.8664 -0.8106  0.1659
 9048TIP3    H151339   3.580   2.262   2.260  4.2593  3.7377  0.0448
 9048TIP3    H251340   3.575   2.234   2.409  0.0806  0.3201 -0.5506
 9049TIP3   OH251341   6.720   2.206   1.002 -0.2868 -0.2548  0.2086
 9049TIP3    H151342   6.797   2.152   0.984 -0.4882 -0.2943 -0.5636
 9049TIP3    H251343   6.751   2.296   0.991 -0.5134 -0.2912 -0.7925
 9050TIP3   OH251344   4.069   7.249   2.110  0.6785 -0.2886 -0.2403
 9050TIP3    H151345   4.109   7.163   2.106 -0.0681 -0.5939 -1.5593
 9050TIP3    H251346   4.059   7.276   2.019 -4.0560 -1.1912 -0.2329
 9051TIP3   OH251347   5.588   6.065   2.893  1.1258  0.1280  0.0019
 9051TIP3    H151348   5.524   6.071   2.822 -0.2705 -1.5246  1.0785
 9051TIP3    H251349   5.619   5.975   2.890  2.6754  0.6189  0.1744
 9052TIP3   OH251350   0.001   0.346   2.078 -0.4728 -0.1428 -0.2992
 9052TIP3    H151351  -0.087   0.347   2.043 -0.6998 -1.6909  0.1243
 9052TIP3    H251352   0.035   0.259   2.055  0.6642  0.1486  0.1899
 9053TIP3   OH251353   3.482   1.464   3.161 -0.7922 -0.2324  0.0606
 9053TIP3    H151354   3.483   1.374   3.127 -1.1721 -1.0313  2.0052
 9053TIP3    H251355   3.472   1.453   3.256 -1.4403  1.8936  0.2831
 9054TIP3   OH251356   1.708   6.082   2.738 -0.0293 -0.2129  0.9036
 9054TIP3    H151357   1.733   6.104   2.828 -1.6145 -3.1284  2.1814
 9054TIP3    H251358   1.629   6.029   2.747 -0.6861  0.0195 -2.2914
 9055TIP3   OH251359   3.832   3.544   1.435  0.2786  0.1141 -0.4082
 9055TIP3    H151360   3.898   3.597   1.479  1.9736 -0.9941 -1.4767
 9055TIP3    H251361   3.854   3.551   1.342 -1.7238  0.4804 -0.8928
 9056TIP3   OH251362   3.402   3.282   0.303  0.0664 -0.0387  0.0005
 9056TIP3    H151363   3.348   3.359   0.281 -1.9173 -1.7156 -1.3984
 9056TIP3    H251364   3.492   3.314   0.299 -0.6982  2.9317  2.4585
 9057TIP3   OH251365   6.669   5.440   1.010  0.1520  0.2248 -0.2288
 9057TIP3    H151366   6.589   5.390   1.026  0.3928 -0.3842 -0.8735
 9057TIP3    H251367   6.645   5.503   0.942  0.1322  0.2831 -0.1687
 9058TIP3   OH251368   0.474   6.524   1.960  0.2969 -0.2308 -0.0840
 9058TIP3    H151369   0.391   6.518   2.007  0.7843  0.3032  0.8899
 9058TIP3    H251370   0.477   6.446   1.906  0.2110 -1.4504  1.6107
 9059TIP3   OH251371   0.984   4.668   1.913  0.2418  0.2870 -0.2360
 9059TIP3    H151372   0.988   4.631   2.001  0.5271 -4.1452 -1.8928
 9059TIP3    H251373   0.891   4.677   1.895 -0.0275 -2.7791 -0.8229
 9060TIP3   OH251374   5.111   6.395   3.450 -0.1120  0.7454 -0.1541
 9060TIP3    H151375   5.205   6.390   3.432 -0.1577 -0.8003 -0.0675
 9060TIP3    H251376   5.097   6.485   3.479  1.4568  0.8169  0.4541
 9061TIP3   OH251377   2.883   7.276   1.249 -0.0734  0.0511 -0.3540
 9061TIP3    H151378   2.976   7.291   1.266  0.4626 -1.3699 -1.7845
 9061TIP3    H251379   2.851   7.359   1.212 -0.0212  1.3814  2.3502
 9062TIP3   OH251380   6.188   3.752   1.989  0.6471 -0.1113  0.4670
 9062TIP3    H151381   6.111   3.796   2.027  1.5287  1.3492  0.6444
 9062TIP3    H251382   6.243   3.824   1.956  2.0367 -1.1055  0.5325
 9063TIP3   OH251383   5.102   5.132   1.202  0.3420 -0.0767 -0.0784
 9063TIP3    H151384   5.148   5.048   1.209  1.3083  0.1528 -2.5158
 9063TIP3    H251385   5.159   5.185   1.147  0.2120  2.5601  2.1452
 9064TIP3   OH251386   7.281   3.702   1.766 -0.1630  0.5755  0.1967
 9064TIP3    H151387   7.257   3.764   1.698  1.8244  1.7267  0.4450
 9064TIP3    H251388   7.198   3.673   1.804 -1.2152  1.4131 -1.3815
 9065TIP3   OH251389   7.407   7.019   1.417 -0.8364 -0.0577  0.4250
 9065TIP3    H151390   7.419   6.956   1.488 -2.1638 -0.6484  0.1415
 9065TIP3    H251391   7.313   7.026   1.406 -0.6580  0.1355 -1.1887
 9066TIP3   OH251392   0.389   5.734   0.644 -0.2049  0.3387  0.0220
 9066TIP3    H151393   0.301   5.773   0.636 -0.0938  0.8608  1.1545
 9066TIP3    H251394   0.379   5.665   0.710  0.0550 -0.1924 -0.4851
 9067TIP3   OH251395   2.456   6.513   2.483  0.2384  0.1814  0.1996
 9067TIP3    H151396   2.451   6.429   2.437 -0.4746  0.5085 -0.3444
 9067TIP3    H251397   2.411   6.497   2.567  1.4042 -0.3727  0.7462
 9068TIP3   OH251398   5.473   7.162   1.825 -0.1580  0.3333  0.2299
 9068TIP3    H151399   5.448   7.221   1.896  2.6384  0.1413  1.5169
 9068TIP3    H251400   5.483   7.220   1.749 -0.0413  1.0885  0.8030
 9069TIP3   OH251401   7.146   6.913   2.357  0.1765  0.5868  0.4056
 9069TIP3    H151402   7.139   6.817   2.360 -0.8638  0.6753  1.1164
 9069TIP3    H251403   7.140   6.934   2.264 -1.8715  0.0906  0.3698
 9070TIP3   OH251404   2.656   4.353   1.542 -0.0751 -0.2362 -0.3282
 9070TIP3    H151405   2.720   4.295   1.584  1.7942  0.1794 -2.4161
 9070TIP3    H251406   2.678   4.350   1.449 -0.1385  3.4604 -0.6102
 9071TIP3   OH251407   5.884   2.391   0.924  0.0139  0.2423  0.2182
 9071TIP3    H151408   5.935   2.322   0.966 -0.1189 -0.0172 -0.0456
 9071TIP3    H251409   5.946   2.463   0.912  0.2413  0.0388  0.1724
 9072TIP3   OH251410   4.644   2.451   1.627 -0.1070 -0.2327 -0.1486
 9072TIP3    H151411   4.661   2.393   1.553 -1.3460  0.8758 -1.3552
 9072TIP3    H251412   4.644   2.539   1.590 -0.9249  0.3428  1.1343
 9073TIP3   OH251413   3.286   3.956   1.548  0.5431  0.3835 -0.8836
 9073TIP3    H151414   3.225   3.981   1.618 -0.3712 -0.1065 -1.4832
 9073TIP3    H251415   3.271   3.862   1.535  1.4854  0.2405 -0.9928
 9074TIP3   OH251416   3.525   0.148   2.904  0.1639  0.1820  0.4420
 9074TIP3    H151417   3.535   0.090   2.979 -0.9703 -1.3987 -0.5588
 9074TIP3    H251418   3.434   0.136   2.876  0.9375 -0.4328 -2.0407
 9075TIP3   OH251419   1.989   1.287   2.428 -0.3094 -0.0867 -0.1065
 9075TIP3    H151420   1.927   1.354   2.456 -0.7850 -0.6933  0.3164
 9075TIP3    H251421   2.032   1.324   2.351 -0.5202  0.7259  0.1596
 9076TIP3   OH251422   5.125   4.301   2.311 -0.3389  0.1281 -0.1448
 9076TIP3    H151423   5.203   4.346   2.343  0.1827  0.2778 -1.5483
 9076TIP3    H251424   5.054   4.364   2.324 -0.5737 -0.5852  2.6003
 9077TIP3   OH251425   1.543   1.947   1.074 -0.0659  0.1224  0.6604
 9077TIP3    H151426   1.452   1.920   1.066 -0.5014  0.2393  3.8479
 9077TIP3    H251427   1.562   1.941   1.168  3.6827 -1.3288  0.0011
 9078TIP3   OH251428   1.566   4.284   0.545 -0.5623  0.0847  0.2234
 9078TIP3    H151429   1.661   4.276   0.555 -0.7514 -0.5807  1.7554
 9078TIP3    H251430   1.554   4.362   0.491  0.8545  0.0599 -0.1740
 9079TIP3   OH251431   1.524   1.604   1.203  0.1487 -0.7248  0.3585
 9079TIP3    H151432   1.593   1.645   1.255 -0.3588  1.3133 -0.4832
 9079TIP3    H251433   1.555   1.515   1.188  2.7472  0.1800 -0.1721
 9080TIP3   OH251434   4.577   3.740   1.933  0.6557  0.2617 -0.2427
 9080TIP3    H151435   4.513   3.679   1.969  1.8473 -0.1462  1.2884
 9080TIP3    H251436   4.525   3.818   1.910 -0.6059 -0.6286 -0.5338
 9081TIP3   OH251437   5.883   1.263   1.625  0.0010  0.4449 -0.0174
 9081TIP3    H151438   5.916   1.174   1.607 -0.6718 -0.2720  2.0273
 9081TIP3    H251439   5.947   1.320   1.584  0.6788 -0.9852 -1.0428
 9082TIP3   OH251440   4.934   2.016   2.473 -0.1803 -0.8038 -0.2758
 9082TIP3    H151441   4.906   2.049   2.559  0.4913 -1.0502  0.0412
 9082TIP3    H251442   4.961   1.926   2.489 -0.4384 -0.9820 -0.8296
 9083TIP3   OH251443   3.861   3.177   3.631  0.3340  0.5308  0.1189
 9083TIP3    H151444   3.922   3.199   3.560 -0.6253  1.3165 -0.4895
 9083TIP3    H251445   3.879   3.242   3.699  0.2994  0.6579  0.0078
 9084TIP3   OH251446   1.509   6.318   1.706  0.5935  0.0775  0.0768
 9084TIP3    H151447   1.438   6.368   1.746 -1.1958 -1.6536 -0.7704
 9084TIP3    H251448   1.511   6.346   1.615 -0.2007 -1.0528 -0.3222
 9085TIP3   OH251449   3.465   6.062   1.428 -0.1228 -0.5872 -0.4760
 9085TIP3    H151450   3.525   6.107   1.369 -0.4230 -0.1145 -0.4316
 9085TIP3    H251451   3.392   6.035   1.373 -2.3105  3.2202  0.1901
 9086TIP3   OH251452   5.903   1.438   2.806  0.5673  0.1430  0.2211
 9086TIP3    H151453   5.943   1.396   2.730  1.1552  0.0635  0.5611
 9086TIP3    H251454   5.836   1.377   2.836  0.3936  0.1375 -0.1806
 9087TIP3   OH251455   0.520   3.927   2.320 -0.2377  0.1016  0.3233
 9087TIP3    H151456   0.447   3.985   2.294 -1.4431 -1.6091 -0.2655
 9087TIP3    H251457   0.592   3.987   2.339 -1.1522  1.7733 -1.1384
 9088TIP3   OH251458   6.525   2.900   2.091 -0.1912  0.7687  0.2938
 9088TIP3    H151459   6.500   2.905   1.998 -1.0681  1.5037  0.5543
 9088TIP3    H251460   6.578   2.978   2.106 -1.1272  1.3362  0.7105
 9089TIP3   OH251461   3.818   2.037   2.306 -0.3967  0.0133  0.0924
 9089TIP3    H151462   3.834   2.013   2.215  0.7726 -1.4596  0.6486
 9089TIP3    H251463   3.743   2.097   2.302 -0.4083 -0.0638 -1.8152
 9090TIP3   OH251464   1.469   0.605   1.426 -0.6703 -0.3709  0.0374
 9090TIP3    H151465   1.490   0.590   1.518  0.0856 -1.2721 -0.2790
 9090TIP3    H251466   1.491   0.697   1.412 -0.8875 -0.1919  0.7683
 9091TIP3   OH251467   1.029   5.448   0.679 -0.0181 -0.4327  0.3463
 9091TIP3    H151468   1.063   5.521   0.730  0.5372 -0.1182 -0.4512
 9091TIP3    H251469   0.996   5.489   0.599  0.3152 -1.0543 -0.1168
 9092TIP3   OH251470   3.249   4.001   2.955  0.2741 -0.5828 -0.0079
 9092TIP3    H151471   3.251   3.937   2.883 -0.7400 -0.4423 -0.1833
 9092TIP3    H251472   3.329   4.052   2.945  0.1847 -0.6274 -0.9796
 9093TIP3   OH251473   4.518   4.354   2.190  0.5335  0.0416  0.3322
 9093TIP3    H151474   4.489   4.274   2.233 -2.0378  0.9473  0.4835
 9093TIP3    H251475   4.512   4.335   2.097  2.3672 -0.6844  0.3215
 9094TIP3   OH251476   3.689   3.196   3.364  0.1025  0.1818  0.4484
 9094TIP3    H151477   3.759   3.246   3.322 -0.4322 -0.0196 -0.7338
 9094TIP3    H251478   3.719   3.181   3.453  1.5978  0.0260 -0.0658
 9095TIP3   OH251479   1.813   3.915   1.620  0.4610  0.0859  0.3405
 9095TIP3    H151480   1.804   3.921   1.525  0.5413  1.2276  0.3875
 9095TIP3    H251481   1.726   3.892   1.652  0.2694  0.4024  0.0441
 9096TIP3   OH251482   4.849   4.043   1.959  0.0347 -0.3059 -0.0153
 9096TIP3    H151483   4.932   4.072   1.997 -0.0985 -0.7791  0.6500
 9096TIP3    H251484   4.784   4.056   2.028 -0.3451 -0.4765 -0.3340
 9097TIP3   OH251485   5.493   0.621   3.687  0.5094 -0.5480  0.1924
 9097TIP3    H151486   5.546   0.621   3.607 -1.4578 -0.2629 -1.2012
 9097TIP3    H251487   5.471   0.529   3.701 -0.8992 -0.4000 -0.8783
 9098TIP3   OH251488   4.106   4.353   2.589  0.2669 -0.1267 -0.1416
 9098TIP3    H151489   4.139   4.268   2.619 -0.5172 -0.1273  0.7693
 9098TIP3    H251490   4.133   4.358   2.497  0.1119 -1.4782 -0.2898
 9099TIP3   OH251491   5.777   2.749   1.847  0.2300 -0.6069  0.2217
 9099TIP3    H151492   5.820   2.786   1.770 -0.2376 -1.6626 -0.5666
 9099TIP3    H251493   5.684   2.754   1.827  0.0114  0.5304  1.3987
 9100TIP3   OH251494   4.052   5.103   2.496 -0.4609  0.4724 -0.1050
 9100TIP3    H151495   3.976   5.158   2.516  1.0103  2.3077  0.7639
 9100TIP3    H251496   4.117   5.164   2.460  1.0293 -0.8114  0.2859
 9101TIP3   OH251497   3.659   6.385   2.636 -0.3274  0.1582 -0.6863
 9101TIP3    H151498   3.707   6.312   2.597 -1.8423 -0.4539 -1.4939
 9101TIP3    H251499   3.695   6.463   2.594  1.1684 -0.0989  0.0353
 9102TIP3   OH251500   6.019   0.723   1.995 -0.0837 -0.2379  0.0814
 9102TIP3    H151501   5.956   0.701   2.063  0.0831 -2.1786 -0.3341
 9102TIP3    H251502   6.079   0.786   2.037  0.5618 -2.0543  2.0583
 9103TIP3   OH251503   2.622   0.420   2.732  0.1419 -0.5140  0.1072
 9103TIP3    H151504   2.550   0.483   2.731 -0.0665 -0.6361  2.2276
 9103TIP3    H251505   2.579   0.335   2.748  0.6120 -0.8404 -0.3507
 9104TIP3   OH251506   5.902   0.431   2.216  0.2176  0.0528 -0.1762
 9104TIP3    H151507   5.945   0.420   2.131  1.4487  1.5091  0.2140
 9104TIP3    H251508   5.872   0.522   2.216 -2.5800 -0.7772 -0.2510
 9105TIP3   OH251509   7.112   1.854   2.076  0.4000  0.3590  0.1844
 9105TIP3    H151510   7.023   1.886   2.061 -0.3279 -0.4014  2.5405
 9105TIP3    H251511   7.124   1.785   2.010 -1.7458 -1.2591  1.3816
 9106TIP3   OH251512   1.608   0.652   2.939 -0.4316 -0.2560 -0.7784
 9106TIP3    H151513   1.640   0.742   2.942 -0.2037 -0.3395 -0.6479
 9106TIP3    H251514   1.518   0.657   2.970 -0.1432 -0.1898  0.0899
 9107TIP3   OH251515   6.544   0.147   0.679 -0.2391 -0.1487  0.3859
 9107TIP3    H151516   6.524   0.053   0.676 -0.4530 -0.1776  1.9552
 9107TIP3    H251517   6.459   0.190   0.682 -0.1446  0.1219 -0.4477
 9108TIP3   OH251518   0.664   7.434   1.022 -0.1132 -0.0675 -0.5622
 9108TIP3    H151519   0.607   7.504   1.052  1.6067  1.7525 -1.2930
 9108TIP3    H251520   0.753   7.466   1.040  0.7541 -3.0183  1.1148
 9109TIP3   OH251521   4.456   3.507   2.028 -0.1436 -0.1664  0.3505
 9109TIP3    H151522   4.514   3.469   1.961 -0.7397 -0.4607 -0.0043
 9109TIP3    H251523   4.377   3.453   2.025  0.0504 -0.5538  1.7175
 9110TIP3   OH251524   7.584   1.919   1.621  0.2850  0.1827  0.2095
 9110TIP3    H151525   7.561   1.850   1.560 -2.5445  1.8715 -0.8128
 9110TIP3    H251526   7.597   1.997   1.567  1.4331  0.9333  1.4754
 9111TIP3   OH251527   4.864   1.711   2.739 -0.2516  0.3659 -0.1988
 9111TIP3    H151528   4.886   1.628   2.781  0.2334  0.7388  0.3082
 9111TIP3    H251529   4.854   1.772   2.812  0.3479  0.9679 -0.6156
 9112TIP3   OH251530   1.634   2.837   0.681  0.2437 -0.4125 -0.0254
 9112TIP3    H151531   1.646   2.906   0.615  2.4272  0.2211  0.9143
 9112TIP3    H251532   1.624   2.885   0.763 -3.0881 -1.1715  0.1229
 9113TIP3   OH251533   0.194   1.667   1.414  0.2189 -0.6159  0.4276
 9113TIP3    H151534   0.164   1.599   1.474 -0.3898 -1.4220 -0.7584
 9113TIP3    H251535   0.115   1.699   1.372  0.5500  0.5410  0.6688
 9114TIP3   OH251536   3.560   2.962   1.259 -0.2178 -0.2216  0.4663
 9114TIP3    H151537   3.540   2.936   1.349 -1.5899  1.7725  0.8041
 9114TIP3    H251538   3.475   2.984   1.221  0.3884 -0.6999 -1.2352
 9115TIP3   OH251539   2.471   6.235   1.134  0.5145  0.4510  0.4177
 9115TIP3    H151540   2.450   6.327   1.153 -0.0589  0.5169 -0.4761
 9115TIP3    H251541   2.427   6.185   1.203 -1.2804  0.7021 -0.4743
 9116TIP3   OH251542   1.914   2.513   1.440 -0.2510  0.3284  0.5690
 9116TIP3    H151543   1.852   2.447   1.409  2.4809 -2.0899 -0.1542
 9116TIP3    H251544   1.948   2.476   1.521  2.4153  0.0218 -0.6094
 9117TIP3   OH251545   1.824   5.679   3.047 -0.1212 -0.6450  0.0156
 9117TIP3    H151546   1.736   5.642   3.042 -0.3593 -0.4284  1.9082
 9117TIP3    H251547   1.844   5.679   3.140  1.2762  0.7432 -0.2600
 9118TIP3   OH251548   5.983   5.757   0.887 -0.4692 -0.1373 -0.6387
 9118TIP3    H151549   6.073   5.788   0.882 -0.0863 -0.7746  1.3936
 9118TIP3    H251550   5.982   5.676   0.835 -0.3041  0.6961 -1.9828
 9119TIP3   OH251551   2.237   5.953   3.441 -0.2208  0.0127  0.4314
 9119TIP3    H151552   2.172   5.994   3.385 -0.4539 -1.4774 -0.4184
 9119TIP3    H251553   2.258   5.871   3.398  1.3423 -0.0913  1.3204
 9120TIP3   OH251554   4.825   7.622   2.763  0.3003  0.3517  0.0068
 9120TIP3    H151555   4.854   7.692   2.705 -0.1644 -0.2770 -1.0187
 9120TIP3    H251556   4.783   7.667   2.836  2.9485  1.2692  1.1137
 9121TIP3   OH251557   0.938   4.824   2.296 -0.0204 -0.3473 -0.2052
 9121TIP3    H151558   0.874   4.892   2.314  1.0178  0.5608  0.1605
 9121TIP3    H251559   0.913   4.789   2.210 -0.6899  0.3341 -0.2940
 9122TIP3   OH251560   6.646   5.775   1.933 -0.0330  0.1397  0.0444
 9122TIP3    H151561   6.688   5.854   1.900 -1.9007  1.5554  0.8855
 9122TIP3    H251562   6.716   5.710   1.935  1.1735  1.2660 -2.2563
 9123TIP3   OH251563   6.730   3.107   1.909 -0.4447 -0.0460 -0.7066
 9123TIP3    H151564   6.705   3.115   2.001  0.8090  2.1216 -0.4774
 9123TIP3    H251565   6.732   3.198   1.878 -0.2674 -0.7029 -2.7204
 9124TIP3   OH251566   0.465   2.908   2.550 -0.4649 -0.2741 -0.0174
 9124TIP3    H151567   0.542   2.877   2.503  0.5419  1.9298  0.0397
 9124TIP3    H251568   0.431   2.979   2.497 -2.3652 -1.0356  0.0962
 9125TIP3   OH251569   6.122   7.612   1.647 -0.6357  0.0955  0.4726
 9125TIP3    H151570   6.180   7.684   1.674 -0.9126 -0.4024  2.4655
 9125TIP3    H251571   6.175   7.533   1.656 -0.9689 -0.1575  0.2588
 9126TIP3   OH251572   6.358   6.246   1.636  0.2117  0.2775 -0.3165
 9126TIP3    H151573   6.331   6.241   1.728 -0.8702  1.1655 -0.5687
 9126TIP3    H251574   6.339   6.336   1.611  0.0049 -0.1045 -1.5700
 9127TIP3   OH251575   6.769   2.887   1.715 -0.9024 -0.4896  0.4265
 9127TIP3    H151576   6.728   2.827   1.778 -0.1288 -0.5518  0.8774
 9127TIP3    H251577   6.744   2.974   1.745 -1.8330 -0.5574 -0.0941
 9128TIP3   OH251578   5.236   3.840   1.255 -0.0114 -0.1210 -0.5075
 9128TIP3    H151579   5.209   3.926   1.288 -1.4112 -1.0734  0.9849
 9128TIP3    H251580   5.283   3.800   1.328  0.4722 -0.7045 -1.1253
 9129TIP3   OH251581   0.164   6.132   1.978 -0.5838  0.5088 -0.1356
 9129TIP3    H151582   0.085   6.180   2.003 -0.6230  0.1792  0.3837
 9129TIP3    H251583   0.132   6.046   1.952 -0.3415  0.1585  0.6913
 9130TIP3   OH251584   6.958   3.365   1.364 -0.6334 -0.3129  0.1065
 9130TIP3    H151585   6.920   3.322   1.440  0.5936  1.3641  1.7923
 9130TIP3    H251586   6.885   3.378   1.303 -1.4912 -2.3793  0.6397
 9131TIP3   OH251587   7.355   3.568   1.447 -0.2277 -0.3627  0.1234
 9131TIP3    H151588   7.309   3.500   1.399  1.1280 -1.4784  0.3409
 9131TIP3    H251589   7.401   3.521   1.517  1.1521  0.6910 -0.0315
 9132TIP3   OH251590   0.149   3.866   2.518  0.0803 -0.0180 -0.2583
 9132TIP3    H151591   0.108   3.789   2.559 -1.5040  1.1604  0.4736
 9132TIP3    H251592   0.238   3.868   2.554 -1.0608  0.6535  2.8344
 9133TIP3   OH251593   3.452   0.694   2.583 -0.2704 -0.1766 -0.2252
 9133TIP3    H151594   3.395   0.662   2.514  0.8560 -1.6206 -0.5443
 9133TIP3    H251595   3.537   0.707   2.541  0.4857 -1.2481  0.8841
 9134TIP3   OH251596   6.923   0.827   1.464 -0.5042  0.7426  0.4231
 9134TIP3    H151597   6.948   0.917   1.442 -1.0935  0.7166 -0.4363
 9134TIP3    H251598   6.845   0.837   1.519 -1.2414  0.7686 -0.5793
 9135TIP3   OH251599   5.479   3.056   3.354  0.1286 -0.1235  0.7989
 9135TIP3    H151600   5.411   2.998   3.386  0.7476 -0.6275  1.2099
 9135TIP3    H251601   5.549   2.998   3.324  1.0031  0.3948  1.7590
 9136TIP3   OH251602   7.169   7.588   2.704 -0.3151 -0.5079 -0.0791
 9136TIP3    H151603   7.204   7.537   2.777  1.9153 -0.1655 -0.8383
 9136TIP3    H251604   7.242   7.597   2.643 -1.3687  1.4249 -1.1630
 9137TIP3   OH251605   6.163   6.531   2.224  0.1242 -0.0784  0.0820
 9137TIP3    H151606   6.085   6.521   2.170 -0.3795 -2.2748  1.0916
 9137TIP3    H251607   6.205   6.444   2.221  1.5453  0.5403  1.0295
 9138TIP3   OH251608   6.434   7.191   1.859 -0.4107 -0.3848 -0.4748
 9138TIP3    H151609   6.421   7.170   1.766 -0.1515  0.0959 -0.6226
 9138TIP3    H251610   6.465   7.109   1.898  2.4398  0.1264 -1.4101
 9139TIP3   OH251611   4.565   1.276   2.600  0.0976  0.3711  0.4526
 9139TIP3    H151612   4.594   1.241   2.684  1.0867  1.2344  0.4915
 9139TIP3    H251613   4.498   1.340   2.623 -1.0403 -0.7709  0.4372
 9140TIP3   OH251614   6.970   2.652   1.229  0.2716 -1.0246 -0.0014
 9140TIP3    H151615   7.016   2.731   1.257 -0.3306 -1.0250  1.0471
 9140TIP3    H251616   6.937   2.673   1.141  0.2396 -0.1639  0.2066
 9141TIP3   OH251617   3.092   2.667   2.829  0.2376  0.5121 -0.7218
 9141TIP3    H151618   3.037   2.746   2.832 -1.3888 -0.4867 -2.1345
 9141TIP3    H251619   3.082   2.628   2.916  0.3859  1.4352 -0.2831
 9142TIP3   OH251620   3.123   0.747   1.413 -0.4494  0.0439  0.1875
 9142TIP3    H151621   3.074   0.813   1.464 -0.4796  0.5522 -0.4817
 9142TIP3    H251622   3.169   0.798   1.346  1.3018 -0.3772  1.0080
 9143TIP3   OH251623   6.096   6.638   1.484 -0.1003  0.2848 -0.5149
 9143TIP3    H151624   6.188   6.613   1.497 -0.5012 -0.4315  1.3219
 9143TIP3    H251625   6.053   6.557   1.458 -0.0898  0.8028 -2.2142
 9144TIP3   OH251626   3.546   4.186   0.428  0.3432 -0.4413 -0.1530
 9144TIP3    H151627   3.531   4.096   0.399  1.5227 -0.3132 -1.2759
 9144TIP3    H251628   3.628   4.182   0.478 -0.9548 -0.4141  2.0900
 9145TIP3   OH251629   0.913   0.078   0.712  0.3498  0.5062 -0.3978
 9145TIP3    H151630   0.944   0.168   0.705  2.0837 -0.0213  0.0825
 9145TIP3    H251631   0.817   0.086   0.718  0.5281  2.3991  0.8128
 9146TIP3   OH251632   1.773   2.825   2.235 -0.3584  0.7668 -0.2334
 9146TIP3    H151633   1.805   2.867   2.155 -1.7543  1.5098 -0.4480
 9146TIP3    H251634   1.707   2.886   2.268 -2.2768 -1.1041 -0.4086
 9147TIP3   OH251635   1.831   4.482   2.687 -0.2926  0.1609 -0.2738
 9147TIP3    H151636   1.907   4.539   2.693 -0.1928  0.2762 -2.1683
 9147TIP3    H251637   1.780   4.501   2.766  1.9390 -0.4287  1.4352
 9148TIP3   OH251638   2.212   1.772   1.261 -0.0281 -0.1193 -0.0246
 9148TIP3    H151639   2.296   1.806   1.292  0.3234 -2.5863  2.1184
 9148TIP3    H251640   2.157   1.849   1.248  1.2394  1.3654  2.7189
 9149TIP3   OH251641   2.092   3.489   1.724 -0.0401  0.0059  0.3442
 9149TIP3    H151642   2.043   3.467   1.804  0.0004 -3.6003 -0.4299
 9149TIP3    H251643   2.049   3.567   1.690 -1.4313  0.3896  2.7503
 9150TIP3   OH251644   2.686   4.822   0.383  0.3498  0.3364  0.1456
 9150TIP3    H151645   2.707   4.907   0.422  0.4418  0.9651 -1.1951
 9150TIP3    H251646   2.658   4.844   0.293  0.8105 -1.0856 -0.3646
 9151TIP3   OH251647   4.528   3.554   2.476  0.1259 -0.4778  0.3646
 9151TIP3    H151648   4.575   3.624   2.430  1.5815 -0.4847  1.7802
 9151TIP3    H251649   4.554   3.474   2.430 -0.9626 -0.2010 -0.7901
 9152TIP3   OH251650   3.196   4.447   1.845  0.0046  0.2384 -0.5934
 9152TIP3    H151651   3.201   4.501   1.767  2.0297  0.2150 -0.5298
 9152TIP3    H251652   3.169   4.507   1.915  1.1878  0.9700 -0.7327
 9153TIP3   OH251653   1.741   0.747   2.636  0.5846 -0.0482 -0.0768
 9153TIP3    H151654   1.780   0.712   2.716  1.5162  1.8739  0.3672
 9153TIP3    H251655   1.792   0.706   2.566 -0.2893 -1.8051  0.2568
 9154TIP3   OH251656   1.336   0.877   2.028  0.2349  0.1240  0.0791
 9154TIP3    H151657   1.257   0.824   2.034  1.1425 -1.2832  0.2598
 9154TIP3    H251658   1.387   0.853   2.106  0.7417  1.1679  0.0899
 9155TIP3   OH251659   0.977   5.245   1.185  0.1147  0.0188 -0.4553
 9155TIP3    H151660   0.927   5.165   1.201 -1.1113  1.0653  1.2393
 9155TIP3    H251661   0.923   5.315   1.222  1.6959  1.4938 -0.8278
 9156TIP3   OH251662   3.048   3.309   2.146  0.3100  0.4532 -0.3520
 9156TIP3    H151663   3.041   3.313   2.242 -0.2855 -1.3031 -0.2795
 9156TIP3    H251664   2.974   3.254   2.119  0.7040  0.5916 -1.7952
 9157TIP3   OH251665   4.679   1.915   1.205  0.2544  0.1840  0.5415
 9157TIP3    H151666   4.655   1.851   1.138  1.0249  0.1678  0.2728
 9157TIP3    H251667   4.756   1.878   1.247  0.6115  0.8508  0.4905
 9158TIP3   OH251668   1.258   5.393   0.535  0.0315  1.2685  0.5119
 9158TIP3    H151669   1.179   5.409   0.586 -0.3795 -0.6224  0.5530
 9158TIP3    H251670   1.284   5.479   0.503 -1.8558  1.9865  0.7646
 9159TIP3   OH251671   5.819   1.205   2.485 -0.3145  0.3810  0.6185
 9159TIP3    H151672   5.800   1.116   2.515  0.3870  0.3252  0.9067
 9159TIP3    H251673   5.894   1.233   2.537 -0.2050  0.9506  0.1706
 9160TIP3   OH251674   4.283   4.526   0.940 -0.4999 -0.2727  0.4946
 9160TIP3    H151675   4.368   4.486   0.924 -1.4123 -1.8487 -0.6573
 9160TIP3    H251676   4.260   4.499   1.029  0.4363  0.7150  1.0803
 9161TIP3   OH251677   6.725   1.876   2.858  0.2617 -0.0622 -0.5435
 9161TIP3    H151678   6.687   1.934   2.792  1.7007  2.5916  0.8008
 9161TIP3    H251679   6.819   1.892   2.853  0.4389 -0.0913  1.8555
 9162TIP3   OH251680   1.460   1.693   1.968 -0.1559  0.0429  0.0027
 9162TIP3    H151681   1.371   1.667   1.942  0.4532 -2.0507 -0.1569
 9162TIP3    H251682   1.447   1.743   2.048 -1.5301  0.2926 -0.3498
 9163TIP3   OH251683   0.623   6.193   2.470  0.1943 -0.1283  0.1542
 9163TIP3    H151684   0.563   6.122   2.493  0.8884 -0.4773  0.9486
 9163TIP3    H251685   0.571   6.272   2.482  0.0438 -0.3888  1.4177
 9164TIP3   OH251686   2.767   4.323   2.216 -0.4266 -0.3998  0.3154
 9164TIP3    H151687   2.677   4.292   2.213 -0.3279 -0.6282 -1.2214
 9164TIP3    H251688   2.766   4.405   2.167  0.0208  0.1204  1.1534
 9165TIP3   OH251689   0.985   2.311   0.562  0.5378 -0.4937  0.0098
 9165TIP3    H151690   1.017   2.303   0.471 -0.7209  1.7556 -0.6922
 9165TIP3    H251691   1.065   2.323   0.614  1.2675 -1.6062 -0.7909
 9166TIP3   OH251692   2.476   5.598   2.434 -0.2789 -0.0436 -0.3061
 9166TIP3    H151693   2.439   5.679   2.468 -0.4426 -0.1927 -0.1264
 9166TIP3    H251694   2.405   5.534   2.442  0.4653 -0.7122  1.4342
 9167TIP3   OH251695   5.785   3.825   1.728 -0.0964  0.3441 -0.2582
 9167TIP3    H151696   5.825   3.797   1.646  1.1618  0.1253  0.4036
 9167TIP3    H251697   5.720   3.890   1.702 -1.3569 -1.3439 -1.6206
 9168TIP3   OH251698   3.999   3.988   2.579 -0.0609 -0.0692  0.0487
 9168TIP3    H151699   3.917   4.019   2.541  0.2014  0.6732  0.0759
 9168TIP3    H251700   4.040   3.936   2.510  0.6324  1.6434 -0.9022
 9169TIP3   OH251701   1.145   5.683   2.003 -0.3292  1.0400  0.0592
 9169TIP3    H151702   1.082   5.745   2.040  1.1002  3.1498 -0.8937
 9169TIP3    H251703   1.121   5.677   1.911 -0.1885  0.4893  0.0575
 9170TIP3   OH251704   6.113   6.990   2.472  0.0629  0.1992 -0.6311
 9170TIP3    H151705   6.038   6.998   2.413  0.2792 -0.3333 -0.9895
 9170TIP3    H251706   6.114   6.898   2.498  0.6228  0.1825 -0.6824
 9171TIP3   OH251707   3.769   1.695   2.686 -0.2036  0.2692  0.3379
 9171TIP3    H151708   3.855   1.681   2.644 -0.9427 -2.3394 -0.5388
 9171TIP3    H251709   3.755   1.789   2.682  0.7692  0.4280 -3.4368
 9172TIP3   OH251710   1.077   7.354   1.506 -0.3439 -0.1706  0.2222
 9172TIP3    H151711   1.077   7.365   1.601  1.7428  1.0401  0.1374
 9172TIP3    H251712   1.142   7.286   1.491  1.9973  2.0846 -0.4790
 9173TIP3   OH251713   5.685   0.779   3.424 -0.3509  0.1396  0.4068
 9173TIP3    H151714   5.723   0.795   3.511 -0.2690  1.6162  0.1319
 9173TIP3    H251715   5.676   0.684   3.419  0.6558 -0.0515  1.6006
 9174TIP3   OH251716   0.040   2.081   1.886  0.3592 -0.0123 -0.1135
 9174TIP3    H151717   0.021   1.994   1.851  1.2739 -1.2760  2.3669
 9174TIP3    H251718  -0.047   2.120   1.901 -0.1006  0.5390 -3.3471
 9175TIP3   OH251719   5.484   6.887   1.710 -0.2313  0.5016 -0.5803
 9175TIP3    H151720   5.492   6.963   1.652 -1.9474 -0.3725 -2.0574
 9175TIP3    H251721   5.399   6.898   1.753  0.2390  0.2270  0.4652
 9176TIP3   OH251722   4.124   6.638   0.963 -0.0103 -0.5304 -0.2490
 9176TIP3    H151723   4.123   6.580   1.040  0.6380 -0.0380  0.1401
 9176TIP3    H251724   4.216   6.664   0.954 -0.2737  0.3571 -0.4772
 9177TIP3   OH251725   6.755   5.688   1.591 -0.0911  0.0398  0.0377
 9177TIP3    H151726   6.766   5.705   1.498  1.4275  0.8691  0.3449
 9177TIP3    H251727   6.791   5.601   1.604  0.7248  0.3744  0.0334
 9178TIP3   OH251728   0.442   1.053   1.747  0.7042  0.3575 -0.0072
 9178TIP3    H151729   0.462   1.139   1.783 -0.6590  0.3517  0.8437
 9178TIP3    H251730   0.486   0.991   1.805 -2.2525  0.2977  2.4145
 9179TIP3   OH251731   2.374   4.518   0.496  0.1840 -0.2417 -0.0328
 9179TIP3    H151732   2.377   4.433   0.540 -0.8087  0.1298  0.8004
 9179TIP3    H251733   2.352   4.498   0.405  0.4611 -0.9099  0.0470
 9180TIP3   OH251734   4.026   7.215   2.540  0.3233 -0.2945 -0.1312
 9180TIP3    H151735   4.016   7.291   2.483  1.5235  0.1617  0.2380
 9180TIP3    H251736   4.007   7.248   2.627 -1.1119 -0.8985 -0.1907
 9181TIP3   OH251737   1.215   2.646   0.803  0.0562 -0.0237 -0.2939
 9181TIP3    H151738   1.257   2.590   0.738 -0.7264 -0.1180 -0.7327
 9181TIP3    H251739   1.187   2.586   0.872  0.0256 -0.0584 -0.3362
 9182TIP3   OH251740   2.436   4.708   2.948  0.0218  0.0691  0.1398
 9182TIP3    H151741   2.494   4.719   3.023 -0.9289 -0.2047  0.9437
 9182TIP3    H251742   2.487   4.657   2.885 -0.1839 -2.5172  1.8909
 9183TIP3   OH251743   4.964   7.360   1.188 -0.1512 -0.0492 -0.0636
 9183TIP3    H151744   5.018   7.439   1.193  0.4830 -0.3776 -1.2604
 9183TIP3    H251745   4.898   7.381   1.122 -0.5335 -0.2080  0.2676
 9184TIP3   OH251746   6.299   3.558   1.823  0.6013 -0.3746  0.6104
 9184TIP3    H151747   6.385   3.590   1.851  0.3752  0.9311 -0.0793
 9184TIP3    H251748   6.239   3.629   1.847  0.0638 -0.2758 -0.9206
 9185TIP3   OH251749   6.450   5.577   1.557  0.3565  0.1799 -0.5521
 9185TIP3    H151750   6.442   5.616   1.644 -0.5114 -0.6351 -0.2541
 9185TIP3    H251751   6.530   5.524   1.562 -0.1138 -0.5014  0.0217
 9186TIP3   OH251752   1.729   7.184   1.749 -0.3711  0.0469  0.2805
 9186TIP3    H151753   1.696   7.223   1.667 -1.4568  0.8092  1.0531
 9186TIP3    H251754   1.731   7.090   1.731 -0.0229  0.2412 -0.8113
 9187TIP3   OH251755   1.290   2.929   1.327 -0.2302 -1.0885  0.3290
 9187TIP3    H151756   1.231   2.954   1.398 -0.2575  1.2255 -0.4186
 9187TIP3    H251757   1.363   2.884   1.370 -0.0856  0.5507  1.8905
 9188TIP3   OH251758   4.001   4.428   1.821 -0.5390 -0.0230 -0.2880
 9188TIP3    H151759   4.061   4.372   1.770 -0.2913 -0.1626  0.1566
 9188TIP3    H251760   3.969   4.371   1.891 -0.7209  0.2326 -0.1630
 9189TIP3   OH251761   6.700   1.321   2.174 -0.4311  0.5748  0.1406
 9189TIP3    H151762   6.686   1.375   2.096 -0.5240 -1.0421 -1.0125
 9189TIP3    H251763   6.789   1.341   2.201 -0.0409  0.4601 -0.9855
 9190TIP3   OH251764   7.305   0.574   2.781 -0.1559  0.5688  0.1186
 9190TIP3    H151765   7.272   0.550   2.695  1.1106 -1.4686  0.1313
 9190TIP3    H251766   7.242   0.535   2.843  0.6582 -0.8528  0.1048
 9191TIP3   OH251767   2.932   3.275   1.311  0.4247 -0.0217 -0.4675
 9191TIP3    H151768   2.928   3.300   1.218 -2.4057  1.5376 -0.0338
 9191TIP3    H251769   2.920   3.180   1.311 -1.0856  0.1328 -1.6720
 9192TIP3   OH251770   2.153   6.769   0.727  0.1158  0.1740 -0.3576
 9192TIP3    H151771   2.137   6.834   0.658  1.6537  0.3775 -0.5607
 9192TIP3    H251772   2.149   6.685   0.681  5.3163  0.3743 -1.8362
 9193TIP3   OH251773   6.019   1.106   1.278  0.3252  0.0680  0.3662
 9193TIP3    H151774   5.979   1.032   1.323  0.7740  0.1896  0.9733
 9193TIP3    H251775   6.071   1.150   1.345  0.7512  0.4326 -0.1927
 9194TIP3   OH251776   2.654   6.028   1.475  0.0377  0.4271 -0.1610
 9194TIP3    H151777   2.659   6.123   1.491 -0.7899  0.8256 -2.0349
 9194TIP3    H251778   2.561   6.011   1.461  0.1320 -0.7600  0.5746
 9195TIP3   OH251779   4.341   1.972   1.438 -0.2676  0.0085  0.6868
 9195TIP3    H151780   4.349   1.899   1.377 -1.0095 -0.9123  1.6411
 9195TIP3    H251781   4.412   2.031   1.414 -0.1243 -0.6396 -0.6182
 9196TIP3   OH251782   0.617   2.773   0.797 -0.0416 -0.1919 -0.5130
 9196TIP3    H151783   0.536   2.738   0.760 -0.7116 -0.2124  0.9141
 9196TIP3    H251784   0.639   2.713   0.868  0.1923  0.8464  0.3141
 9197TIP3   OH251785   4.956   4.429   1.014 -0.3313 -0.4957 -0.1060
 9197TIP3    H151786   4.951   4.386   0.928 -1.5869  0.1284 -0.3518
 9197TIP3    H251787   4.925   4.518   0.999 -1.5748 -0.6785  1.1947
 9198TIP3   OH251788   5.018   1.391   1.188  1.1480  0.6040 -0.5518
 9198TIP3    H151789   5.089   1.452   1.169  2.4005  0.3337  2.5429
 9198TIP3    H251790   5.054   1.305   1.166  1.7949  0.4818  0.8692
 9199TIP3   OH251791   1.568   2.833   2.594 -0.1958  0.5071  0.0909
 9199TIP3    H151792   1.571   2.742   2.622  0.4573  0.1921 -0.9546
 9199TIP3    H251793   1.498   2.836   2.529 -0.9847  1.0149  0.9231
 9200TIP3   OH251794   7.558   4.094   1.782  0.3457  0.2081  0.4015
 9200TIP3    H151795   7.636   4.057   1.740 -0.6774  0.3805 -1.8243
 9200TIP3    H251796   7.540   4.036   1.855  1.7000 -0.7057  0.0483
 9201TIP3   OH251797   4.582   1.412   3.437 -0.1655 -0.9366  0.4290
 9201TIP3    H151798   4.519   1.431   3.507  0.0012  1.4024 -0.0056
 9201TIP3    H251799   4.546   1.334   3.394 -1.7428 -0.7947  1.4020
 9202TIP3   OH251800   1.187   0.079   3.002 -0.0032  0.1179  0.0266
 9202TIP3    H151801   1.269   0.093   3.049  0.3485 -0.3278 -0.4390
 9202TIP3    H251802   1.140   0.013   3.052  0.0494  0.1648  0.1369
 9203TIP3   OH251803   6.264   3.782   2.909  0.4709  0.0195 -0.3319
 9203TIP3    H151804   6.349   3.762   2.870  1.5321 -0.2037  1.9266
 9203TIP3    H251805   6.226   3.696   2.929  0.0462  0.1308 -0.6437
 9204TIP3   OH251806   0.861   2.875   0.715  0.0625  0.7302 -0.2505
 9204TIP3    H151807   0.922   2.809   0.681  0.7221  1.4843 -0.5863
 9204TIP3    H251808   0.778   2.829   0.725 -0.0342  0.3079 -2.4002
 9205TIP3   OH251809   5.521   5.553   1.236 -0.1173 -0.0415 -0.0027
 9205TIP3    H151810   5.500   5.485   1.301 -1.3012 -1.3456 -1.6699
 9205TIP3    H251811   5.440   5.602   1.226  0.3246  0.7375  0.1178
 9206TIP3   OH251812   1.886   2.904   1.999  0.0852  0.1047  0.0260
 9206TIP3    H151813   1.825   2.935   1.932 -0.0445 -0.1131  0.0421
 9206TIP3    H251814   1.965   2.956   1.986  0.8022 -1.2868 -1.5822
 9207TIP3   OH251815   4.652   2.462   2.263  0.3889  0.5587  0.2870
 9207TIP3    H151816   4.685   2.392   2.207 -0.9511 -0.7231  1.0321
 9207TIP3    H251817   4.705   2.456   2.343 -1.6364 -1.6979  1.6080
 9208TIP3   OH251818   6.738   4.136   1.055  0.0361  0.0786  0.2917
 9208TIP3    H151819   6.724   4.140   1.150 -0.7156 -1.3070  0.2734
 9208TIP3    H251820   6.832   4.144   1.044  0.3660 -1.6937  1.3392
 9209TIP3   OH251821   4.471   2.044   0.870 -0.0442  0.5683  0.2901
 9209TIP3    H151822   4.444   2.033   0.961  1.3780  1.7741  0.9001
 9209TIP3    H251823   4.537   1.976   0.857 -0.3564  0.2987  0.1040
 9210TIP3   OH251824   4.537   7.567   2.157  0.2278 -0.0736  0.0637
 9210TIP3    H151825   4.456   7.522   2.181 -0.1159  0.6093  0.2033
 9210TIP3    H251826   4.554   7.628   2.228  1.7719 -1.3430  0.8483
 9211TIP3   OH251827   0.759   1.718   1.809  0.2104  0.1875 -0.2493
 9211TIP3    H151828   0.728   1.699   1.721 -0.7286  2.2670 -0.4322
 9211TIP3    H251829   0.850   1.747   1.797 -0.9689  4.1829 -1.1928
 9212TIP3   OH251830   1.424   2.158   1.619 -0.5581 -0.2650 -0.0213
 9212TIP3    H151831   1.509   2.171   1.577 -0.1442 -0.1712  0.8172
 9212TIP3    H251832   1.441   2.092   1.686 -0.4257  1.8167  2.1438
 9213TIP3   OH251833   2.552   6.636   0.584  0.0753  0.0527 -0.5533
 9213TIP3    H151834   2.485   6.582   0.544 -1.5745  1.9828 -0.5421
 9213TIP3    H251835   2.505   6.689   0.649  1.6048  1.3976 -0.4743
 9214TIP3   OH251836   4.588   6.116   3.152  0.8752 -1.0719  0.1050
 9214TIP3    H151837   4.568   6.120   3.245 -0.3940 -0.4985 -0.1628
 9214TIP3    H251838   4.503   6.130   3.109  1.7661  0.9667 -1.1383
 9215TIP3   OH251839   0.133   7.658   0.939  0.2611  0.2932  0.6682
 9215TIP3    H151840   0.048   7.676   0.898  0.1215  0.8517  1.1848
 9215TIP3    H251841   0.161   7.743   0.973  1.1111  0.1457  0.3471
 9216TIP3   OH251842   5.531   3.693   2.300 -0.2414 -0.2256  0.1757
 9216TIP3    H151843   5.487   3.748   2.235 -1.1774  1.8136  2.4221
 9216TIP3    H251844   5.462   3.663   2.358  0.6859 -1.2959  0.7729
 9217TIP3   OH251845   1.370   5.762   2.262  0.3159  0.1737  0.3918
 9217TIP3    H151846   1.431   5.708   2.212  0.3191 -0.9393  1.5283
 9217TIP3    H251847   1.306   5.792   2.198  1.8608  1.1377 -0.7807
 9218TIP3   OH251848   3.136   5.836   1.064 -0.0142 -0.2577 -0.2501
 9218TIP3    H151849   3.132   5.770   0.994 -1.0040  0.7634 -1.1961
 9218TIP3    H251850   3.054   5.884   1.056 -0.4423 -0.5222  2.0708
 9219TIP3   OH251851   1.600   3.214   0.857  0.3207  0.0732  0.9677
 9219TIP3    H151852   1.579   3.170   0.939 -1.9377 -0.8549 -0.0158
 9219TIP3    H251853   1.553   3.164   0.790  2.5796  0.4244 -0.9972
 9220TIP3   OH251854   7.552   2.369   1.838  0.0771 -0.4884 -0.4108
 9220TIP3    H151855   7.555   2.429   1.912 -1.4994  1.1583 -1.5850
 9220TIP3    H251856   7.481   2.309   1.859  0.3631 -0.7249 -0.1088
 9221TIP3   OH251857   4.231   6.421   2.851 -0.1402 -0.3478 -0.0013
 9221TIP3    H151858   4.280   6.490   2.896  0.0522  0.6929 -1.6964
 9221TIP3    H251859   4.205   6.360   2.920 -0.3166  1.4265  1.5749
 9222TIP3   OH251860   6.505   6.103   2.228  0.3393 -0.2745  0.1402
 9222TIP3    H151861   6.461   6.042   2.168 -0.8874 -0.6307  1.3637
 9222TIP3    H251862   6.460   6.092   2.311  1.0468  1.2898  0.7668
 9223TIP3   OH251863   5.355   5.538   1.920  0.2250  0.1214  0.3272
 9223TIP3    H151864   5.281   5.588   1.886 -0.0893  1.1358  2.3779
 9223TIP3    H251865   5.423   5.603   1.938  0.0742 -0.2326  2.3767
 9224TIP3   OH251866   4.325   1.131   1.861 -0.0139 -0.4763  0.4133
 9224TIP3    H151867   4.247   1.102   1.910 -0.8966 -0.3405 -0.8730
 9224TIP3    H251868   4.292   1.154   1.775  1.4147 -0.0400 -0.0423
 9225TIP3   OH251869   6.377   3.935   1.523  0.1104 -0.0298 -0.1896
 9225TIP3    H151870   6.355   3.905   1.612  0.8887 -1.4266 -0.4556
 9225TIP3    H251871   6.349   3.864   1.466 -0.6829  0.9964 -1.1279
 9226TIP3   OH251872   5.253   1.986   2.831 -0.1843  0.1446 -0.0102
 9226TIP3    H151873   5.198   2.061   2.852 -0.8640 -0.2228 -0.4469
 9226TIP3    H251874   5.193   1.912   2.826  0.6401 -0.6838  1.6386
 9227TIP3   OH251875   3.299   3.267   2.013 -0.2617 -0.2708  0.3783
 9227TIP3    H151876   3.331   3.263   2.103 -0.3161  2.8586  0.6491
 9227TIP3    H251877   3.205   3.284   2.022 -1.0383 -3.4981 -0.3903
 9228TIP3   OH251878   5.478   3.869   2.115 -0.0032  0.5926 -0.5257
 9228TIP3    H151879   5.474   3.837   2.025 -1.3596 -0.8485  0.0114
 9228TIP3    H251880   5.434   3.954   2.111 -1.0270  0.0653 -1.0537
 9229TIP3   OH251881   0.325   4.121   2.406 -0.6086 -0.6168  0.4604
 9229TIP3    H151882   0.356   4.159   2.489  0.5114 -0.9720  0.2201
 9229TIP3    H251883   0.230   4.131   2.410 -0.5333 -0.1055  1.5356
 9230TIP3   OH251884   1.170   4.877   1.810  0.1441  0.1980  0.2852
 9230TIP3    H151885   1.173   4.797   1.862 -1.9186  0.8064  1.4531
 9230TIP3    H251886   1.210   4.943   1.866  0.2676  0.3344  0.0364
 9231TIP3   OH251887   2.548   1.455   0.970  0.7035 -0.2078  0.1514
 9231TIP3    H151888   2.465   1.437   1.014  0.3919  1.1598  0.1688
 9231TIP3    H251889   2.524   1.495   0.887  1.3186  1.1299  0.5752
 9232TIP3   OH251890   7.353   2.709   1.766  0.5213 -0.0599  0.3813
 9232TIP3    H151891   7.387   2.636   1.715 -1.6392 -1.3398  0.6516
 9232TIP3    H251892   7.334   2.777   1.700  0.3042 -0.6574 -0.1810
 9233TIP3   OH251893   2.177   7.554   1.007  0.0406  0.0415  0.8558
 9233TIP3    H151894   2.269   7.574   0.988  0.3775  0.2786  2.5359
 9233TIP3    H251895   2.134   7.639   1.014 -0.8299 -0.0781 -1.9941
 9234TIP3   OH251896   3.179   1.605   1.486 -0.0009 -0.6766  0.5825
 9234TIP3    H151897   3.207   1.643   1.403  2.0825 -0.2238  1.4401
 9234TIP3    H251898   3.083   1.603   1.480 -0.0211  1.4638 -0.8857
 9235TIP3   OH251899   2.604   6.677   1.315 -0.5177 -0.1334 -0.2093
 9235TIP3    H151900   2.563   6.720   1.240 -1.2648 -1.9931 -0.9493
 9235TIP3    H251901   2.553   6.597   1.327  1.6737 -1.5613  0.1229
 9236TIP3   OH251902   4.391   6.205   0.877  0.3742  0.0957  0.6104
 9236TIP3    H151903   4.393   6.195   0.782  1.7542 -0.5785  0.6767
 9236TIP3    H251904   4.402   6.299   0.891 -1.9602  0.4851  0.0993
 9237TIP3   OH251905   5.070   4.765   0.954  0.3607  0.3864 -0.3838
 9237TIP3    H151906   5.000   4.746   1.016 -0.4358  1.0744 -1.0459
 9237TIP3    H251907   5.137   4.809   1.007  0.1721 -0.0161  0.2003
 9238TIP3   OH251908   5.109   0.926   2.174  0.3859 -0.3033 -0.7533
 9238TIP3    H151909   5.041   0.875   2.131  1.2367 -0.8753 -1.4742
 9238TIP3    H251910   5.079   1.016   2.169 -1.4424 -0.7338  1.0861
 9239TIP3   OH251911   0.075   5.405   0.932 -0.0490 -1.0478  0.0241
 9239TIP3    H151912   0.088   5.473   0.866 -0.8928 -0.1878  0.7201
 9239TIP3    H251913   0.161   5.396   0.975 -0.4274  1.1681  1.3920
 9240TIP3   OH251914   1.666   4.792   2.737 -0.0963 -0.3739  0.2641
 9240TIP3    H151915   1.610   4.719   2.762  1.0130 -0.6509  2.1277
 9240TIP3    H251916   1.617   4.870   2.761  0.4141 -0.6187  2.2851
 9241TIP3   OH251917   4.530   0.253   1.692 -0.0512 -0.3098  0.1483
 9241TIP3    H151918   4.458   0.232   1.751 -0.4600 -0.4218 -0.3799
 9241TIP3    H251919   4.494   0.238   1.604  0.7013 -0.6220 -0.1113
 9242TIP3   OH251920   5.268   1.234   0.582  0.3780  0.0932 -0.2423
 9242TIP3    H151921   5.305   1.178   0.650 -0.5560 -1.4355 -0.9559
 9242TIP3    H251922   5.181   1.258   0.614  0.0792 -0.3311 -0.7227
 9243TIP3   OH251923   3.690   2.195   2.805  0.2099  0.3387  1.0171
 9243TIP3    H151924   3.621   2.259   2.790 -0.8132 -0.9071  0.1520
 9243TIP3    H251925   3.771   2.246   2.808 -0.6882  1.7766  1.5382
 9244TIP3   OH251926   4.213   3.384   2.013 -0.2607  0.3722  0.4119
 9244TIP3    H151927   4.144   3.440   2.047  0.2397  1.6749 -0.5827
 9244TIP3    H251928   4.183   3.359   1.926  0.7860  1.5815 -0.3488
 9245TIP3   OH251929   7.144   0.693   1.929 -0.0538 -0.1590 -0.1242
 9245TIP3    H151930   7.106   0.756   1.869  0.5625 -0.3405 -0.7221
 9245TIP3    H251931   7.212   0.649   1.878  0.1178 -0.6935  0.5434
 9246TIP3   OH251932   0.319   6.770   2.338  0.0412  0.2185  0.0235
 9246TIP3    H151933   0.385   6.770   2.268  0.9182 -0.4815  0.8150
 9246TIP3    H251934   0.359   6.823   2.407  0.8157 -2.0358  1.4055
 9247TIP3   OH251935   2.135   4.970   2.891 -0.1434 -0.0005  0.5402
 9247TIP3    H151936   2.217   5.020   2.888  0.2497 -0.6023  0.9902
 9247TIP3    H251937   2.094   4.996   2.974 -0.3356  0.1793  0.3905
 9248TIP3   OH251938   3.414   5.479   0.985  0.1798 -0.0698 -0.4736
 9248TIP3    H151939   3.493   5.458   0.935 -0.6401 -0.4492 -1.6563
 9248TIP3    H251940   3.429   5.443   1.072  1.1071 -0.5689 -0.8364
 9249TIP3   OH251941   6.360   0.469   2.528  0.4057  0.3315  0.3605
 9249TIP3    H151942   6.298   0.499   2.595 -0.0765  2.2987 -0.8870
 9249TIP3    H251943   6.305   0.454   2.450  1.3774  1.4603 -0.5706
 9250TIP3   OH251944   7.329   5.565   1.919  0.4248  0.0772 -0.0474
 9250TIP3    H151945   7.393   5.539   1.985 -0.1658 -0.8967  0.1643
 9250TIP3    H251946   7.279   5.486   1.902 -0.0504  0.5644 -0.9721
 9251TIP3   OH251947   2.530   3.494   2.188  0.9411  0.0349 -0.3682
 9251TIP3    H151948   2.575   3.551   2.250  2.7226 -0.6054 -0.9980
 9251TIP3    H251949   2.540   3.538   2.104  0.8763 -0.4068 -0.6065
 9252TIP3   OH251950   1.464   3.964   1.451  0.6714 -0.2824 -0.6393
 9252TIP3    H151951   1.538   4.018   1.425  1.6663 -2.4787 -2.6899
 9252TIP3    H251952   1.395   4.027   1.473  1.9871  1.8149 -2.1767
 9253TIP3   OH251953   2.624   6.751   3.265 -0.0951 -0.1635  0.3587
 9253TIP3    H151954   2.689   6.822   3.268  0.7227 -0.8963  2.8058
 9253TIP3    H251955   2.540   6.796   3.261  0.4448  0.9371  0.8022
 9254TIP3   OH251956   7.033   1.640   1.481 -0.2626  0.0826 -0.1694
 9254TIP3    H151957   7.031   1.708   1.413  1.6539  1.6861  1.2712
 9254TIP3    H251958   7.095   1.672   1.546 -0.0998 -2.5911  1.1374
 9255TIP3   OH251959   6.774   7.418   0.848  0.2690 -0.4974 -0.1813
 9255TIP3    H151960   6.801   7.487   0.909  0.7152 -0.5844 -0.2786
 9255TIP3    H251961   6.765   7.340   0.903 -0.1678 -0.3824 -0.0834
 9256TIP3   OH251962   6.604   7.485   1.690 -0.4769  0.1714 -0.3203
 9256TIP3    H151963   6.550   7.495   1.768  0.0706  1.0016 -0.0315
 9256TIP3    H251964   6.600   7.570   1.646  1.0010  0.4362 -0.0062
 9257TIP3   OH251965   2.523   0.448   1.157 -0.1362  0.1987  0.2908
 9257TIP3    H151966   2.604   0.500   1.159 -0.6635  1.1322 -1.4033
 9257TIP3    H251967   2.515   0.419   1.066 -0.3306 -2.1809  0.9874
 9258TIP3   OH251968   4.195   3.694   0.954  0.4215 -0.3482 -0.1599
 9258TIP3    H151969   4.222   3.750   1.027 -2.1558  1.4228 -0.4307
 9258TIP3    H251970   4.174   3.611   0.995  0.3858  0.1674  0.9116
 9259TIP3   OH251971   0.527   5.608   1.219  0.9891 -0.4798 -0.2620
 9259TIP3    H151972   0.546   5.519   1.191 -0.1710 -0.4678 -1.1281
 9259TIP3    H251973   0.501   5.654   1.139 -2.9050 -0.5556  0.7650
 9260TIP3   OH251974   5.164   1.208   2.636 -0.3294  0.4167 -0.1065
 9260TIP3    H151975   5.134   1.279   2.579 -0.9444  0.3624  0.1424
 9260TIP3    H251976   5.237   1.247   2.685 -0.1034  0.6075 -0.5813
 9261TIP3   OH251977   6.080   3.086   1.968 -0.6303  0.9335 -0.3495
 9261TIP3    H151978   6.063   3.129   2.052 -2.9632  1.6488 -1.1095
 9261TIP3    H251979   6.151   3.137   1.929  0.5008  0.5775  1.1657
 9262TIP3   OH251980   6.474   4.152   1.836  1.1226  0.3817  0.0586
 9262TIP3    H151981   6.428   4.230   1.865  0.3149  0.0879 -0.4030
 9262TIP3    H251982   6.542   4.185   1.777  2.1343  0.8920  1.4641
 9263TIP3   OH251983   6.024   3.652   0.822  0.7684 -0.1255  1.0615
 9263TIP3    H151984   5.983   3.589   0.882 -1.3882 -0.4636 -0.6406
 9263TIP3    H251985   6.085   3.600   0.770 -0.1939 -0.6349  0.4085
 9264TIP3   OH251986   6.729   0.546   0.687  0.0386  0.3315  0.3098
 9264TIP3    H151987   6.739   0.595   0.605 -0.8409  0.0718  0.0336
 9264TIP3    H251988   6.655   0.588   0.731  0.6655  0.6327  1.1007
 9265TIP3   OH251989   1.710   5.604   2.337  0.3406 -0.4448 -0.2458
 9265TIP3    H151990   1.662   5.633   2.415  1.2883 -0.0779  0.2186
 9265TIP3    H251991   1.680   5.662   2.267  0.0386 -0.2795  0.0161
 9266TIP3   OH251992   0.981   1.622   1.627  0.7231  0.2723 -0.0764
 9266TIP3    H151993   1.020   1.649   1.544  1.6247  0.6559  0.4535
 9266TIP3    H251994   0.889   1.606   1.606  1.2029 -0.9993 -1.4450
 9267TIP3   OH251995   2.617   5.559   2.170  0.0237  0.1393 -0.3777
 9267TIP3    H151996   2.623   5.575   2.264 -1.6100  0.1417 -0.2553
 9267TIP3    H251997   2.624   5.646   2.130 -2.0007  0.4836 -0.0805
 9268TIP3   OH251998   3.375   5.617   1.337  0.0948  0.2570 -0.1076
 9268TIP3    H151999   3.385   5.522   1.332 -0.5146  0.1542  0.4218
 9268TIP3    H252000   3.425   5.651   1.263  1.0582 -0.4205  0.2097
 9269TIP3   OH252001   0.620   4.959   1.684 -0.1372  0.6954 -0.0505
 9269TIP3    H152002   0.706   4.966   1.641  0.2282 -0.0943  0.5402
 9269TIP3    H252003   0.557   4.975   1.613  0.4500 -0.7311 -0.9456
 9270TIP3   OH252004   7.528   3.867   1.923 -0.0742 -0.4794  0.3964
 9270TIP3    H152005   7.623   3.859   1.932 -0.2064 -2.0732  0.6695
 9270TIP3    H252006   7.493   3.841   2.008 -0.8192 -2.2270 -0.3817
 9271TIP3   OH252007   2.936   6.031   1.029  0.5529 -0.1582 -0.6082
 9271TIP3    H152008   2.881   6.094   1.075 -0.7135 -0.2668 -1.8914
 9271TIP3    H252009   2.977   6.081   0.959  2.8215  0.1067  0.8294
 9272TIP3   OH252010   3.321   2.543   3.765  0.2411  0.0053  0.0172
 9272TIP3    H152011   3.408   2.503   3.760  0.9931  1.7150 -1.6072
 9272TIP3    H252012   3.264   2.481   3.718  1.0231 -0.0552 -0.8734
 9273TIP3   OH252013   0.728   6.302   1.311 -0.3262 -0.3476 -0.5885
 9273TIP3    H152014   0.656   6.294   1.374  0.3206 -0.0970  0.1985
 9273TIP3    H252015   0.694   6.361   1.244 -1.4503 -1.5244 -1.1129
 9274TIP3   OH252016   5.837   6.925   2.854 -0.6167 -0.0065 -0.0686
 9274TIP3    H152017   5.743   6.917   2.841 -1.0046 -1.4207  2.8965
 9274TIP3    H252018   5.869   6.835   2.857  0.6459  0.4269  0.0798
 9275TIP3   OH252019   2.401   2.215   1.283  0.2260 -0.0360  0.0706
 9275TIP3    H152020   2.427   2.213   1.375  0.2149  0.4322  0.0881
 9275TIP3    H252021   2.435   2.134   1.246  2.5219  0.9297 -0.1217
 9276TIP3   OH252022   6.600   1.594   2.996  0.1426 -0.6310  0.4248
 9276TIP3    H152023   6.664   1.662   2.976 -1.2289  0.8583  0.8255
 9276TIP3    H252024   6.643   1.538   3.061  1.7910 -0.9928 -0.9125
 9277TIP3   OH252025   7.532   0.383   1.546  0.1593 -0.0769 -0.0710
 9277TIP3    H152026   7.558   0.340   1.464  1.2066  1.6930 -0.7039
 9277TIP3    H252027   7.454   0.434   1.522 -0.4658 -0.7610  0.4389
 9278TIP3   OH252028   3.251   3.301   1.217 -0.3151 -0.5231  0.2095
 9278TIP3    H152029   3.307   3.336   1.286 -0.3374  0.1178 -0.0889
 9278TIP3    H252030   3.162   3.324   1.245 -0.4159 -1.3507  0.5773
 9279TIP3   OH252031   0.388   1.161   1.256 -0.3681 -0.1052  0.4293
 9279TIP3    H152032   0.311   1.218   1.252  0.5451  1.1450 -0.0456
 9279TIP3    H252033   0.435   1.190   1.334  0.9374  0.9669 -0.6906
 9280TIP3   OH252034   4.124   3.551   0.719 -0.3018  0.4981 -0.6008
 9280TIP3    H152035   4.035   3.558   0.752  0.0376 -1.8941  1.1153
 9280TIP3    H252036   4.177   3.600   0.783  0.1872 -3.0057  2.0072
 9281TIP3   OH252037   6.481   0.101   1.363 -0.1580 -0.8681 -0.4325
 9281TIP3    H152038   6.509   0.081   1.452  0.3301 -1.9894 -0.8237
 9281TIP3    H252039   6.513   0.190   1.347  0.8991 -1.1450  0.0543
 9282TIP3   OH252040   6.445   6.883   3.177 -0.5938 -0.1226  0.2882
 9282TIP3    H152041   6.440   6.949   3.108  3.5323  0.8454  0.6281
 9282TIP3    H252042   6.446   6.800   3.130 -1.4529  0.2839 -0.4910
 9283TIP3   OH252043   5.223   1.501   0.627 -0.2516  0.1518 -0.3330
 9283TIP3    H152044   5.293   1.554   0.666 -0.0374 -1.1768  1.1895
 9283TIP3    H252045   5.268   1.423   0.595 -0.7738  0.1731 -1.1265
 9284TIP3   OH252046   4.563   0.205   2.651 -0.6972  0.3744  0.4232
 9284TIP3    H152047   4.509   0.130   2.625  0.1199 -0.0940  0.0439
 9284TIP3    H252048   4.592   0.242   2.569 -1.2426  1.2351  0.6070
 9285TIP3   OH252049   2.066   0.565   3.040 -0.3494 -0.0628 -0.4129
 9285TIP3    H152050   2.022   0.522   2.967 -1.9787  0.8471 -0.0132
 9285TIP3    H252051   2.130   0.500   3.070 -0.8706 -1.1402 -1.5069
 9286TIP3   OH252052   2.186   6.137   0.867 -0.0680  0.1966 -0.2566
 9286TIP3    H152053   2.244   6.149   0.792 -0.4110 -0.1880 -0.5907
 9286TIP3    H252054   2.112   6.088   0.832 -1.7017  2.5666 -0.3628
 9287TIP3   OH252055   0.984   2.857   2.110 -0.3828 -0.1208  0.0826
 9287TIP3    H152056   1.039   2.935   2.116  0.2215 -0.6247  1.5900
 9287TIP3    H252057   1.025   2.794   2.169 -0.3232 -1.9541 -1.8104
 9288TIP3   OH252058   5.087   0.362   2.376 -0.3432  0.1821  0.3391
 9288TIP3    H152059   5.036   0.329   2.303 -0.0813 -1.2106  0.7525
 9288TIP3    H252060   5.036   0.435   2.411 -0.2577  1.1650 -1.4681
 9289TIP3   OH252061   2.586   7.212   3.267 -0.1995  0.6020 -0.6528
 9289TIP3    H152062   2.531   7.169   3.332 -0.3287 -0.1138 -1.2227
 9289TIP3    H252063   2.548   7.299   3.257 -1.5621 -0.0420 -1.4048
 9290TIP3   OH252064   2.146   2.157   0.362 -0.0258  0.0876 -0.0865
 9290TIP3    H152065   2.076   2.179   0.424 -0.6073 -0.8090 -0.4082
 9290TIP3    H252066   2.114   2.189   0.278 -0.8489 -1.7757 -0.5486
 9291TIP3   OH252067   6.641   7.469   1.293 -0.5659 -0.4453 -0.0760
 9291TIP3    H152068   6.599   7.538   1.243  0.6937  0.3395 -0.1084
 9291TIP3    H252069   6.688   7.515   1.363  0.2196 -1.2605 -0.0413
 9292TIP3   OH252070   6.580   1.412   1.350  0.1526 -0.1772  0.4639
 9292TIP3    H152071   6.631   1.339   1.314  1.3840 -0.2773  2.2736
 9292TIP3    H252072   6.636   1.488   1.338 -0.5606  0.2518 -0.2005
 9293TIP3   OH252073   1.834   6.297   2.104 -0.3448  0.2307  0.2881
 9293TIP3    H152074   1.844   6.275   2.011  0.4044 -0.4963  0.5294
 9293TIP3    H252075   1.763   6.241   2.134  1.9306 -2.4920  1.0403
 9294TIP3   OH252076   0.742   7.666   1.762 -0.1431 -0.2827  1.2303
 9294TIP3    H152077   0.805   7.733   1.737 -0.5902  0.7628  2.7594
 9294TIP3    H252078   0.731   7.612   1.683 -0.0127  1.6123 -0.1476
 9295TIP3   OH252079   0.005   4.591   1.765 -0.3836 -0.0423  0.3686
 9295TIP3    H152080   0.050   4.510   1.740 -1.3311 -1.4074  2.7365
 9295TIP3    H252081   0.069   4.639   1.816 -0.2176  0.1087  0.0186
 9296TIP3   OH252082   4.836   2.063   1.821 -0.2650 -0.1953  0.0755
 9296TIP3    H152083   4.930   2.067   1.839 -0.1570 -0.1913 -0.4976
 9296TIP3    H252084   4.828   2.012   1.741 -0.6785  0.7131 -0.4748
 9297TIP3   OH252085   4.415   3.677   2.225  0.7002  0.2819  0.0087
 9297TIP3    H152086   4.437   3.608   2.162 -0.7578  1.2702 -1.6611
 9297TIP3    H252087   4.493   3.684   2.281  1.1914 -2.1254 -0.2861
 9298TIP3   OH252088   6.189   0.821   2.798 -0.5190 -0.5988 -0.1538
 9298TIP3    H152089   6.229   0.852   2.717  0.4109  0.7651  0.7734
 9298TIP3    H252090   6.264   0.795   2.852 -1.0666 -0.6752  0.5772
 9299TIP3   OH252091   2.707   3.728   1.751 -0.0828 -0.6608  0.5187
 9299TIP3    H152092   2.693   3.638   1.722 -0.6452  0.0513 -1.6644
 9299TIP3    H252093   2.641   3.779   1.704  0.7315  0.9872  1.0696
 9300TIP3   OH252094   6.400   1.572   3.601 -0.2239 -0.3122  0.5205
 9300TIP3    H152095   6.398   1.492   3.549 -0.7773  0.4979 -0.7380
 9300TIP3    H252096   6.394   1.643   3.537  0.8650  0.7686  1.5598
 9301TIP3   OH252097   3.778   5.010   1.880  0.1573  0.4854  0.2707
 9301TIP3    H152098   3.734   4.941   1.929 -0.3917  0.0828 -0.7445
 9301TIP3    H252099   3.779   5.085   1.939 -1.0780  0.2238  0.6485
 9302TIP3   OH252100   7.450   1.677   2.646  0.3717 -0.6378 -0.3280
 9302TIP3    H152101   7.370   1.722   2.618 -0.0832 -0.5286  1.0403
 9302TIP3    H252102   7.492   1.739   2.705  0.8983 -1.1344 -0.1799
 9303TIP3   OH252103   5.694   1.142   3.354 -0.6231  0.5978  0.2739
 9303TIP3    H152104   5.760   1.102   3.410 -0.0044 -0.9128 -1.4452
 9303TIP3    H252105   5.637   1.070   3.329  0.3580  0.7400 -2.6993
 9304TIP3   OH252106   3.263   2.317   1.456  0.3817  0.1981  0.2622
 9304TIP3    H152107   3.255   2.346   1.547  1.2041  0.3861  0.2885
 9304TIP3    H252108   3.279   2.223   1.462 -1.0345 -0.0540  0.2371
 9305TIP3   OH252109   7.548   3.704   1.679 -0.1366 -0.5324  0.6235
 9305TIP3    H152110   7.557   3.796   1.706  1.1150 -1.5953  4.3585
 9305TIP3    H252111   7.458   3.682   1.700 -1.8829  0.7526 -4.2333
 9306TIP3   OH252112   2.568   5.682   0.562 -1.0732 -0.0414 -0.3332
 9306TIP3    H152113   2.577   5.685   0.657 -0.7612  1.9879 -0.3820
 9306TIP3    H252114   2.654   5.654   0.530 -0.7045  0.7799 -0.0669
 9307TIP3   OH252115   7.325   6.510   1.346 -0.1906  0.1872 -0.1124
 9307TIP3    H152116   7.276   6.471   1.417 -0.5817 -1.3477 -1.1757
 9307TIP3    H252117   7.388   6.442   1.320 -0.5040  0.4353 -1.6434
 9308TIP3   OH252118   4.679   5.738   1.221  0.1055  0.4756  0.4983
 9308TIP3    H152119   4.593   5.703   1.247  0.0171 -0.9390 -1.4584
 9308TIP3    H252120   4.737   5.716   1.294 -1.0286  0.8329  1.5504
 9309TIP3   OH252121   3.726   6.701   1.742 -0.1766 -0.4186  0.9047
 9309TIP3    H152122   3.729   6.705   1.837  1.7984 -0.7641  0.9052
 9309TIP3    H252123   3.678   6.621   1.722 -0.2615 -0.5449  1.6022
 9310TIP3   OH252124   1.348   5.913   1.196  0.0769 -0.0214 -0.3336
 9310TIP3    H152125   1.373   5.903   1.288  0.6778 -0.8813 -0.5773
 9310TIP3    H252126   1.285   5.985   1.196 -0.0783 -0.1386  0.7765
 9311TIP3   OH252127   6.726   3.401   1.186  0.1347 -0.1870  0.1199
 9311TIP3    H152128   6.683   3.318   1.204 -1.0982  0.6288  1.0228
 9311TIP3    H252129   6.682   3.434   1.107  0.5247 -0.3103 -0.1532
 9312TIP3   OH252130   4.299   2.512   2.688  0.5169  0.7244  0.1262
 9312TIP3    H152131   4.316   2.500   2.781  1.7226 -0.3350 -0.2160
 9312TIP3    H252132   4.367   2.573   2.658  0.5616  0.5139 -0.2062
 9313TIP3   OH252133   6.988   1.951   2.869  0.2037  0.3520  0.2529
 9313TIP3    H152134   7.053   1.961   2.799 -0.1942  1.3062  0.0062
 9313TIP3    H252135   6.994   2.032   2.919  1.0631 -0.6443  1.8670
 9314TIP3   OH252136   0.011   6.031   0.800 -0.0242 -0.3177  0.2009
 9314TIP3    H152137   0.040   6.088   0.728 -0.4113 -1.9900 -1.3659
 9314TIP3    H252138  -0.070   6.071   0.832 -1.1564 -0.7559 -1.9304
 9315TIP3   OH252139   6.521   2.741   0.847 -0.1529 -0.0517 -0.3333
 9315TIP3    H152140   6.523   2.662   0.900  4.8419  0.2082  0.3134
 9315TIP3    H252141   6.483   2.807   0.905 -0.1651 -1.0006  0.7686
 9316TIP3   OH252142   1.358   0.081   1.474 -0.3511  0.0112  0.5928
 9316TIP3    H152143   1.439   0.091   1.524 -0.2400  1.2554  0.1924
 9316TIP3    H252144   1.291   0.068   1.541  0.1380 -0.7899  0.9393
 9317TIP3   OH252145   2.901   5.461   2.628 -0.3652 -0.8442  0.3486
 9317TIP3    H152146   2.990   5.455   2.592 -0.2667 -0.3649  0.5048
 9317TIP3    H252147   2.865   5.542   2.592 -0.0406 -0.0205  1.7737
 9318TIP3   OH252148   0.630   6.887   1.554  0.5007 -0.4359 -0.4825
 9318TIP3    H152149   0.662   6.925   1.472  1.1053  1.6922  0.6632
 9318TIP3    H252150   0.704   6.894   1.615 -0.5093 -0.2349  0.7733
 9319TIP3   OH252151   7.132   1.892   2.358 -0.1041 -0.0606  0.1662
 9319TIP3    H152152   7.104   1.892   2.266  1.3109  0.3392 -0.2830
 9319TIP3    H252153   7.071   1.952   2.402 -0.4373  0.1816 -0.6112
 9320TIP3   OH252154   5.300   6.428   0.787  0.2207 -0.1876  0.0174
 9320TIP3    H152155   5.205   6.429   0.790  0.1936 -1.3331  0.1633
 9320TIP3    H252156   5.323   6.335   0.783  1.3771  0.0069  1.2443
 9321TIP3   OH252157   4.222   0.919   2.730  0.0913  0.3190 -0.0358
 9321TIP3    H152158   4.199   0.884   2.817  2.5401 -1.8337 -0.1187
 9321TIP3    H252159   4.229   1.013   2.743 -2.6823  0.4609  1.2711
 9322TIP3   OH252160   0.414   3.677   1.755  0.1044 -0.2309 -0.5571
 9322TIP3    H152161   0.443   3.642   1.671 -0.9351 -0.1218 -0.9729
 9322TIP3    H252162   0.489   3.729   1.786  0.5885 -0.4728 -1.2950
 9323TIP3   OH252163   0.014   5.904   2.136 -0.2579  0.0574 -0.7660
 9323TIP3    H152164   0.014   5.833   2.073  1.0096  0.0085 -0.7446
 9323TIP3    H252165  -0.078   5.919   2.156 -0.6190 -0.6160 -1.8396
 9324TIP3   OH252166   0.825   0.004   0.985  0.1448 -0.6517  0.3045
 9324TIP3    H152167   0.839  -0.021   0.893 -0.7157 -1.4659  0.3822
 9324TIP3    H252168   0.911  -0.007   1.026  0.4684 -0.5678 -0.3374
 9325TIP3   OH252169   2.084   1.336   0.781  0.0287  0.4638 -0.4059
 9325TIP3    H152170   2.056   1.295   0.862 -0.2629  0.4598 -0.5086
 9325TIP3    H252171   2.115   1.423   0.808  2.6478 -0.5300  0.1259
 9326TIP3   OH252172   5.613   1.363   2.395  0.3298  0.2202  0.0734
 9326TIP3    H152173   5.638   1.395   2.309  0.5623  0.2216  0.1392
 9326TIP3    H252174   5.685   1.305   2.420 -0.5345 -1.1445 -0.4675
 9327TIP3   OH252175   2.311   3.913   2.811  0.5621 -0.1603 -0.8228
 9327TIP3    H152176   2.221   3.919   2.778 -0.1288  1.7312  1.1625
 9327TIP3    H252177   2.337   3.823   2.792 -1.2948 -0.4118 -2.5306
 9328TIP3   OH252178   6.812   4.449   1.362  0.3834 -0.3220  0.3581
 9328TIP3    H152179   6.890   4.440   1.307  1.2563  0.8216  1.3348
 9328TIP3    H252180   6.824   4.383   1.431  0.7495  0.1698  0.7760
 9329TIP3   OH252181   2.192   2.450   0.473 -0.2082  0.0120 -0.0164
 9329TIP3    H152182   2.169   2.541   0.455 -0.6764 -0.7139 -4.0085
 9329TIP3    H252183   2.110   2.402   0.458  0.4894 -1.2308  0.0987
 9330TIP3   OH252184   4.947   2.226   1.200 -0.6234 -0.3618 -0.3996
 9330TIP3    H152185   5.015   2.286   1.166 -2.3443  0.6824 -2.2286
 9330TIP3    H252186   4.940   2.158   1.133 -1.9723  0.0328 -0.6869
 9331TIP3   OH252187   4.720   2.518   0.980  0.0118 -0.3833 -0.1112
 9331TIP3    H152188   4.780   2.501   0.907 -0.1419 -1.5871  0.0236
 9331TIP3    H252189   4.673   2.436   0.993 -0.1482 -0.1145  1.1858
 9332TIP3   OH252190   4.301   6.739   2.049 -0.3472 -0.3000  0.4830
 9332TIP3    H152191   4.301   6.779   2.136 -2.1908  0.9574 -0.0226
 9332TIP3    H252192   4.221   6.688   2.046 -0.0327 -0.7633 -0.2993
 9333TIP3   OH252193   1.515   6.624   2.058 -0.2043 -0.0627 -0.3016
 9333TIP3    H152194   1.590   6.576   2.023  0.4844  0.9569 -0.2374
 9333TIP3    H252195   1.478   6.564   2.123  0.0806 -0.8840 -0.8667
 9334TIP3   OH252196   5.145   5.890   1.409 -0.3317  0.4054 -0.2079
 9334TIP3    H152197   5.199   5.942   1.468  2.1405 -1.2859 -0.8381
 9334TIP3    H252198   5.190   5.805   1.403 -2.0083 -0.4387 -2.3209
 9335TIP3   OH252199   2.868   6.495   0.881  0.1816  0.4807 -0.4105
 9335TIP3    H152200   2.908   6.580   0.864  0.3980  0.5582  0.4623
 9335TIP3    H252201   2.879   6.481   0.975 -0.3095 -0.2791 -0.4557
 9336TIP3   OH252202   6.541   6.070   2.861  0.1390 -0.3329 -0.4622
 9336TIP3    H152203   6.468   6.113   2.906 -0.2350 -1.3019 -0.1274
 9336TIP3    H252204   6.607   6.057   2.930  0.9436  1.1764 -0.9055
 9337TIP3   OH252205   0.666   3.881   2.717  0.3768 -0.7818 -0.1043
 9337TIP3    H152206   0.682   3.945   2.787 -0.5854 -0.8616  0.2069
 9337TIP3    H252207   0.746   3.829   2.713  0.6886 -0.3617  0.5017
 9338TIP3   OH252208   1.640   5.046   2.118 -0.3204  0.6193  0.2122
 9338TIP3    H152209   1.699   4.970   2.121  0.8564  1.5256  1.1513
 9338TIP3    H252210   1.676   5.100   2.048 -0.7207  0.6484  0.0313
 9339TIP3   OH252211   1.371   1.034   3.152 -0.3062 -0.0599 -0.1902
 9339TIP3    H152212   1.440   1.100   3.156 -2.1178  1.8856  0.8118
 9339TIP3    H252213   1.295   1.080   3.117 -1.6272 -1.6178  0.4856
 9340TIP3   OH252214   6.094   4.903   2.124  0.3371 -0.1432  0.1041
 9340TIP3    H152215   6.037   4.975   2.153  0.3206  0.1161 -0.5506
 9340TIP3    H252216   6.128   4.865   2.205  0.2424  0.5214  0.4627
 9341TIP3   OH252217   4.318   2.196   2.641 -0.6833 -0.0482 -0.0619
 9341TIP3    H152218   4.387   2.241   2.689  1.2519 -5.1280  2.7075
 9341TIP3    H252219   4.364   2.156   2.567 -1.9850  1.0278 -1.5164
 9342TIP3   OH252220   2.522   6.072   2.205  0.1134  0.4494 -0.0863
 9342TIP3    H152221   2.508   5.983   2.171 -1.1706  0.5494  0.1387
 9342TIP3    H252222   2.527   6.127   2.126  2.4586  0.0314 -0.3170
 9343TIP3   OH252223   4.626   2.303   2.510  0.4914  0.4236  0.8633
 9343TIP3    H152224   4.718   2.285   2.490 -0.0704 -0.9752 -0.7022
 9343TIP3    H252225   4.581   2.220   2.491 -1.2409  1.3950  0.5397
 9344TIP3   OH252226   5.554   5.717   1.932  0.2501  0.4459 -0.3219
 9344TIP3    H152227   5.588   5.732   2.020  1.0087  0.5930 -0.6314
 9344TIP3    H252228   5.553   5.803   1.891 -0.2126  0.3953 -0.4249
 9345TIP3   OH252229   3.113   1.738   1.264 -0.1970 -0.5027  0.1520
 9345TIP3    H152230   3.045   1.782   1.213 -0.6702 -0.4428  0.8244
 9345TIP3    H252231   3.194   1.753   1.215 -0.1147  2.1619  0.9293
 9346TIP3   OH252232   3.305   5.818   0.720 -0.0062  0.0575  0.4753
 9346TIP3    H152233   3.281   5.907   0.693  1.4736  0.1388 -0.7133
 9346TIP3    H252234   3.338   5.777   0.640  1.1316 -0.9145  1.4167
 9347TIP3   OH252235   2.302   5.207   1.439 -0.4254 -0.4766  0.1506
 9347TIP3    H152236   2.380   5.254   1.468 -0.4098  0.0777 -0.7484
 9347TIP3    H252237   2.236   5.276   1.428 -0.2889 -0.5782 -1.5726
 9348TIP3   OH252238   2.620   4.942   0.987 -0.5274 -0.2729 -0.4144
 9348TIP3    H152239   2.666   4.934   0.904 -0.9625 -1.1652 -0.5774
 9348TIP3    H252240   2.680   4.906   1.052 -0.8265 -1.0900 -0.5764
 9349TIP3   OH252241   7.547   2.166   3.296  0.5527 -0.6287 -0.1210
 9349TIP3    H152242   7.530   2.081   3.338 -2.3640  1.4873  3.5843
 9349TIP3    H252243   7.602   2.213   3.359  0.9716  0.7620 -1.4628
 9350TIP3   OH252244   0.595   6.273   0.801 -0.1755  0.0060 -0.0969
 9350TIP3    H152245   0.551   6.270   0.887 -0.4314  0.9775 -0.1844
 9350TIP3    H252246   0.623   6.364   0.792  0.0113 -0.1355 -0.9684
 9351TIP3   OH252247   7.206   5.991   2.167 -0.2909 -0.2830 -0.1951
 9351TIP3    H152248   7.118   5.963   2.144  0.0330 -1.1047 -0.4682
 9351TIP3    H252249   7.215   5.971   2.260 -0.9390  1.2971  0.2485
 9352TIP3   OH252250   2.097   2.848   1.104 -0.4533 -0.0757  0.4870
 9352TIP3    H152251   2.063   2.759   1.115 -1.2397 -0.1017 -1.7309
 9352TIP3    H252252   2.067   2.894   1.183 -1.4369 -1.3661  0.9105
 9353TIP3   OH252253   3.107   0.407   0.601  0.3685  0.5626 -0.5464
 9353TIP3    H152254   3.097   0.338   0.537  1.0949  0.8460 -0.9822
 9353TIP3    H252255   3.041   0.389   0.667  0.0085 -0.0708 -1.0736
 9354TIP3   OH252256   4.450   6.615   2.899 -0.0464 -0.6378  0.3932
 9354TIP3    H152257   4.513   6.682   2.926 -0.9415  0.5611 -0.4317
 9354TIP3    H252258   4.498   6.562   2.835  0.1394  0.3063 -0.2789
 9355TIP3   OH252259   4.799   4.767   2.715 -0.2326  0.1284 -0.2456
 9355TIP3    H152260   4.734   4.762   2.785  0.7347  1.4701  0.8079
 9355TIP3    H252261   4.862   4.699   2.737 -1.2404 -1.1940 -1.2846
 9356TIP3   OH252262   7.037   6.003   2.902  0.0284  0.0473  0.1035
 9356TIP3    H152263   7.079   6.089   2.904 -0.9508  0.5261  1.2036
 9356TIP3    H252264   6.996   5.994   2.988  1.6778 -2.3409  0.7655
 9357TIP3   OH252265   0.948   3.250   2.462 -0.2483  0.2299  0.0606
 9357TIP3    H152266   1.033   3.259   2.505  0.9740  1.1790 -2.3932
 9357TIP3    H252267   0.885   3.256   2.534  1.7096 -0.3416  1.9400
 9358TIP3   OH252268   0.924   3.297   0.444  0.1107 -0.0117 -0.2082
 9358TIP3    H152269   0.896   3.388   0.460  0.2033  0.0005 -0.1163
 9358TIP3    H252270   0.903   3.251   0.525 -0.2736 -0.1536 -0.3867
 9359TIP3   OH252271   2.607   1.582   1.720 -0.2447 -0.1180  0.1600
 9359TIP3    H152272   2.565   1.596   1.805  0.1315 -0.4482  0.4045
 9359TIP3    H252273   2.652   1.498   1.729 -0.2473 -0.1831 -0.3879
 9360TIP3   OH252274   0.315   5.453   1.023  0.2883 -0.0064 -0.5029
 9360TIP3    H152275   0.402   5.420   1.000 -0.0382 -0.3106 -1.3408
 9360TIP3    H252276   0.315   5.543   0.991  0.3206  0.0201 -0.4294
 9361TIP3   OH252277   4.106   5.120   2.006 -0.0507  0.1510  0.4190
 9361TIP3    H152278   4.138   5.095   2.093  0.6400 -2.8956 -0.5779
 9361TIP3    H252279   4.026   5.170   2.023  1.0385  1.2754  2.7983
 9362TIP3   OH252280   0.647   1.887   3.379  0.1430  0.0787 -0.3297
 9362TIP3    H152281   0.645   1.925   3.467  0.2874  1.8032 -1.0311
 9362TIP3    H252282   0.738   1.861   3.365  0.6247  1.8989 -0.7839
 9363TIP3   OH252283   3.326   6.908   2.046  0.0690 -0.1039  0.6048
 9363TIP3    H152284   3.255   6.969   2.028  1.3392  1.3424  0.3157
 9363TIP3    H252285   3.307   6.876   2.134 -0.8095  0.4468  0.6320
 9364TIP3   OH252286   6.136   2.689   2.823  0.3921 -0.0069  0.6621
 9364TIP3    H152287   6.170   2.756   2.883 -1.0180  0.0680  1.4217
 9364TIP3    H252288   6.162   2.720   2.736  1.4990  0.4665  1.1372
 9365TIP3   OH252289   6.149   5.382   3.051  0.3265  0.1970 -0.7654
 9365TIP3    H152290   6.204   5.321   3.002  1.9897  1.4358 -0.5593
 9365TIP3    H252291   6.185   5.468   3.029  0.2477  0.8837  1.5398
 9366TIP3   OH252292   1.164   6.158   1.563 -0.0283  0.2842  0.1426
 9366TIP3    H152293   1.104   6.102   1.514  0.0528  0.8987 -0.6936
 9366TIP3    H252294   1.244   6.158   1.511 -0.3771  2.0056 -0.4621
 9367TIP3   OH252295   1.609   2.625   0.535  0.1691 -0.1801 -0.2662
 9367TIP3    H152296   1.676   2.558   0.552 -1.4831 -1.5939  1.0859
 9367TIP3    H252297   1.630   2.696   0.595  0.8339 -0.3021 -0.3406
 9368TIP3   OH252298   6.660   1.840   3.696 -0.1761 -0.6001 -0.5209
 9368TIP3    H152299   6.604   1.891   3.755  0.3289 -1.6203  0.8931
 9368TIP3    H252300   6.616   1.756   3.689  0.3560 -0.8629 -0.7142
 9369TIP3   OH252301   2.732   3.930   1.937 -0.0253  0.2806  0.8301
 9369TIP3    H152302   2.732   3.862   1.870  2.5176  1.5083 -0.5813
 9369TIP3    H252303   2.644   3.968   1.934  0.0701  0.4866 -2.1109
 9370TIP3   OH252304   1.807   4.418   1.827  0.4506  0.0186  0.1979
 9370TIP3    H152305   1.847   4.333   1.810  0.6297  0.6411 -3.2483
 9370TIP3    H252306   1.727   4.418   1.774  0.2850  1.8830  0.3795
 9371TIP3   OH252307   6.303   7.477   2.329  0.1415 -0.1474 -0.0911
 9371TIP3    H152308   6.255   7.405   2.371 -0.1505  0.1521  0.0901
 9371TIP3    H252309   6.383   7.436   2.296 -0.1977 -0.6415 -0.3251
 9372TIP3   OH252310   0.397   3.703   0.934 -0.7546 -0.3115 -0.1039
 9372TIP3    H152311   0.427   3.646   1.005  0.2704 -1.7826 -1.6413
 9372TIP3    H252312   0.446   3.784   0.946 -2.3804  0.4172  2.2410
 9373TIP3   OH252313   2.561   7.277   1.419 -0.0430  0.1602 -0.2308
 9373TIP3    H152314   2.653   7.267   1.441  0.1353  1.3951 -0.3236
 9373TIP3    H252315   2.558   7.262   1.324  0.0509  0.0781 -0.2215
 9374TIP3   OH252316   4.605   7.635   1.206  0.0228  0.1111  0.4123
 9374TIP3    H152317   4.682   7.681   1.172 -0.0797  1.7036  2.1906
 9374TIP3    H252318   4.538   7.647   1.138  1.7723 -3.1072 -2.1977
 9375TIP3   OH252319   6.720   5.984   1.072 -0.5126 -0.0056 -0.2840
 9375TIP3    H152320   6.649   5.959   1.012 -0.8425  0.0956  0.0640
 9375TIP3    H252321   6.792   5.926   1.048 -0.6157  0.0833 -0.8357
 9376TIP3   OH252322   4.958   3.262   2.076 -0.2565 -1.0726 -0.3979
 9376TIP3    H152323   5.050   3.271   2.048 -0.4618  2.0688 -0.4652
 9376TIP3    H252324   4.954   3.309   2.159 -1.9705 -0.2683 -0.8950
 9377TIP3   OH252325   3.593   5.405   3.263  0.2438  0.2367 -0.3141
 9377TIP3    H152326   3.652   5.382   3.191  0.6938 -0.7643  0.3399
 9377TIP3    H252327   3.619   5.346   3.334 -1.1481  0.2002  0.1929
 9378TIP3   OH252328   1.595   1.410   2.503  0.9616 -0.5218 -0.4704
 9378TIP3    H152329   1.629   1.326   2.471 -1.8038 -2.6224  1.5342
 9378TIP3    H252330   1.595   1.400   2.598 -2.5322  0.2976 -0.2634
 9379TIP3   OH252331   3.041   0.868   3.020  0.4280 -0.1460 -0.0281
 9379TIP3    H152332   3.046   0.806   3.092  0.4337 -0.9920 -0.7441
 9379TIP3    H252333   3.001   0.819   2.948 -0.3144  0.9123 -0.3639
 9380TIP3   OH252334   2.505   3.166   0.933  0.2798  0.1394  0.0056
 9380TIP3    H152335   2.507   3.247   0.983  0.9977  0.6644 -0.8275
 9380TIP3    H252336   2.555   3.103   0.985  0.6160  0.5402  0.1667
 9381TIP3   OH252337   5.432   4.124   0.789 -0.0978 -0.3849  0.2596
 9381TIP3    H152338   5.520   4.094   0.767 -0.0870  1.0210 -1.8437
 9381TIP3    H252339   5.420   4.099   0.881  2.6047 -0.3062  0.6941
 9382TIP3   OH252340   5.664   5.269   1.666  0.5972  0.5788  0.0210
 9382TIP3    H152341   5.643   5.360   1.685 -0.0744  1.0085 -2.3935
 9382TIP3    H252342   5.740   5.274   1.608 -0.6362 -0.2339 -1.7480
 9383TIP3   OH252343   6.067   7.199   3.863  0.1509 -0.1759 -0.0978
 9383TIP3    H152344   5.998   7.263   3.881 -0.6037 -0.8929 -0.4192
 9383TIP3    H252345   6.021   7.117   3.847  0.9916 -0.4242 -1.4646
 9384TIP3   OH252346   5.123   0.957   0.689  0.1929  0.2791 -0.6672
 9384TIP3    H152347   5.032   0.959   0.661  0.3876  0.6724 -1.3000
 9384TIP3    H252348   5.156   0.873   0.658 -0.2113 -0.2938  0.4229
 9385TIP3   OH252349   3.589   1.717   3.177 -0.0016 -0.3239  0.1026
 9385TIP3    H152350   3.514   1.776   3.190  1.0696  0.9687  0.6318
 9385TIP3    H252351   3.551   1.629   3.179 -1.3017  0.2230  1.9918
 9386TIP3   OH252352   4.295   1.910   2.671  0.0247  0.2528 -0.4785
 9386TIP3    H152353   4.333   1.982   2.721 -0.6690  0.4514 -0.2262
 9386TIP3    H252354   4.242   1.953   2.603  1.7716  0.0037 -2.0659
 9387TIP3   OH252355   7.192   3.802   2.144 -0.2496 -0.4205  0.3467
 9387TIP3    H152356   7.288   3.808   2.147 -0.2993  0.7318  0.3194
 9387TIP3    H252357   7.173   3.780   2.053  0.0196 -1.9859  0.6384
 9388TIP3   OH252358   3.745   4.020   2.466 -0.3062 -0.3981  0.2262
 9388TIP3    H152359   3.684   4.046   2.535 -0.5050 -1.0830  0.3198
 9388TIP3    H252360   3.693   4.021   2.386 -0.6858 -1.7849  0.4233
 9389TIP3   OH252361   1.926   6.639   1.757 -0.5407 -0.0588  0.5446
 9389TIP3    H152362   2.009   6.683   1.775  0.8579 -1.5183 -1.7604
 9389TIP3    H252363   1.894   6.681   1.677 -0.8411 -0.9923  0.1614
 9390TIP3   OH252364   1.980   6.726   1.505 -0.3670  0.3198  0.6166
 9390TIP3    H152365   2.045   6.785   1.543  0.2107 -0.7170  1.2889
 9390TIP3    H252366   1.914   6.784   1.468  0.3346  1.3869  0.9788
 9391TIP3   OH252367   3.998   6.158   2.479 -0.2139  0.1323  0.4848
 9391TIP3    H152368   3.913   6.127   2.449  0.9361 -0.0880 -3.0193
 9391TIP3    H252369   4.038   6.081   2.521 -0.1914 -1.0881 -1.6237
 9392TIP3   OH252370   2.806   5.033   0.542  0.2877 -0.3295 -0.7090
 9392TIP3    H152371   2.767   5.120   0.555 -0.3160 -0.5070 -1.2964
 9392TIP3    H252372   2.804   4.993   0.628  1.1716  0.4752 -0.2874
 9393TIP3   OH252373   7.430   5.907   2.967  0.3856  0.7216  0.4309
 9393TIP3    H152374   7.508   5.925   3.020  0.6694  2.0894 -0.3971
 9393TIP3    H252375   7.395   5.994   2.946 -0.3727  0.1707 -0.6588
 9394TIP3   OH252376   2.157   4.016   1.412  0.4622 -0.0065 -0.5159
 9394TIP3    H152377   2.232   4.058   1.454 -0.1993 -0.4895  1.2340
 9394TIP3    H252378   2.186   3.927   1.393 -0.0832 -0.6665  1.5238
 9395TIP3   OH252379   5.148   5.766   2.594 -0.4069  0.2112  0.4018
 9395TIP3    H152380   5.106   5.777   2.509 -0.7086  1.4805  0.7037
 9395TIP3    H252381   5.195   5.848   2.609 -0.5516  0.0999  1.5688
 9396TIP3   OH252382   5.454   2.526   3.769  0.5560 -0.5101 -0.0067
 9396TIP3    H152383   5.375   2.488   3.809  2.9148 -1.8579  3.9747
 9396TIP3    H252384   5.488   2.455   3.714 -0.6955 -0.0831 -1.3835
 9397TIP3   OH252385   6.927   3.038   1.283  0.6207 -0.5019  0.6767
 9397TIP3    H152386   6.870   3.019   1.358 -2.1174  1.8856 -0.5835
 9397TIP3    H252387   6.873   3.020   1.206  1.3167  2.2748 -0.6059
 9398TIP3   OH252388   2.052   4.619   2.673  0.1459 -0.2781  0.4411
 9398TIP3    H152389   2.037   4.713   2.662  1.3845 -0.2432 -1.3845
 9398TIP3    H252390   2.116   4.613   2.744 -1.4935  0.0769  2.0257
 9399TIP3   OH252391   6.200   7.345   1.679 -0.2246  0.2412 -0.0289
 9399TIP3    H152392   6.160   7.325   1.764 -1.5196 -1.4567 -0.9713
 9399TIP3    H252393   6.231   7.260   1.647 -3.8851 -0.1813 -3.2147
 9400TIP3   OH252394   5.611   1.460   2.107 -0.1647 -0.4308 -0.0958
 9400TIP3    H152395   5.690   1.431   2.062 -0.7213 -1.9367 -0.1716
 9400TIP3    H252396   5.542   1.403   2.074 -0.7319 -1.1227  2.1032
 9401TIP3   OH252397   1.719   4.539   2.928 -0.2272 -0.0446 -0.0138
 9401TIP3    H152398   1.794   4.543   2.988 -0.7560 -1.5843  0.8086
 9401TIP3    H252399   1.646   4.575   2.979 -0.5097 -0.6516  0.0307
 9402TIP3   OH252400   3.910   7.408   2.283  0.3250  0.5390 -1.0789
 9402TIP3    H152401   3.934   7.497   2.308  0.5827  0.4279 -0.9301
 9402TIP3    H252402   3.984   7.377   2.231 -0.8777  1.3440 -3.4235
 9403TIP3   OH252403   6.087   3.680   2.664  0.6411  1.0011 -0.1437
 9403TIP3    H152404   6.164   3.737   2.659  0.9335  0.5169 -1.3104
 9403TIP3    H252405   6.045   3.688   2.579  1.3021 -1.3531 -0.7518
 9404TIP3   OH252406   0.359   3.989   1.332  0.1102 -0.3409  0.6501
 9404TIP3    H152407   0.264   3.980   1.319 -0.0769 -1.4631  2.4407
 9404TIP3    H252408   0.389   3.900   1.349  1.5106  0.0134  0.1578
 9405TIP3   OH252409   0.403   5.317   1.975  0.3854  0.4743  0.3218
 9405TIP3    H152410   0.466   5.246   1.988 -0.4824 -0.6903 -1.3769
 9405TIP3    H252411   0.394   5.323   1.880  0.0756  2.5847  0.4406
 9406TIP3   OH252412   4.946   2.277   0.606  0.0345  0.5873 -0.1331
 9406TIP3    H152413   4.986   2.239   0.528 -3.5056  1.4361 -2.5762
 9406TIP3    H252414   4.895   2.206   0.644 -1.0173  1.0348 -0.6676
 9407TIP3   OH252415   2.985   2.222   1.461 -0.5778  0.1660  0.0184
 9407TIP3    H152416   3.052   2.291   1.461 -1.0081  0.5907  0.6905
 9407TIP3    H252417   3.034   2.141   1.477 -0.2403  0.4937  0.7050
 9408TIP3   OH252418   3.259   7.102   1.812  0.0480 -0.0873 -0.2374
 9408TIP3    H152419   3.219   7.093   1.898  0.9918 -2.2862  0.0685
 9408TIP3    H252420   3.206   7.046   1.755  0.8083 -0.5391 -0.5204
 9409TIP3   OH252421   3.077   6.954   0.845  0.3297  0.1876  0.3924
 9409TIP3    H152422   3.104   7.005   0.769 -1.3895 -1.7335 -1.6815
 9409TIP3    H252423   3.065   7.018   0.915  2.9092  1.9297 -0.6250
 9410TIP3   OH252424   6.756   4.110   2.197  0.6422  0.4350  0.4586
 9410TIP3    H152425   6.742   4.123   2.103  1.7485 -1.9021 -0.0962
 9410TIP3    H252426   6.670   4.085   2.230  0.1712  1.5922  0.1779
 9411TIP3   OH252427   6.319   3.830   2.607 -0.2707  0.0052  0.4249
 9411TIP3    H152428   6.396   3.821   2.663 -1.1274  0.6309  1.7619
 9411TIP3    H252429   6.354   3.834   2.518  1.5382  3.2519  1.1175
 9412TIP3   OH252430   1.968   1.083   1.260  0.2132  0.4696 -0.2257
 9412TIP3    H152431   2.045   1.034   1.291  1.7199  1.9216 -1.5045
 9412TIP3    H252432   1.894   1.025   1.280  1.5219 -0.6912  1.6983
 9413TIP3   OH252433   5.479   5.990   2.126 -0.3986 -0.0106  0.3852
 9413TIP3    H152434   5.569   5.960   2.117 -0.2787  0.9143 -3.3334
 9413TIP3    H252435   5.485   6.068   2.182  1.2803  0.5120 -0.4671
 9414TIP3   OH252436   6.154   3.766   3.192 -0.2533  0.1672  0.1704
 9414TIP3    H152437   6.115   3.679   3.199 -2.4522  1.0644 -0.3179
 9414TIP3    H252438   6.166   3.781   3.098 -1.8158  1.1649  0.0986
 9415TIP3   OH252439   6.415   1.812   2.400 -0.0492 -0.0640 -0.0610
 9415TIP3    H152440   6.466   1.791   2.321  0.7330 -2.2380  0.9220
 9415TIP3    H252441   6.475   1.864   2.454 -0.4308  1.0472 -0.6775
 9416TIP3   OH252442   6.020   7.585   0.924 -0.0779  0.0447  0.6915
 9416TIP3    H152443   6.095   7.645   0.927 -0.5918  0.6516  2.1294
 9416TIP3    H252444   6.024   7.537   1.007 -0.8032 -0.5189  0.4123
 9417TIP3   OH252445   2.529   1.280   2.542  0.0191  0.0427  0.3157
 9417TIP3    H152446   2.564   1.227   2.470  0.6072  0.8821 -0.0363
 9417TIP3    H252447   2.584   1.257   2.617 -1.0942 -1.4263  0.7410
 9418TIP3   OH252448   6.528   7.026   1.072  0.5951 -0.4549  0.6221
 9418TIP3    H152449   6.604   7.020   1.014  0.7064  0.8663  0.5913
 9418TIP3    H252450   6.482   7.105   1.043 -0.1910 -0.6246  1.3532
 9419TIP3   OH252451   1.669   3.964   2.570  0.2573  0.7119  0.4448
 9419TIP3    H152452   1.722   3.939   2.495  0.8904 -1.9937  1.6623
 9419TIP3    H252453   1.728   4.014   2.627  0.0007  2.0508 -0.4090
 9420TIP3   OH252454   5.791   0.557   3.086 -0.5051 -0.4414 -0.4113
 9420TIP3    H152455   5.702   0.525   3.094 -1.1819  1.5060  0.3628
 9420TIP3    H252456   5.798   0.589   2.996 -1.3136  1.2813  0.0873
 9421TIP3   OH252457   1.811   6.432   2.357  0.5403 -0.6064  0.2958
 9421TIP3    H152458   1.786   6.342   2.336 -1.2347 -0.2546  0.7341
 9421TIP3    H252459   1.881   6.453   2.296 -0.6692 -1.4845 -1.4525
 9422TIP3   OH252460   5.241   0.411   2.687 -0.1115 -0.5257 -0.1159
 9422TIP3    H152461   5.327   0.446   2.665  0.0965 -1.2292 -0.4419
 9422TIP3    H252462   5.236   0.327   2.641 -0.6655 -0.8479  0.5078
 9423TIP3   OH252463   0.123   4.640   1.479 -0.0540 -0.2413  0.7645
 9423TIP3    H152464   0.183   4.649   1.553 -0.7981  0.2085  1.3319
 9423TIP3    H252465   0.138   4.718   1.426 -0.3055 -0.0126  1.0307
 9424TIP3   OH252466   2.797   0.677   2.599 -0.3720 -0.7412  0.6893
 9424TIP3    H152467   2.706   0.652   2.584 -1.6591  3.1785  0.6921
 9424TIP3    H252468   2.828   0.707   2.513 -0.2407  0.8914  1.2615
 9425TIP3   OH252469   7.270   7.662   2.398 -0.1470  0.6011 -0.0205
 9425TIP3    H152470   7.209   7.603   2.355  1.1315 -0.5370 -0.3311
 9425TIP3    H252471   7.311   7.609   2.466  0.3484  1.4056  0.3249
 9426TIP3   OH252472   1.160   3.209   1.408  0.3473  0.2095  0.0338
 9426TIP3    H152473   1.104   3.263   1.353 -0.7010 -0.9452 -0.0734
 9426TIP3    H252474   1.226   3.174   1.349 -0.7876 -1.0437 -0.5201
 9427TIP3   OH252475   4.181   4.586   2.175 -0.1425 -0.3999 -0.0229
 9427TIP3    H152476   4.194   4.667   2.225 -0.7259 -0.9476  1.0597
 9427TIP3    H252477   4.089   4.588   2.151 -0.1215 -0.6732 -0.1213
 9428TIP3   OH252478   6.419   5.853   3.244 -0.0851  0.2887 -0.5068
 9428TIP3    H152479   6.510   5.828   3.233  0.1852  0.4971  1.1138
 9428TIP3    H252480   6.385   5.794   3.311 -1.0918  0.3336 -0.9563
 9429TIP3   OH252481   1.621   1.362   0.765 -0.2479  0.2310  0.2293
 9429TIP3    H152482   1.590   1.383   0.677  0.8405  2.7719  0.3877
 9429TIP3    H252483   1.559   1.405   0.823 -0.1255 -0.2188  0.7014
 9430TIP3   OH252484   2.577   5.981   2.677 -0.0169 -0.3685  0.2780
 9430TIP3    H152485   2.581   5.975   2.773 -0.3209 -0.7106  0.2726
 9430TIP3    H252486   2.642   6.048   2.654 -0.7410  0.5336  0.8054
 9431TIP3   OH252487   5.265   0.135   1.618  0.3013  0.9896  0.3775
 9431TIP3    H152488   5.325   0.200   1.653  1.1902  0.5284 -0.2558
 9431TIP3    H252489   5.192   0.187   1.582  1.0179  1.6508 -0.1706
 9432TIP3   OH252490   3.568   3.129   0.756  0.7220 -0.4074 -0.3515
 9432TIP3    H152491   3.515   3.107   0.679 -1.3792  1.3932  0.4970
 9432TIP3    H252492   3.635   3.061   0.758  0.4263 -0.9571 -3.3399
 9433TIP3   OH252493   5.281   5.183   1.440  0.2253 -0.0295 -0.2017
 9433TIP3    H152494   5.241   5.099   1.464  1.0945 -0.4323 -0.1192
 9433TIP3    H252495   5.209   5.234   1.401 -0.1096 -1.1345 -1.0750
 9434TIP3   OH252496   0.611   4.426   1.629  0.1400 -0.1688 -0.2086
 9434TIP3    H152497   0.644   4.351   1.580 -0.0511  0.0871 -0.7291
 9434TIP3    H252498   0.683   4.450   1.687  0.8951  0.3959 -1.3491
 9435TIP3   OH252499   3.815   7.389   1.101 -0.2704  0.5125 -0.4327
 9435TIP3    H152500   3.893   7.397   1.156 -0.2959 -0.6390 -0.1992
 9435TIP3    H252501   3.751   7.447   1.142  0.2439  0.9532 -0.2313
 9436TIP3   OH252502   1.599   3.096   2.058 -0.7394  0.1276 -0.4508
 9436TIP3    H152503   1.615   3.189   2.074  0.5884 -0.0597 -0.5935
 9436TIP3    H252504   1.590   3.057   2.145  0.0447  0.1778 -0.3398
 9437TIP3   OH252505   1.087   3.090   2.032 -0.4386 -0.6688 -0.6834
 9437TIP3    H152506   1.124   3.159   1.977 -0.1049 -1.0611 -0.9564
 9437TIP3    H252507   1.155   3.072   2.098 -0.3720 -0.9906 -0.8374
 9438TIP3   OH252508   7.561   0.304   1.244  0.0406 -0.8479 -0.1561
 9438TIP3    H152509   7.613   0.351   1.179 -0.5760  0.0040 -0.0502
 9438TIP3    H252510   7.472   0.337   1.232 -0.0241 -0.4253  1.3538
 9439TIP3   OH252511   3.500   6.360   2.404  0.3155 -0.4481  0.2828
 9439TIP3    H152512   3.529   6.368   2.495  1.4948 -1.6818  0.0449
 9439TIP3    H252513   3.407   6.338   2.411  0.4770 -0.8990  1.2066
 9440TIP3   OH252514   3.997   5.700   2.693  0.3401 -0.0967  0.0255
 9440TIP3    H152515   4.053   5.643   2.639  0.2750  0.3082 -0.4674
 9440TIP3    H252516   3.982   5.648   2.772  0.4282 -0.7029 -0.3410
 9441TIP3   OH252517   1.396   2.294   2.708  0.3747 -0.0300  0.0652
 9441TIP3    H152518   1.431   2.362   2.650 -1.7536 -0.2536 -1.6059
 9441TIP3    H252519   1.370   2.342   2.787  0.5115  0.8120 -0.3844
 9442TIP3   OH252520   1.895   1.539   1.823 -0.4665  0.1637 -0.2988
 9442TIP3    H152521   1.937   1.625   1.824 -0.4529  0.1851  1.5831
 9442TIP3    H252522   1.887   1.516   1.915  0.6731 -2.4315 -0.7651
 9443TIP3   OH252523   3.484   6.825   1.379 -0.1491  0.2340 -0.3172
 9443TIP3    H152524   3.435   6.766   1.321 -0.1032 -0.7062  0.5877
 9443TIP3    H252525   3.444   6.813   1.465  0.4821  0.8283  0.0654
 9444TIP3   OH252526   3.040   5.087   1.745  0.1058 -0.1723  0.5379
 9444TIP3    H152527   3.133   5.068   1.754 -0.0220 -0.6274  0.9318
 9444TIP3    H252528   3.006   5.017   1.689 -0.0669 -0.2122  0.6923
 9445TIP3   OH252529   4.972   2.997   2.377  0.5655 -0.2138  0.1484
 9445TIP3    H152530   5.038   3.001   2.308 -0.4968 -1.8981 -1.0278
 9445TIP3    H252531   5.022   3.003   2.458  2.2750 -1.9278 -0.6924
 9446TIP3   OH252532   7.113   1.106   2.641  0.4169 -0.1742 -0.3691
 9446TIP3    H152533   7.115   1.186   2.693 -0.5731 -0.4216  0.0708
 9446TIP3    H252534   7.197   1.063   2.660  0.4679  0.2060  0.2817
 9447TIP3   OH252535   4.920   0.233   2.205  0.1190  0.1192 -0.2278
 9447TIP3    H152536   4.985   0.175   2.167 -0.3182 -1.4328  1.2800
 9447TIP3    H252537   4.844   0.226   2.147  0.4693  0.1069 -0.6900
 9448TIP3   OH252538   2.296   6.340   2.981 -0.1983 -0.4136 -0.1967
 9448TIP3    H152539   2.225   6.305   2.926 -1.1606 -0.9753  1.3352
 9448TIP3    H252540   2.255   6.355   3.066  0.9585  1.5404  0.0846
 9449TIP3   OH252541   4.652   4.759   0.838  0.0730  0.2137 -0.1316
 9449TIP3    H152542   4.655   4.704   0.917 -0.2831  0.3303 -0.0336
 9449TIP3    H252543   4.643   4.697   0.766  0.7021  0.0892 -0.1080
 9450TIP3   OH252544   7.674   4.613   0.998 -0.5211 -0.6520  0.2128
 9450TIP3    H152545   7.667   4.609   1.093 -0.7442  0.3520  0.2541
 9450TIP3    H252546   7.604   4.557   0.965 -1.1474 -0.1352  0.6478
 9451TIP3   OH252547   6.883   2.432   0.965  0.2163 -0.5431 -0.6358
 9451TIP3    H152548   6.968   2.432   1.009  0.4742 -1.1184 -1.1165
 9451TIP3    H252549   6.901   2.462   0.876 -0.4089  1.2492 -0.1947
 9452TIP3   OH252550   3.998   0.062   2.180 -0.1139  0.0783  0.0540
 9452TIP3    H152551   4.022   0.145   2.138 -0.3200 -0.0934 -0.4122
 9452TIP3    H252552   3.923   0.030   2.130  0.9730 -1.2018 -0.8395
 9453TIP3   OH252553   2.487   2.291   2.284 -0.1582  0.3274  0.0591
 9453TIP3    H152554   2.443   2.368   2.248 -0.4957  1.1577  2.1175
 9453TIP3    H252555   2.443   2.274   2.367  2.0987 -0.0188  1.2828
 9454TIP3   OH252556   6.545   3.308   1.553  0.5681 -1.0143 -0.4026
 9454TIP3    H152557   6.549   3.401   1.574  1.7744 -1.1920  0.2240
 9454TIP3    H252558   6.516   3.266   1.634 -2.1792 -1.0156 -1.2897
 9455TIP3   OH252559   0.948   0.093   2.244  0.2914 -0.3989 -0.4038
 9455TIP3    H152560   0.921   0.010   2.205 -0.6877  0.4906 -1.7022
 9455TIP3    H252561   1.044   0.089   2.246  0.2499 -1.5850 -0.3663
 9456TIP3   OH252562   4.782   6.627   1.511 -0.1160 -0.2426 -0.1557
 9456TIP3    H152563   4.702   6.679   1.515 -0.2927 -0.2553 -2.4722
 9456TIP3    H252564   4.757   6.547   1.466  0.8781 -0.9539  0.5060
 9457TIP3   OH252565   5.714   1.721   0.652  0.1200  0.1264  0.5112
 9457TIP3    H152566   5.741   1.811   0.665  1.1332  0.1464 -1.3733
 9457TIP3    H252567   5.793   1.675   0.625  0.0114 -1.7450  2.9585
 9458TIP3   OH252568   5.886   2.241   3.381  0.5439  0.0436 -0.2026
 9458TIP3    H152569   5.888   2.336   3.389 -0.8218 -0.0358  1.9770
 9458TIP3    H252570   5.945   2.210   3.449 -1.0443 -0.6528  0.9250
 9459TIP3   OH252571   6.780   7.311   2.867  0.6160  0.6077 -0.4643
 9459TIP3    H152572   6.771   7.223   2.829 -0.4099  0.0181  1.0640
 9459TIP3    H252573   6.827   7.361   2.800 -0.4241 -0.5822 -2.1685
 9460TIP3   OH252574   1.545   6.760   1.370  0.0972  0.0687  0.3924
 9460TIP3    H152575   1.526   6.748   1.277  0.2521  1.9356  0.0670
 9460TIP3    H252576   1.473   6.816   1.402  0.4887  0.1345  1.1821
 9461TIP3   OH252577   2.556   4.742   2.405  0.0992 -0.1863 -0.3436
 9461TIP3    H152578   2.467   4.770   2.384  0.0178  0.2168  0.4949
 9461TIP3    H252579   2.610   4.820   2.391  0.2584 -0.3148 -0.4503
 9462TIP3   OH252580   3.298   1.843   2.160 -0.1549  1.0789 -0.0794
 9462TIP3    H152581   3.281   1.927   2.116 -0.8067  0.8501 -0.2706
 9462TIP3    H252582   3.261   1.777   2.102  0.7988  0.6043 -0.1704
 9463TIP3   OH252583   3.064   4.059   0.941 -0.1016 -0.3333 -0.1776
 9463TIP3    H152584   2.991   4.002   0.918 -0.2061  0.4002 -1.8487
 9463TIP3    H252585   3.040   4.098   1.025 -0.4935 -1.9237  0.4750
 9464TIP3   OH252586   3.985   2.221   1.893  0.2963 -0.4576 -0.2131
 9464TIP3    H152587   3.929   2.248   1.965  1.4251 -0.2181  0.6073
 9464TIP3    H252588   4.044   2.295   1.879 -0.4088 -0.1684 -1.9451
 9465TIP3   OH252589   2.278   5.721   0.562  0.1096 -0.3103 -0.0691
 9465TIP3    H152590   2.276   5.801   0.510 -1.9522 -0.7511 -0.7617
 9465TIP3    H252591   2.370   5.696   0.564  1.2724  3.2452  2.0783
 9466TIP3   OH252592   4.797   7.147   0.707 -0.3292 -0.1803  0.1713
 9466TIP3    H152593   4.833   7.208   0.772  0.1774 -0.4632  0.1599
 9466TIP3    H252594   4.705   7.171   0.700 -0.4835 -0.4093  1.2990
 9467TIP3   OH252595   0.190   4.567   2.171  0.0122 -0.5329 -0.2615
 9467TIP3    H152596   0.257   4.524   2.117  1.0076  1.1120 -0.3950
 9467TIP3    H252597   0.143   4.494   2.212 -0.3055 -1.8403 -2.7250
 9468TIP3   OH252598   0.249   7.041   1.808 -0.2365 -0.4368  0.2239
 9468TIP3    H152599   0.183   7.039   1.738 -0.5068 -1.7967  0.4979
 9468TIP3    H252600   0.281   7.131   1.807 -0.3643 -0.3759 -1.5273
 9469TIP3   OH252601   3.146   7.293   1.272  0.4269  0.1150 -0.3387
 9469TIP3    H152602   3.158   7.310   1.365 -1.4739 -0.2944  0.0126
 9469TIP3    H252603   3.197   7.213   1.256  0.7766  0.1944  0.3275
 9470TIP3   OH252604   3.063   1.364   0.949 -0.4442 -0.7310  0.1647
 9470TIP3    H152605   2.991   1.348   0.888 -0.1283  0.6969 -0.6275
 9470TIP3    H252606   3.022   1.369   1.035 -1.0141 -1.8599 -0.0263
 9471TIP3   OH252607   0.949   0.530   0.765 -0.3366  0.5737 -0.4659
 9471TIP3    H152608   1.021   0.593   0.756 -0.2414  0.3298 -1.5411
 9471TIP3    H252609   0.873   0.584   0.789  0.2187  0.8122  0.8596
 9472TIP3   OH252610   3.979   2.473   3.882 -0.2904 -0.1867  0.2737
 9472TIP3    H152611   3.889   2.490   3.853 -0.6455 -0.2815  1.2682
 9472TIP3    H252612   4.030   2.546   3.845 -0.6385 -0.5034 -0.8698
 9473TIP3   OH252613   0.759   2.976   2.235 -0.4982  0.1608  0.0904
 9473TIP3    H152614   0.765   3.071   2.236 -0.3070  0.1408  0.8819
 9473TIP3    H252615   0.830   2.948   2.177 -2.2759  0.6058 -2.4593
 9474TIP3   OH252616   2.057   3.776   1.674 -0.6526  0.1019 -0.5082
 9474TIP3    H152617   1.978   3.828   1.689  0.4966  1.8302 -0.1510
 9474TIP3    H252618   2.079   3.792   1.582 -0.9371 -0.7406 -0.7363
 9475TIP3   OH252619   0.210   0.867   3.425 -0.6928 -0.4972 -0.2105
 9475TIP3    H152620   0.119   0.885   3.450 -0.7401 -1.7999  0.6540
 9475TIP3    H252621   0.262   0.908   3.494 -0.6069  0.3978 -0.7984
 9476TIP3   OH252622   0.986   0.336   2.033  0.0496  0.0151 -0.1084
 9476TIP3    H152623   1.006   0.265   2.094  0.8079  1.9348  2.0197
 9476TIP3    H252624   1.057   0.399   2.046 -0.3533  0.9861 -2.2540
 9477TIP3   OH252625   7.411   3.173   1.850  0.2807  0.1640 -0.3219
 9477TIP3    H152626   7.390   3.223   1.928  0.0704 -1.5566  0.7755
 9477TIP3    H252627   7.486   3.120   1.875 -0.0583 -0.7275 -1.1302
 9478TIP3   OH252628   5.525   2.766   2.070  0.2021  0.3599  0.1098
 9478TIP3    H152629   5.599   2.708   2.086  0.8059  0.7060 -1.1921
 9478TIP3    H252630   5.463   2.714   2.019 -1.2930 -0.4670  2.6240
 9479TIP3   OH252631   1.437   6.052   1.714 -0.1824  0.3781 -0.4562
 9479TIP3    H152632   1.453   6.146   1.720  1.6781  0.1223 -0.9669
 9479TIP3    H252633   1.494   6.013   1.780 -1.0067 -0.4101 -0.1872
 9480TIP3   OH252634   6.366   6.182   1.359 -0.5811 -0.1066 -0.0961
 9480TIP3    H152635   6.367   6.187   1.454 -2.2866 -1.4833  0.0647
 9480TIP3    H252636   6.438   6.123   1.337 -0.3702 -0.0217  0.3588
 9481TIP3   OH252637   5.205   5.371   2.466 -0.2673 -0.4691 -0.1606
 9481TIP3    H152638   5.267   5.317   2.417 -0.0059  1.1412 -1.7128
 9481TIP3    H252639   5.148   5.408   2.399 -1.4414 -0.0843  1.0199
 9482TIP3   OH252640   3.776   0.960   1.531 -0.4327  0.3778 -0.1268
 9482TIP3    H152641   3.870   0.954   1.515 -0.7551 -0.2871 -1.9926
 9482TIP3    H252642   3.766   1.035   1.590  1.2586  0.3475  0.2487
 9483TIP3   OH252643   2.935   7.213   2.836  0.3580  0.3431  0.2093
 9483TIP3    H152644   2.890   7.296   2.855  2.5744  1.6998 -0.0580
 9483TIP3    H252645   3.004   7.208   2.902  1.0820 -0.6035 -0.5908
 9484TIP3   OH252646   0.416   0.306   1.947  0.0427 -0.2159 -0.1933
 9484TIP3    H152647   0.445   0.386   1.990 -0.5205  0.0761 -0.3395
 9484TIP3    H252648   0.478   0.239   1.975  1.3394  0.5533 -1.1520
 9485TIP3   OH252649   6.264   2.385   1.720  0.0852  0.3575 -0.0423
 9485TIP3    H152650   6.349   2.341   1.717 -0.0853  0.0023  0.1568
 9485TIP3    H252651   6.284   2.477   1.738  0.4482  0.3622 -0.4552
 9486TIP3   OH252652   4.564   7.485   2.489  0.5212  0.2742 -0.3944
 9486TIP3    H152653   4.482   7.530   2.512  0.4611 -0.0711  0.0871
 9486TIP3    H252654   4.633   7.546   2.512  0.4093  0.4861 -0.6118
 9487TIP3   OH252655   2.543   3.372   2.443 -0.0550 -0.1291  0.2871
 9487TIP3    H152656   2.536   3.418   2.360  0.6108  0.1471  0.3749
 9487TIP3    H252657   2.637   3.357   2.454 -0.2381 -1.2354  0.4153
 9488TIP3   OH252658   1.803   1.225   0.953  0.2572 -0.3480 -0.5326
 9488TIP3    H152659   1.791   1.232   0.858 -0.9054 -0.8647 -0.4350
 9488TIP3    H252660   1.719   1.195   0.986  0.7517 -0.5068  0.6370
 9489TIP3   OH252661   3.367   6.368   2.955  0.0553  0.3106 -0.1752
 9489TIP3    H152662   3.276   6.381   2.925  0.0671 -0.0014 -0.3543
 9489TIP3    H252663   3.360   6.364   3.050  0.0717  1.7453 -0.0936
 9490TIP3   OH252664   0.311   1.345   2.969 -0.2033 -0.1773  0.4391
 9490TIP3    H152665   0.298   1.308   3.056 -0.3393  0.8218  0.8564
 9490TIP3    H252666   0.380   1.291   2.930 -1.9770 -2.3852  0.0898
 9491TIP3   OH252667   1.448   4.657   2.673 -0.7230 -0.1257 -0.2848
 9491TIP3    H152668   1.468   4.686   2.584 -1.1752  0.0032 -0.3421
 9491TIP3    H252669   1.440   4.562   2.665 -0.7631 -0.1144 -0.3784
 9492TIP3   OH252670   7.302   6.881   0.928 -0.1007  0.9300  0.3039
 9492TIP3    H152671   7.278   6.962   0.883 -1.4445  0.0178 -0.7000
 9492TIP3    H252672   7.285   6.812   0.864  0.3603 -0.2067  1.3693
 9493TIP3   OH252673   4.617   3.330   0.360  0.3495  0.7533  0.5311
 9493TIP3    H152674   4.692   3.387   0.378  0.3164  1.7477 -2.0497
 9493TIP3    H252675   4.542   3.374   0.401  0.4135  2.3909 -1.0113
 9494TIP3   OH252676   2.751   2.339   1.412 -0.0987 -0.0373 -0.7982
 9494TIP3    H152677   2.828   2.291   1.443 -0.2000 -0.7635 -1.6299
 9494TIP3    H252678   2.678   2.306   1.463 -0.1589 -0.7528 -1.3331
 9495TIP3   OH252679   0.988   5.425   2.313  0.0132  0.2316 -0.0667
 9495TIP3    H152680   0.924   5.432   2.241 -0.6597 -0.6070  0.4254
 9495TIP3    H252681   1.071   5.452   2.274 -0.1656 -0.9920 -1.4204
 9496TIP3   OH252682   5.274   2.889   3.417  0.1280  0.0811  0.2650
 9496TIP3    H152683   5.251   2.798   3.434  0.4603  0.0820  0.7264
 9496TIP3    H252684   5.199   2.924   3.370  0.5323 -0.7834 -1.1017
 9497TIP3   OH252685   4.700   6.712   2.580 -0.1093  0.0396  0.2368
 9497TIP3    H152686   4.641   6.736   2.508  0.8822 -0.2286 -0.6877
 9497TIP3    H252687   4.648   6.654   2.635 -0.4862 -0.8142 -0.9720
 9498TIP3   OH252688   2.716   1.506   2.480 -0.0564  0.0782 -0.1992
 9498TIP3    H152689   2.630   1.471   2.460 -0.7607  0.5068  1.7719
 9498TIP3    H252690   2.773   1.430   2.486 -0.5001 -0.2884 -0.6141
 9499TIP3   OH252691   7.091   4.409   1.650 -0.3371  0.2551 -0.2640
 9499TIP3    H152692   7.181   4.432   1.673  0.4483 -0.7918 -2.0460
 9499TIP3    H252693   7.090   4.314   1.646 -1.5145  0.2496 -0.3116
 9500TIP3   OH252694   0.687   0.686   3.112 -0.0893 -0.2137  0.3008
 9500TIP3    H152695   0.673   0.725   3.198 -1.6309 -1.5907  0.7372
 9500TIP3    H252696   0.730   0.754   3.060 -1.8413  1.7118  1.2587
 9501TIP3   OH252697   5.801   1.728   2.135 -0.6436  0.0389 -0.4440
 9501TIP3    H152698   5.714   1.767   2.122 -0.6727  0.4977  1.0258
 9501TIP3    H252699   5.810   1.667   2.061 -1.9883  0.3701 -0.9188
 9502TIP3   OH252700   3.696   6.215   1.379  0.2262  0.1357  0.3139
 9502TIP3    H152701   3.642   6.293   1.368 -0.1344 -0.2983 -1.2073
 9502TIP3    H252702   3.769   6.228   1.319 -0.7978 -1.5084 -1.3671
 9503TIP3   OH252703   3.748   1.790   1.107 -0.0886  0.6214 -0.4281
 9503TIP3    H152704   3.665   1.771   1.150 -0.0835 -0.1090 -0.7130
 9503TIP3    H252705   3.730   1.866   1.052 -0.0961  1.5490  0.8264
 9504TIP3   OH252706   4.148   0.335   2.745  0.3116 -0.2601 -0.1098
 9504TIP3    H152707   4.204   0.350   2.669 -0.1886 -0.4107 -0.5132
 9504TIP3    H252708   4.205   0.294   2.809  0.2640 -1.9951 -1.1306
 9505TIP3   OH252709   3.617   7.389   2.043 -0.3456 -0.4070  0.0224
 9505TIP3    H152710   3.550   7.372   1.977  0.6645 -1.6257 -0.7440
 9505TIP3    H252711   3.600   7.325   2.112  0.1968 -0.9394 -0.3251
 9506TIP3   OH252712   7.146   6.577   0.879  0.4487 -1.2954  0.7704
 9506TIP3    H152713   7.130   6.553   0.970 -0.5469 -2.2980  0.3554
 9506TIP3    H252714   7.063   6.559   0.834  1.2159 -1.7740 -0.5221
 9507TIP3   OH252715   3.819   1.908   2.050 -0.6450  0.5135 -0.4387
 9507TIP3    H152716   3.813   1.933   1.958 -1.5773 -0.9115 -0.7784
 9507TIP3    H252717   3.739   1.859   2.068  0.2628 -0.6339  0.6855
 9508TIP3   OH252718   6.656   4.714   1.508  0.0823 -0.3917 -0.0009
 9508TIP3    H152719   6.701   4.740   1.428 -3.5588 -1.6083 -2.7203
 9508TIP3    H252720   6.716   4.652   1.550  2.4302  0.8312 -1.2955
 9509TIP3   OH252721   2.690   2.791   1.215 -0.0220 -0.7656 -0.1588
 9509TIP3    H152722   2.734   2.727   1.271  0.4305 -0.0510  0.3239
 9509TIP3    H252723   2.597   2.779   1.234  0.0327 -1.5456 -0.3680
 9510TIP3   OH252724   2.717   4.048   0.604 -0.2411  0.0405  0.3879
 9510TIP3    H152725   2.805   4.044   0.567 -0.0500 -0.5864  0.8909
 9510TIP3    H252726   2.688   4.138   0.588  1.5160  1.0837  2.5389
 9511TIP3   OH252727   1.554   3.971   0.603  0.5027 -0.7387 -0.2609
 9511TIP3    H152728   1.551   4.065   0.584  1.0548 -0.2972  1.6190
 9511TIP3    H252729   1.610   3.934   0.535  0.2419  0.2835 -1.0522
 9512TIP3   OH252730   4.992   0.440   2.797  0.1907  0.0471 -0.1654
 9512TIP3    H152731   5.077   0.451   2.756  0.1871 -1.7822 -0.7377
 9512TIP3    H252732   5.010   0.443   2.891  1.1988 -2.0134 -0.2405
 9513TIP3   OH252733   3.526   4.439   2.144  0.0560 -0.3537  0.4338
 9513TIP3    H152734   3.517   4.531   2.117  1.6236  0.2744  1.8818
 9513TIP3    H252735   3.619   4.429   2.163  0.0955 -2.5582 -0.6215
 9514TIP3   OH252736   5.111   1.212   1.405 -0.2956  0.8523 -0.6043
 9514TIP3    H152737   5.204   1.232   1.417 -0.4207  0.7383  0.7708
 9514TIP3    H252738   5.068   1.258   1.477 -1.2668  0.6537 -1.0521
 9515TIP3   OH252739   5.571   5.130   2.412 -0.4487  0.1114 -0.2446
 9515TIP3    H152740   5.604   5.059   2.357 -1.2374 -0.0334 -0.5505
 9515TIP3    H252741   5.547   5.088   2.494 -1.2991 -0.0685 -0.5686
 9516TIP3   OH252742   0.244   5.766   2.461 -0.1987  0.1813 -0.5726
 9516TIP3    H152743   0.219   5.675   2.474 -1.1580  0.2914 -1.4723
 9516TIP3    H252744   0.279   5.794   2.545 -3.9408  0.2341  1.1301
 9517TIP3   OH252745   7.337   2.419   3.114 -0.2784 -0.0731  0.3759
 9517TIP3    H152746   7.265   2.481   3.115  0.3350  0.6584  0.1422
 9517TIP3    H252747   7.398   2.454   3.049  0.2921 -0.6724  0.5763
 9518TIP3   OH252748   1.862   2.337   1.705 -0.1953  0.0842 -0.0853
 9518TIP3    H152749   1.770   2.355   1.727 -0.3121  1.0147 -1.2302
 9518TIP3    H252750   1.910   2.361   1.784 -1.0306 -1.7540  1.0449
 9519TIP3   OH252751   2.341   3.074   3.166 -0.5837  0.5739 -0.0624
 9519TIP3    H152752   2.247   3.086   3.183 -0.8741  2.2904 -2.3663
 9519TIP3    H252753   2.383   3.138   3.223 -0.9272  0.7296  0.0234
 9520TIP3   OH252754   3.900   6.914   2.508  0.3729  0.2450 -0.3073
 9520TIP3    H152755   3.931   7.000   2.537 -0.8141  1.0317 -1.2836
 9520TIP3    H252756   3.972   6.878   2.457  0.3563  1.2982 -1.0954
 9521TIP3   OH252757   3.078   4.641   2.668  0.4386  0.0942  0.3668
 9521TIP3    H152758   3.093   4.735   2.662  0.5808  0.0103 -0.8355
 9521TIP3    H252759   3.071   4.623   2.761  0.9058  1.2221  0.6250
 9522TIP3   OH252760   4.566   6.949   0.872 -0.2612  0.4723 -0.3060
 9522TIP3    H152761   4.518   7.032   0.869  0.1572  0.6922 -1.1566
 9522TIP3    H252762   4.633   6.957   0.805 -0.1462 -0.5165 -0.3306
 9523TIP3   OH252763   4.315   0.087   1.791  0.1073 -0.8645  0.8872
 9523TIP3    H152764   4.317   0.057   1.700  0.7012 -0.7701  0.8650
 9523TIP3    H252765   4.270   0.017   1.838 -0.0389 -0.9982  0.5539
 9524TIP3   OH252766   2.820   6.565   1.156 -0.4585 -0.0604 -0.0482
 9524TIP3    H152767   2.752   6.630   1.172  0.2309  0.8258 -0.6302
 9524TIP3    H252768   2.885   6.581   1.224 -0.9935 -1.1552  0.7413
 9525TIP3   OH252769   5.523   7.625   2.392  0.2756  0.4755  0.2096
 9525TIP3    H152770   5.507   7.537   2.358 -0.4895  1.0564 -0.9972
 9525TIP3    H252771   5.614   7.644   2.367 -0.3254  0.9681 -1.7966
 9526TIP3   OH252772   5.857   0.327   1.435  0.1039 -0.0714  0.1741
 9526TIP3    H152773   5.877   0.250   1.381 -1.8978  0.4074 -1.3312
 9526TIP3    H252774   5.893   0.401   1.386 -3.5343  0.6210 -1.7946
 9527TIP3   OH252775   1.013   3.360   0.854  0.3175  0.1164  0.0719
 9527TIP3    H152776   1.093   3.400   0.889  0.5381 -0.0151 -0.2806
 9527TIP3    H252777   1.043   3.299   0.787 -0.0429 -0.3812  0.3571
 9528TIP3   OH252778   1.116   1.372   0.709  0.0751 -0.0401  0.1719
 9528TIP3    H152779   1.049   1.354   0.775 -1.0705 -0.3683 -1.0237
 9528TIP3    H252780   1.098   1.309   0.639  1.6557 -0.1383 -0.1926
 9529TIP3   OH252781   6.523   0.715   1.589 -0.2176  0.0693  0.0324
 9529TIP3    H152782   6.544   0.622   1.597 -1.5669 -0.4075 -1.5658
 9529TIP3    H252783   6.427   0.719   1.589 -0.2056  1.5757  0.9746
 9530TIP3   OH252784   5.969   3.936   0.717 -0.0049 -0.1902  0.6351
 9530TIP3    H152785   5.977   3.854   0.668  0.0960 -0.8773  1.7604
 9530TIP3    H252786   6.010   3.917   0.801 -0.4216  0.8733  1.0885
 9531TIP3   OH252787   3.978   1.996   2.508 -0.1117  0.4446 -0.2838
 9531TIP3    H152788   3.928   2.011   2.428  1.2886  0.8571 -1.1381
 9531TIP3    H252789   3.962   1.905   2.530 -2.4574  0.9602  0.3973
 9532TIP3   OH252790   3.126   0.373   1.434  0.0328  0.7419  0.4602
 9532TIP3    H152791   3.117   0.352   1.340  0.1975  0.0771  0.5852
 9532TIP3    H252792   3.209   0.419   1.441 -1.0072  2.8329 -0.0390
 9533TIP3   OH252793   6.559   4.449   2.311 -0.2521 -0.1036 -0.0133
 9533TIP3    H152794   6.515   4.366   2.291 -2.0590  1.0477 -1.1310
 9533TIP3    H252795   6.514   4.482   2.389  0.4582 -0.1740  0.4261
 9534TIP3   OH252796   2.086   6.961   0.538 -0.4042 -0.3795 -0.5496
 9534TIP3    H152797   2.052   6.956   0.449  0.9001 -0.1281 -1.0896
 9534TIP3    H252798   2.059   7.047   0.570 -1.2874 -0.6634 -0.5203
 9535TIP3   OH252799   1.494   7.016   2.178  0.0345 -0.6686  0.2148
 9535TIP3    H152800   1.461   6.988   2.093 -0.0067 -1.7294  0.5634
 9535TIP3    H252801   1.568   7.073   2.157  1.6148 -2.8439 -0.5677
 9536TIP3   OH252802   5.027   3.554   3.147 -0.1056 -0.8589  0.2093
 9536TIP3    H152803   4.973   3.514   3.080  1.3398  0.0767 -1.6077
 9536TIP3    H252804   5.033   3.488   3.216 -0.8339 -2.2499 -1.0105
 9537TIP3   OH252805   4.171   2.244   2.974 -0.0851 -0.8438 -0.3602
 9537TIP3    H152806   4.102   2.274   2.916 -0.0158 -1.0964 -0.5698
 9537TIP3    H252807   4.125   2.212   3.052 -0.1411  0.3688  0.1324
 9538TIP3   OH252808   3.203   7.538   1.137 -0.2244  0.5371 -0.1718
 9538TIP3    H152809   3.175   7.475   1.203 -0.2416  1.1369  0.4103
 9538TIP3    H252810   3.238   7.485   1.066 -0.6085 -0.1381  0.1297
 9539TIP3   OH252811   1.125   3.543   1.715  0.5614  0.2578 -0.1190
 9539TIP3    H152812   1.097   3.613   1.656  0.6343  0.7488  0.4128
 9539TIP3    H252813   1.123   3.464   1.662  0.4160  0.6561 -0.7154
 9540TIP3   OH252814   3.841   7.552   1.965 -0.1170  0.3013  0.2732
 9540TIP3    H152815   3.772   7.515   2.019  0.1922 -0.3636  0.2251
 9540TIP3    H252816   3.797   7.615   1.908 -0.6564 -0.0025  0.3501
 9541TIP3   OH252817   1.504   1.125   2.077  0.3916  0.4826 -0.3905
 9541TIP3    H152818   1.444   1.050   2.070  0.2614  0.5475 -0.0171
 9541TIP3    H252819   1.589   1.085   2.097  0.3295  0.4322 -0.2247
 9542TIP3   OH252820   4.786   5.887   2.634  0.0657 -0.2696  0.2096
 9542TIP3    H152821   4.697   5.851   2.641  0.1051 -0.1714  1.2422
 9542TIP3    H252822   4.833   5.849   2.708  0.6566  0.3378  0.1456
 9543TIP3   OH252823   5.023   1.471   2.488 -0.2485 -0.4353  0.6988
 9543TIP3    H152824   5.079   1.548   2.485 -1.4613  0.4579 -1.4946
 9543TIP3    H252825   5.020   1.440   2.398 -2.7375 -0.7985  0.8384
 9544TIP3   OH252826   4.012   0.636   1.122 -0.3612  0.1542 -0.5383
 9544TIP3    H152827   4.034   0.561   1.067 -1.2376  0.7088 -1.6890
 9544TIP3    H252828   4.068   0.707   1.089 -0.6564  0.4092 -0.4913
 9545TIP3   OH252829   1.805   2.083   2.002  0.6841 -0.5240  0.4098
 9545TIP3    H152830   1.870   2.097   1.933  1.1015  1.3163  1.1151
 9545TIP3    H252831   1.767   1.997   1.983  0.1184  0.2961 -2.6455
 9546TIP3   OH252832   7.056   0.062   1.182 -0.4542 -0.3499 -0.2793
 9546TIP3    H152833   7.128   0.014   1.222 -1.9314 -1.2908  1.3508
 9546TIP3    H252834   7.073   0.154   1.205 -0.1479 -0.6383  0.6823
 9547TIP3   OH252835   6.639   2.229   1.339  0.2815 -0.0906 -0.6654
 9547TIP3    H152836   6.723   2.211   1.381  0.1351 -2.1899 -1.1446
 9547TIP3    H252837   6.656   2.304   1.283  2.0678 -0.8922 -1.2822
 9548TIP3   OH252838   4.926   4.321   0.718  0.7896  0.3264 -0.2937
 9548TIP3    H152839   4.896   4.244   0.768  1.6513 -0.1635 -0.5099
 9548TIP3    H252840   4.998   4.288   0.664  1.1354  1.2796 -0.4339
 9549TIP3   OH252841   7.581   6.407   1.301  0.1446 -0.4949 -0.0567
 9549TIP3    H152842   7.604   6.316   1.321 -0.3554 -0.5612  0.2476
 9549TIP3    H252843   7.617   6.457   1.374 -1.5276 -0.7169  0.9802
 9550TIP3   OH252844   0.892   5.778   0.779 -0.2070 -0.3477 -0.2145
 9550TIP3    H152845   0.963   5.813   0.834 -0.0300 -1.0289 -0.0017
 9550TIP3    H252846   0.842   5.856   0.754  1.4194  0.3432 -1.5461
 9551TIP3   OH252847   3.366   7.452   2.256 -0.7470  0.5045 -0.1784
 9551TIP3    H152848   3.449   7.467   2.300 -1.1826  0.1888  0.7800
 9551TIP3    H252849   3.335   7.540   2.232 -0.6899  0.7212  0.5162
 9552TIP3   OH252850   4.066   1.030   1.616  0.2934  0.4254  0.0186
 9552TIP3    H152851   4.154   1.032   1.578  0.0669 -0.7738 -0.6400
 9552TIP3    H252852   4.050   0.937   1.632 -1.2693  0.5102 -0.8829
 9553TIP3   OH252853   3.345   7.412   0.531  0.0169 -0.0916  0.3949
 9553TIP3    H152854   3.422   7.464   0.509 -0.3931 -0.3277 -1.8178
 9553TIP3    H252855   3.380   7.331   0.568  0.7271  0.7427  1.6007
 9554TIP3   OH252856   4.567   1.561   1.267 -0.4978 -0.2791  0.0810
 9554TIP3    H152857   4.588   1.592   1.179  1.0524  1.1045  0.8787
 9554TIP3    H252858   4.650   1.529   1.302 -0.5090  1.5000  1.9010
 9555TIP3   OH252859   5.011   3.555   1.455 -0.3044 -0.1927 -0.1296
 9555TIP3    H152860   4.927   3.531   1.495  0.3354  0.6142  1.7973
 9555TIP3    H252861   4.986   3.603   1.376 -1.6638  0.0992  0.4405
 9556TIP3   OH252862   5.202   2.628   3.438 -0.6117 -0.3114 -0.3049
 9556TIP3    H152863   5.186   2.543   3.479 -0.5455  0.8108  2.2769
 9556TIP3    H252864   5.116   2.655   3.406 -0.6698 -1.2395 -0.9618
 9557TIP3   OH252865   7.620   2.565   2.086 -0.4916 -0.1714  0.6409
 9557TIP3    H152866   7.687   2.616   2.041 -0.8619  0.1533  0.4560
 9557TIP3    H252867   7.541   2.618   2.080 -0.6852 -0.3939  1.1663
 9558TIP3   OH252868   6.151   5.963   1.879 -0.1203  0.1669  0.2494
 9558TIP3    H152869   6.141   5.988   1.787 -0.0616 -0.2246  0.1340
 9558TIP3    H252870   6.077   5.906   1.897  0.9452 -1.3842 -0.1329
 9559TIP3   OH252871   4.467   6.236   2.843  0.4892  0.3127 -0.0769
 9559TIP3    H152872   4.398   6.301   2.831 -0.4157 -0.3844  1.2056
 9559TIP3    H252873   4.426   6.166   2.893  1.5991 -1.0167 -0.9581
 9560TIP3   OH252874   5.989   5.564   1.399  0.3510 -0.0676  0.3612
 9560TIP3    H152875   5.962   5.567   1.308  1.4950 -0.7149 -0.0197
 9560TIP3    H252876   6.082   5.542   1.396  0.2441 -0.8304  1.7100
 9561TIP3   OH252877   7.390   0.820   2.943 -0.2172 -0.3061  0.2927
 9561TIP3    H152878   7.400   0.821   3.038  2.1254 -1.2910  0.1045
 9561TIP3    H252879   7.387   0.727   2.919  0.8316 -0.1024 -0.7193
 9562TIP3   OH252880   2.735   5.838   1.165 -0.1490  0.7507 -0.0661
 9562TIP3    H152881   2.765   5.890   1.090  1.6014 -1.2614 -0.8574
 9562TIP3    H252882   2.805   5.846   1.230 -0.9260  1.1888  0.7401
 9563TIP3   OH252883   5.412   2.948   1.790 -0.2113  0.5445  0.4039
 9563TIP3    H152884   5.339   2.941   1.728 -0.0843 -1.1122  0.3989
 9563TIP3    H252885   5.472   2.877   1.765  0.6334  0.8871  1.3885
 9564TIP3   OH252886   4.223   6.088   1.135 -0.4813  0.3879 -0.1184
 9564TIP3    H152887   4.147   6.030   1.133  0.5309 -1.0388  0.9473
 9564TIP3    H252888   4.260   6.076   1.222 -0.0509  2.4373  0.0257
 9565TIP3   OH252889   4.691   5.864   1.872  0.0599 -0.4450  0.1462
 9565TIP3    H152890   4.765   5.803   1.866  0.1520 -0.3126 -0.0573
 9565TIP3    H252891   4.653   5.865   1.785  2.8583  3.2925 -1.2861
 9566TIP3   OH252892   0.797   1.372   1.849 -0.2593  0.1017  0.3600
 9566TIP3    H152893   0.889   1.396   1.864  0.0756 -0.3169 -0.9147
 9566TIP3    H252894   0.751   1.403   1.927  1.1506 -0.7534  1.5905
 9567TIP3   OH252895   7.183   0.427   0.926  0.3329  0.0978  0.6143
 9567TIP3    H152896   7.116   0.496   0.924  0.1393 -0.0911  0.5188
 9567TIP3    H252897   7.135   0.347   0.907  0.7335  0.0693 -0.3114
 9568TIP3   OH252898   5.056   3.180   0.719  0.1818  0.0978  0.4950
 9568TIP3    H152899   5.027   3.210   0.805 -0.9025  0.5718 -0.0026
 9568TIP3    H252900   4.987   3.210   0.659  1.3077  0.5015 -0.6528
 9569TIP3   OH252901   2.392   5.966   1.772  0.4344  0.3962 -0.2714
 9569TIP3    H152902   2.408   5.942   1.681  0.5668 -0.8162  0.0530
 9569TIP3    H252903   2.300   5.947   1.787  0.9004 -1.5919  0.4397
 9570TIP3   OH252904   2.421   0.092   0.693 -0.4679  0.7891 -0.8293
 9570TIP3    H152905   2.395   0.093   0.785  0.2125 -0.9500 -0.5674
 9570TIP3    H252906   2.339   0.084   0.645 -0.8577  2.1223 -0.4250
 9571TIP3   OH252907   2.290   2.745   2.623 -0.1052 -0.2803 -0.2383
 9571TIP3    H152908   2.328   2.812   2.566 -0.2626 -1.0336 -1.2563
 9571TIP3    H252909   2.227   2.700   2.568 -0.6947 -0.6514  0.7221
 9572TIP3   OH252910   0.862   7.149   1.145 -0.2018 -0.0347 -0.3548
 9572TIP3    H152911   0.903   7.224   1.103  0.5005 -0.0437  0.2960
 9572TIP3    H252912   0.794   7.186   1.201  0.0720  0.1200 -0.1185
 9573TIP3   OH252913   3.298   4.298   2.203 -0.1431  0.0278  0.0540
 9573TIP3    H152914   3.290   4.335   2.290 -0.2998  0.2195 -0.0415
 9573TIP3    H252915   3.366   4.350   2.160 -1.4283  1.2278 -0.6049
 9574TIP3   OH252916   4.074   1.337   2.880 -0.1895 -0.2173 -0.3857
 9574TIP3    H152917   4.136   1.340   2.952 -0.0174 -0.9319 -0.4928
 9574TIP3    H252918   3.997   1.384   2.911 -0.3785 -1.1002  0.5228
 9575TIP3   OH252919   4.709   2.750   1.481  0.4058  0.8585  0.3663
 9575TIP3    H152920   4.705   2.801   1.400  1.4695 -2.8858 -2.3287
 9575TIP3    H252921   4.798   2.763   1.513  0.6624  0.7318 -0.2863
 9576TIP3   OH252922   1.720   4.560   3.307 -0.1866  0.1700  0.3479
 9576TIP3    H152923   1.667   4.495   3.353 -1.3431  0.9239  0.1177
 9576TIP3    H252924   1.664   4.592   3.236  1.2412 -0.3496 -1.0953
 9577TIP3   OH252925   6.815   3.258   1.572 -0.7000 -0.1410 -0.0200
 9577TIP3    H152926   6.856   3.176   1.599 -0.8954  0.1725  1.3004
 9577TIP3    H252927   6.723   3.235   1.558 -1.6010  0.3884  3.6911
 9578TIP3   OH252928   0.047   4.060   1.340 -0.0715 -0.1228  0.0790
 9578TIP3    H152929  -0.035   4.025   1.306  1.1414 -1.4130 -1.6857
 9578TIP3    H252930   0.021   4.113   1.415 -2.5166 -0.3275 -0.5472
 9579TIP3   OH252931   0.551   5.071   1.042 -0.2694  0.1344  0.4152
 9579TIP3    H152932   0.550   5.161   1.075  0.4890  0.1530  0.4028
 9579TIP3    H252933   0.642   5.054   1.019  0.0815 -1.4098  2.5866
 9580TIP3   OH252934   3.517   5.261   2.115  0.3367 -0.5207  0.6289
 9580TIP3    H152935   3.506   5.257   2.020  0.1120 -0.3187  0.6453
 9580TIP3    H252936   3.429   5.282   2.148  0.3971 -0.6658  0.8856
 9581TIP3   OH252937   6.047   3.216   1.229  0.2269  0.3801 -0.3554
 9581TIP3    H152938   6.007   3.238   1.313  0.3370  0.5166 -0.3365
 9581TIP3    H252939   6.015   3.128   1.209  1.4239 -0.3101  0.5875
 9582TIP3   OH252940   5.953   1.908   3.166  0.5397  0.3547  0.0667
 9582TIP3    H152941   5.889   1.840   3.184  1.0226 -0.3382 -0.7329
 9582TIP3    H252942   6.031   1.881   3.214  0.9610 -0.0573 -0.8163
 9583TIP3   OH252943   4.717   1.481   2.386  0.1180  0.7580 -0.4738
 9583TIP3    H152944   4.623   1.485   2.367  0.0184  0.3149 -0.0904
 9583TIP3    H252945   4.744   1.572   2.392 -0.3291  0.8897 -0.3874
 9584TIP3   OH252946   1.316   1.410   2.705  0.2004 -0.1783 -0.3331
 9584TIP3    H152947   1.405   1.378   2.694  0.3935  0.2937 -0.1744
 9584TIP3    H252948   1.324   1.505   2.704 -0.1170 -0.1185  1.0985
 9585TIP3   OH252949   1.401   3.651   1.712  0.1327 -0.3769  0.3604
 9585TIP3    H152950   1.452   3.576   1.742  0.6584 -1.7812 -3.5718
 9585TIP3    H252951   1.311   3.619   1.711  0.1156 -0.3314  0.4374
 9586TIP3   OH252952   1.460   0.219   2.260  0.2771 -0.4123  0.3248
 9586TIP3    H152953   1.504   0.301   2.238  0.2207 -1.1909 -3.1436
 9586TIP3    H252954   1.526   0.152   2.245 -0.5819 -1.2368  0.1638
 9587TIP3   OH252955   3.810   0.759   2.111  0.2901 -0.2961  0.8738
 9587TIP3    H152956   3.820   0.779   2.204 -1.2109 -0.3482  1.0582
 9587TIP3    H252957   3.716   0.747   2.098  0.5101 -0.6657 -0.5792
 9588TIP3   OH252958   2.959   4.069   0.524  0.1501  0.2638 -0.4545
 9588TIP3    H152959   3.010   4.026   0.456 -0.9256 -1.6164 -0.1414
 9588TIP3    H252960   3.000   4.155   0.535  2.3695 -0.6490 -1.1604
 9589TIP3   OH252961   1.028   0.982   2.224 -0.3735 -0.5401 -0.0780
 9589TIP3    H152962   0.978   1.059   2.199 -1.3511 -1.3123 -0.5989
 9589TIP3    H252963   0.972   0.937   2.288  0.1469 -0.8547  0.1656
 9590TIP3   OH252964   0.681   0.787   0.361 -0.4949  0.2670  0.6271
 9590TIP3    H152965   0.696   0.710   0.416 -1.2719  0.2858  0.8847
 9590TIP3    H252966   0.738   0.774   0.285  1.5543  0.8585  2.0035
 9591TIP3   OH252967   3.512   2.357   2.140  0.5765 -0.0097 -0.1396
 9591TIP3    H152968   3.535   2.447   2.162 -1.1788  1.2505 -2.9720
 9591TIP3    H252969   3.416   2.354   2.145  0.6358 -2.0934  0.9973
 9592TIP3   OH252970   6.377   0.272   1.933 -0.5320  0.2651  0.0381
 9592TIP3    H152971   6.376   0.315   1.848  0.4518 -0.3640 -0.3227
 9592TIP3    H252972   6.406   0.339   1.994 -0.7321  0.5829 -0.2179
 9593TIP3   OH252973   0.316   2.297   3.304 -0.4404 -0.0871 -0.5752
 9593TIP3    H152974   0.257   2.230   3.267 -1.5620  0.6995 -0.2623
 9593TIP3    H252975   0.360   2.335   3.228  0.8973 -1.7629 -0.7043
 9594TIP3   OH252976   7.404   1.685   3.364  0.2796  0.1470 -0.1855
 9594TIP3    H152977   7.474   1.656   3.305  0.5999  2.7094 -1.2340
 9594TIP3    H252978   7.402   1.620   3.434  2.7910 -0.7261 -0.8302
 9595TIP3   OH252979   5.378   7.664   0.923 -0.4889 -0.2797  0.5427
 9595TIP3    H152980   5.322   7.609   0.978 -0.5435 -1.8640 -0.9909
 9595TIP3    H252981   5.459   7.614   0.913  0.1190  0.6915  0.4421
 9596TIP3   OH252982   3.363   5.148   1.097 -0.0895  0.4529 -0.1982
 9596TIP3    H152983   3.352   5.169   1.004  0.1218  1.6953  0.0449
 9596TIP3    H252984   3.275   5.134   1.130 -0.2566  1.2142 -0.3174
 9597TIP3   OH252985   6.213   7.082   2.767  0.2308  0.5678  0.3555
 9597TIP3    H152986   6.191   7.048   2.680  1.4036 -0.4403  0.4290
 9597TIP3    H252987   6.197   7.176   2.760  0.6147  0.5597 -1.0657
 9598TIP3   OH252988   2.365   1.725   1.804  0.1757 -0.0169  0.1968
 9598TIP3    H152989   2.276   1.754   1.827  0.0548 -0.5622  0.4284
 9598TIP3    H252990   2.350   1.658   1.736  0.4819  0.9605 -0.8743
 9599TIP3   OH252991   0.766   4.036   2.343 -0.0043 -0.0383  0.0005
 9599TIP3    H152992   0.825   3.969   2.377  0.8680  1.2707  1.1768
 9599TIP3    H252993   0.797   4.118   2.382 -1.1060  1.0495 -1.2838
 9600TIP3   OH252994   5.882   1.017   3.498  0.7392 -0.1794 -0.0160
 9600TIP3    H152995   5.838   0.932   3.496  0.1686  0.0820  0.9776
 9600TIP3    H252996   5.909   1.028   3.589  4.0968 -0.9330 -0.7829
 9601TIP3   OH252997   3.934   5.482   0.906 -0.1480  0.1603 -0.2565
 9601TIP3    H152998   4.010   5.537   0.887  0.3324 -0.6259 -0.6889
 9601TIP3    H252999   3.859   5.538   0.887  0.3173  0.2905 -1.9356
 9602TIP3   OH253000   4.885   4.084   1.092 -0.0637 -0.7405 -0.1252
 9602TIP3    H153001   4.943   4.115   1.162 -1.2149  0.1309  0.4698
 9602TIP3    H253002   4.944   4.065   1.020  1.0516 -0.6526  0.7305
 9603TIP3   OH253003   7.446   3.331   1.593 -0.3188 -0.5684  0.0087
 9603TIP3    H153004   7.432   3.265   1.660 -2.3048  0.0207  0.2183
 9603TIP3    H253005   7.438   3.283   1.510  3.3078 -1.5442  0.0457
 9604TIP3   OH253006   2.244   3.602   2.932 -0.5888 -0.3297 -0.3825
 9604TIP3    H153007   2.164   3.632   2.975 -0.3081  1.0582 -0.7594
 9604TIP3    H253008   2.213   3.546   2.860 -1.1320 -1.0776  0.4091
 9605TIP3   OH253009   1.318   4.233   1.281 -0.4742  0.2119  0.8148
 9605TIP3    H153010   1.393   4.274   1.323 -0.1433 -0.4919  0.9214
 9605TIP3    H253011   1.248   4.237   1.347 -0.8923  1.8853  0.3185
 9606TIP3   OH253012   4.673   2.304   0.714 -0.1297 -0.5403 -0.9391
 9606TIP3    H153013   4.708   2.218   0.689 -0.8425 -0.4656 -2.2287
 9606TIP3    H253014   4.749   2.362   0.712  0.6094 -1.3314  1.1163
 9607TIP3   OH253015   5.096   0.389   0.716  0.3361 -0.0690  0.2046
 9607TIP3    H153016   5.179   0.367   0.673  0.2605 -0.2293  0.1402
 9607TIP3    H253017   5.035   0.322   0.685 -0.0748  0.6421 -0.5696
 9608TIP3   OH253018   1.119   3.771   1.567 -0.6337 -0.0486 -0.3277
 9608TIP3    H153019   1.176   3.755   1.492 -0.2137  0.2705 -0.0782
 9608TIP3    H253020   1.075   3.853   1.547 -1.9797 -0.9361 -1.1104
 9609TIP3   OH253021   2.125   4.931   3.239 -0.6657  0.8389 -0.6037
 9609TIP3    H153022   2.046   4.882   3.260  0.0258 -1.0690 -2.1109
 9609TIP3    H253023   2.196   4.868   3.254  0.5355  2.3176  0.1286
 9610TIP3   OH253024   3.676   4.639   1.796 -0.3794  0.6119  0.1725
 9610TIP3    H153025   3.645   4.716   1.750 -2.3731  0.6448  1.4343
 9610TIP3    H253026   3.702   4.671   1.882  1.0461  0.2002 -0.0739
 9611TIP3   OH253027   4.271   1.201   2.752 -0.3593 -0.1470 -0.9619
 9611TIP3    H153028   4.203   1.234   2.811 -0.2306 -0.3363 -0.7054
 9611TIP3    H253029   4.340   1.267   2.756  0.7538 -1.3051  1.0478
 9612TIP3   OH253030   0.717   7.605   1.512 -0.1354 -0.0879  0.4013
 9612TIP3    H153031   0.750   7.515   1.502 -0.6303 -0.2789  0.4908
 9612TIP3    H253032   0.680   7.627   1.427 -1.2299 -0.4609  0.7713
 9613TIP3   OH253033   2.443   6.615   1.720  0.0841 -0.3001  0.6440
 9613TIP3    H153034   2.442   6.549   1.790  1.0981 -1.2009 -0.1567
 9613TIP3    H253035   2.514   6.587   1.662 -0.2211  0.8741 -0.3277
 9614TIP3   OH253036   7.126   6.137   1.117  0.5224  0.4754  0.2683
 9614TIP3    H153037   7.133   6.163   1.025 -3.2812  1.6042  0.1396
 9614TIP3    H253038   7.209   6.166   1.156  1.2780  2.1439 -2.3101
 9615TIP3   OH253039   4.743   0.348   1.518 -0.1053  0.3860 -0.1788
 9615TIP3    H153040   4.693   0.292   1.577  0.3088  0.6778  0.4571
 9615TIP3    H253041   4.697   0.432   1.520 -0.2266  0.3271 -0.4566
 9616TIP3   OH253042   0.164   1.483   0.658  0.2787  0.1222 -0.0776
 9616TIP3    H153043   0.069   1.481   0.652  0.1857  2.0471  0.1538
 9616TIP3    H253044   0.183   1.445   0.744 -0.2006 -0.9001 -0.3969
 9617TIP3   OH253045   6.349   1.377   0.604  0.2836 -0.7077 -0.5160
 9617TIP3    H153046   6.341   1.458   0.554 -0.5024 -1.1311 -1.0914
 9617TIP3    H253047   6.438   1.347   0.588  0.0078 -0.8969 -1.7565
 9618TIP3   OH253048   6.367   0.740   2.970 -0.4151 -0.4309  0.1015
 9618TIP3    H153049   6.302   0.679   3.002 -1.3596 -0.1741 -1.2240
 9618TIP3    H253050   6.388   0.796   3.045 -3.5257  1.0324  0.0354
 9619TIP3   OH253051   5.627   3.911   1.222 -0.3720 -0.0129 -0.2388
 9619TIP3    H153052   5.722   3.899   1.223 -0.4919 -1.0884 -0.7682
 9619TIP3    H253053   5.604   3.929   1.313  0.0089 -2.7652  0.4852
 9620TIP3   OH253054   7.070   7.638   1.677 -0.3848  0.6285  0.1853
 9620TIP3    H153055   7.022   7.682   1.607  0.2488 -0.0323 -0.6734
 9620TIP3    H253056   7.152   7.611   1.637  0.9161  2.1095  1.7408
 9621TIP3   OH253057   6.007   0.169   1.058 -0.5472 -0.0574 -0.4876
 9621TIP3    H153058   5.950   0.237   1.022 -0.4574  0.6657  0.6988
 9621TIP3    H253059   5.966   0.145   1.141 -0.1324 -0.8809 -0.5094
 9622TIP3   OH253060   6.537   1.061   3.116  0.5227 -0.0671  0.1244
 9622TIP3    H153061   6.490   1.128   3.165  1.4491  0.5971  0.1299
 9622TIP3    H253062   6.499   0.978   3.146 -0.0607  0.4093  0.7279
 9623TIP3   OH253063   6.797   6.731   1.482 -0.4001  0.0875  0.0177
 9623TIP3    H153064   6.885   6.740   1.447 -0.1141 -0.0864  0.6761
 9623TIP3    H253065   6.796   6.789   1.558 -0.5134 -0.7180  0.6331
 9624TIP3   OH253066   1.842   1.519   2.429  0.6209  0.2948  0.2946
 9624TIP3    H153067   1.750   1.537   2.451  0.9206 -0.3065  2.2027
 9624TIP3    H253068   1.888   1.599   2.455  0.7574  0.2386  0.2234
 9625TIP3   OH253069   0.238   6.183   1.443 -0.6028 -0.0197  0.2901
 9625TIP3    H153070   0.214   6.103   1.396 -0.7988 -0.1784  0.6501
 9625TIP3    H253071   0.204   6.169   1.532  1.9439 -0.8151  1.2362
 9626TIP3   OH253072   2.948   5.327   1.421  0.1097 -0.2871  0.5305
 9626TIP3    H153073   2.932   5.266   1.350 -3.0177  1.6503 -0.6260
 9626TIP3    H253074   2.989   5.402   1.379 -1.3899  0.7029  0.7427
 9627TIP3   OH253075   5.859   2.897   1.631 -0.3830  0.0219 -0.7982
 9627TIP3    H153076   5.780   2.929   1.587  0.1257  0.7829 -1.1755
 9627TIP3    H253077   5.928   2.904   1.565  0.6305  2.1830  0.3769
 9628TIP3   OH253078   1.750   4.400   2.119  0.4479 -0.7222  0.2189
 9628TIP3    H153079   1.673   4.457   2.120  1.0900  0.1829 -0.4776
 9628TIP3    H253080   1.772   4.392   2.026  1.7488 -0.1838  0.4569
 9629TIP3   OH253081   0.602   6.158   1.968 -0.2955  0.3477  0.2498
 9629TIP3    H153082   0.666   6.147   1.898  0.6387  0.5329  1.0379
 9629TIP3    H253083   0.523   6.189   1.925  0.7164  1.9678 -0.5602
 9630TIP3   OH253084   4.949   1.462   3.647  0.0345  0.3756  0.0240
 9630TIP3    H153085   5.014   1.413   3.697  0.3130 -0.2752 -0.9327
 9630TIP3    H253086   4.886   1.493   3.712  1.9951  2.2202  1.1660
 9631TIP3   OH253087   4.188   1.037   3.082  0.1945 -0.1531 -0.3389
 9631TIP3    H153088   4.270   0.990   3.065  0.1717  0.3100 -1.9238
 9631TIP3    H253089   4.212   1.130   3.080  0.1882 -0.0256  2.4817
 9632TIP3   OH253090   6.220   5.631   2.984  0.2596  0.2915  0.7849
 9632TIP3    H153091   6.137   5.660   3.020  0.7836  1.5053  1.0467
 9632TIP3    H253092   6.262   5.710   2.950  1.2871 -0.2962  0.6189
 9633TIP3   OH253093   2.539   2.494   2.542  0.7819  0.8902 -0.3838
 9633TIP3    H153094   2.457   2.544   2.541  0.8426  1.0337  0.6238
 9633TIP3    H253095   2.590   2.529   2.470 -0.3927  0.1974 -1.5978
 9634TIP3   OH253096   6.580   6.028   1.299  0.5051 -0.0113  0.2924
 9634TIP3    H153097   6.584   5.945   1.346 -1.2536 -0.8016 -0.8366
 9634TIP3    H253098   6.620   6.010   1.214 -1.9792 -0.4716 -0.8746
 9635TIP3   OH253099   3.457   7.153   1.021 -0.6501 -0.5237 -0.9293
 9635TIP3    H153100   3.461   7.062   0.994 -0.2908  0.0186 -2.9408
 9635TIP3    H253101   3.507   7.158   1.102 -1.5102 -2.2567 -0.2459
 9636TIP3   OH253102   2.143   3.512   1.006  0.4023 -0.4443 -0.2797
 9636TIP3    H153103   2.155   3.483   1.097 -1.2698 -1.4259 -0.3283
 9636TIP3    H253104   2.150   3.608   1.010  0.6158 -0.4936  0.8267
 9637TIP3   OH253105   1.841   0.909   3.389 -0.4606 -0.2910  0.3183
 9637TIP3    H153106   1.795   0.934   3.309  0.1719  1.1598  0.3667
 9637TIP3    H253107   1.915   0.857   3.359 -1.7432 -2.1276  0.1973
 9638TIP3   OH253108   3.178   0.781   3.598 -0.2398  0.2202 -0.0257
 9638TIP3    H153109   3.241   0.797   3.528 -1.0166  0.0545 -0.7881
 9638TIP3    H253110   3.123   0.710   3.564 -1.7336  1.3154 -0.0180
 9639TIP3   OH253111   2.739   2.613   0.440  0.5403 -0.3248 -0.6121
 9639TIP3    H153112   2.649   2.606   0.472  0.8408 -0.1395  0.3016
 9639TIP3    H253113   2.731   2.650   0.352 -0.1811  1.5093  0.1683
 9640TIP3   OH253114   6.629   4.770   2.734  0.1627  0.3058 -0.4715
 9640TIP3    H153115   6.608   4.722   2.814 -0.8549  0.1128 -0.8274
 9640TIP3    H253116   6.701   4.828   2.758 -1.6193  1.9805  1.2532
 9641TIP3   OH253117   3.256   4.869   2.076  0.0799 -0.4875  0.1178
 9641TIP3    H153118   3.287   4.897   2.162 -0.9841  3.6692 -0.6290
 9641TIP3    H253119   3.166   4.900   2.072 -0.6065 -2.5211 -1.7417
 9642TIP3   OH253120   7.054   3.672   2.360 -0.2495  0.2125  0.1019
 9642TIP3    H153121   7.097   3.599   2.404 -0.1314 -0.3739 -0.9425
 9642TIP3    H253122   7.117   3.702   2.295 -0.8938  0.2311 -0.5265
 9643TIP3   OH253123   2.856   0.835   1.852 -0.3737  0.5018  0.1997
 9643TIP3    H153124   2.802   0.887   1.792 -1.0773  0.0546  0.4355
 9643TIP3    H253125   2.832   0.744   1.833  1.9744  0.1146 -1.3001
 9644TIP3   OH253126   1.216   1.772   3.067 -0.2212  0.3684  0.0139
 9644TIP3    H153127   1.266   1.782   3.148 -1.0354  0.1420  0.5557
 9644TIP3    H253128   1.277   1.800   2.998  1.1649 -1.3135  0.4820
 9645TIP3   OH253129   2.445   1.426   1.336 -0.0051  0.0637 -0.0864
 9645TIP3    H153130   2.383   1.450   1.267  0.4537  2.2204  0.1572
 9645TIP3    H253131   2.391   1.408   1.412 -0.5694 -3.1056 -1.1179
 9646TIP3   OH253132   1.645   3.031   1.533  0.0436 -0.1091 -0.1645
 9646TIP3    H153133   1.620   3.064   1.447  1.1432 -1.0895 -0.8831
 9646TIP3    H253134   1.632   3.106   1.592 -1.7085  0.2663 -0.9683
 9647TIP3   OH253135   3.312   0.996   2.562 -0.1020 -0.3609 -0.2377
 9647TIP3    H153136   3.259   0.920   2.537 -1.4601  0.2636  0.6235
 9647TIP3    H253137   3.279   1.021   2.648  1.0589  0.5660 -0.0397
 9648TIP3   OH253138   5.655   3.436   2.388  0.0185  0.2546  0.7629
 9648TIP3    H153139   5.634   3.357   2.339  0.2552 -1.0024  2.5529
 9648TIP3    H253140   5.623   3.508   2.334 -0.3086 -1.0584 -0.8765
 9649TIP3   OH253141   1.919   1.792   2.419 -0.2519  0.1894  0.2801
 9649TIP3    H153142   1.849   1.814   2.480 -0.0337  2.3549 -0.1820
 9649TIP3    H253143   1.876   1.791   2.333 -0.1003 -0.4974  0.2089
 9650TIP3   OH253144   3.247   4.578   0.594  0.2641  0.2247 -0.0031
 9650TIP3    H153145   3.160   4.560   0.557  0.5535 -0.6477 -0.3090
 9650TIP3    H253146   3.304   4.514   0.550  0.4470 -1.6339  2.7150
 9651TIP3   OH253147   0.535   1.913   1.980  0.4868 -0.1593  0.0997
 9651TIP3    H153148   0.468   1.942   2.042 -3.3187 -2.1094 -2.6765
 9651TIP3    H253149   0.568   1.831   2.016  1.4190  0.7400  1.4136
 9652TIP3   OH253150   3.366   0.680   0.908  0.0321 -0.1190 -0.1284
 9652TIP3    H153151   3.287   0.629   0.894 -1.2664  1.1451  1.9875
 9652TIP3    H253152   3.424   0.622   0.958  0.0477 -0.7110 -0.8247
 9653TIP3   OH253153   6.761   5.946   1.711 -0.3285 -0.2378  0.0382
 9653TIP3    H153154   6.772   5.854   1.685 -3.1090 -0.2010 -1.6154
 9653TIP3    H253155   6.850   5.980   1.713  0.8452 -3.0329  1.1317
 9654TIP3   OH253156   7.440   1.409   2.711  0.0068 -0.1648  0.2972
 9654TIP3    H153157   7.451   1.503   2.718 -0.2822 -0.1362  0.3755
 9654TIP3    H253158   7.420   1.394   2.619  1.2741 -0.2790  0.0291
 9655TIP3   OH253159   6.039   1.713   1.767  0.0315  0.3705 -0.1497
 9655TIP3    H153160   6.006   1.652   1.833  0.8912 -0.1143 -0.1497
 9655TIP3    H253161   6.005   1.798   1.793  0.2965  0.1710  0.8767
 9656TIP3   OH253162   6.368   0.970   2.642 -0.9485 -0.0837 -0.2635
 9656TIP3    H153163   6.449   0.922   2.657  1.5335  2.9817 -2.6295
 9656TIP3    H253164   6.359   1.027   2.718 -1.1994 -0.7474  0.2171
 9657TIP3   OH253165   2.752   7.129   2.114  0.0387 -0.1115 -0.0598
 9657TIP3    H153166   2.664   7.094   2.127  0.2193  0.1497  2.2789
 9657TIP3    H253167   2.788   7.137   2.202  1.4399  2.2631 -0.7445
 9658TIP3   OH253168   0.354   1.970   2.185  0.2411  0.0821 -0.0554
 9658TIP3    H153169   0.266   1.993   2.216 -0.5952  0.1945 -2.2816
 9658TIP3    H253170   0.401   2.053   2.183 -0.9759  0.8255 -2.7032
 9659TIP3   OH253171   1.905   1.232   2.142 -0.1151  0.7314  0.6099
 9659TIP3    H153172   1.924   1.323   2.117 -0.4507  0.3130 -1.4065
 9659TIP3    H253173   1.864   1.194   2.064 -0.1599 -1.1109  1.4678
 9660TIP3   OH253174   3.860   7.278   0.865 -0.0736  0.2793  0.7768
 9660TIP3    H153175   3.776   7.292   0.820  0.3679  2.7139  0.5852
 9660TIP3    H253176   3.843   7.305   0.955  0.7572  1.8850  0.4825
 9661TIP3   OH253177   5.396   7.086   3.396 -0.1472  0.3370  0.6626
 9661TIP3    H153178   5.482   7.105   3.357 -0.1732  4.3309  2.0589
 9661TIP3    H253179   5.339   7.070   3.321  1.5360 -1.3397 -0.3544
 9662TIP3   OH253180   3.125   5.657   0.862  0.0822  0.3561  0.0001
 9662TIP3    H153181   3.209   5.701   0.847  0.9974 -1.1286  0.6134
 9662TIP3    H253182   3.098   5.628   0.775  1.4048 -1.2107  0.0653
 9663TIP3   OH253183   1.485   3.074   2.960 -0.2563 -0.1993 -0.1033
 9663TIP3    H153184   1.482   2.985   2.993 -0.5171 -1.4360 -3.1662
 9663TIP3    H253185   1.556   3.074   2.896  1.4983  2.5596  1.5719
 9664TIP3   OH253186   6.294   1.434   2.620  0.6408  0.4921 -0.7271
 9664TIP3    H153187   6.375   1.431   2.671  0.4550 -0.0862 -0.4524
 9664TIP3    H253188   6.323   1.457   2.532  0.9476  1.6143 -0.3452
 9665TIP3   OH253189   5.118   6.118   0.469  0.1626  0.1589  0.4517
 9665TIP3    H153190   5.149   6.036   0.431 -1.2124 -0.0666 -0.2258
 9665TIP3    H253191   5.043   6.093   0.522 -0.2482  0.9758  0.2617
 9666TIP3   OH253192   2.425   3.611   1.044  0.0823 -0.1673 -0.3919
 9666TIP3    H153193   2.432   3.578   0.954 -0.6038 -1.9380  0.1515
 9666TIP3    H253194   2.429   3.706   1.035 -0.4594 -0.2728 -2.3331
 9667TIP3   OH253195   6.140   2.114   1.384  0.5178  0.1368  0.0738
 9667TIP3    H153196   6.166   2.029   1.419  0.1643  0.2550  0.6374
 9667TIP3    H253197   6.049   2.101   1.357  0.3651  0.4207  0.4491
 9668TIP3   OH253198   4.074   2.633   1.409 -0.1468 -0.0591  0.1091
 9668TIP3    H153199   4.156   2.586   1.426 -0.1804 -0.9480 -1.9211
 9668TIP3    H253200   4.007   2.580   1.453  0.4442  1.6277  3.3530
 9669TIP3   OH253201   3.814   4.445   2.149 -0.1570  0.2629  0.2985
 9669TIP3    H153202   3.872   4.514   2.117 -1.3350  0.8707 -0.5660
 9669TIP3    H253203   3.852   4.364   2.114  0.9203  0.5065  0.8692
 9670TIP3   OH253204   3.952   0.059   0.646 -0.4865 -0.1207 -0.4831
 9670TIP3    H153205   3.956   0.135   0.704 -2.8270 -1.1473  1.1972
 9670TIP3    H253206   4.012  -0.004   0.684  0.0476  0.1949 -0.7940
 9671TIP3   OH253207   5.671   7.557   3.456  0.3590  0.4354 -0.0359
 9671TIP3    H153208   5.671   7.622   3.527 -1.0713 -0.3963  0.7806
 9671TIP3    H253209   5.686   7.473   3.501 -0.5957 -0.1085 -0.7016
 9672TIP3   OH253210   5.563   1.336   3.663 -0.4177 -0.2390 -0.7746
 9672TIP3    H153211   5.569   1.423   3.624  0.5675 -0.1266 -0.3874
 9672TIP3    H253212   5.650   1.320   3.700 -0.3419 -1.7003 -1.5164
 9673TIP3   OH253213   7.579   6.313   2.656 -0.1779  0.6908 -0.0125
 9673TIP3    H153214   7.571   6.358   2.740 -0.3681  0.4416  0.1060
 9673TIP3    H253215   7.640   6.366   2.605 -0.2320  0.9620  0.2042
 9674TIP3   OH253216   4.050   2.807   1.018  0.1462 -0.2474  0.0885
 9674TIP3    H153217   3.991   2.868   1.061  1.8963  0.6221  1.3796
 9674TIP3    H253218   4.123   2.862   0.988  0.2370 -1.2450 -1.6390
 9675TIP3   OH253219   4.046   4.810   0.807  0.1988  0.4210 -0.0070
 9675TIP3    H153220   4.133   4.833   0.840  0.7002 -0.4493 -0.6663
 9675TIP3    H253221   4.000   4.775   0.883  0.6315  0.3338  0.2213
 9676TIP3   OH253222   2.939   6.730   2.111 -0.5993 -0.5438  0.4257
 9676TIP3    H153223   2.879   6.728   2.185 -1.4764 -0.9578 -0.2809
 9676TIP3    H253224   3.023   6.701   2.148 -1.0257 -0.7671  1.2457
 9677TIP3   OH253225   7.378   6.157   2.845 -0.5971 -0.0602 -0.0042
 9677TIP3    H153226   7.307   6.184   2.787 -0.1800 -0.6428 -0.8053
 9677TIP3    H253227   7.435   6.233   2.851 -0.8454  0.1307 -0.0272
 9678TIP3   OH253228   0.569   2.140   2.242  0.2244  0.4102 -0.1576
 9678TIP3    H153229   0.613   2.177   2.319  1.2911 -2.0719  0.5492
 9678TIP3    H253230   0.626   2.163   2.169  1.9394 -1.3246  0.5319
 9679TIP3   OH253231   6.578   0.363   1.250  0.3738  0.5421 -0.2170
 9679TIP3    H153232   6.651   0.378   1.310 -0.2673  0.7428  0.5202
 9679TIP3    H253233   6.502   0.397   1.296 -0.6649 -2.1731  0.2125
 9680TIP3   OH253234   3.164   4.920   2.705 -0.2023  0.3167 -0.1424
 9680TIP3    H153235   3.100   4.967   2.759 -1.2793  0.6296 -1.6058
 9680TIP3    H253236   3.247   4.928   2.752 -1.2782 -0.4464  2.0373
 9681TIP3   OH253237   3.992   3.511   2.132 -0.2062 -0.3982 -0.6351
 9681TIP3    H153238   3.904   3.499   2.097 -1.0595 -0.4670  1.4142
 9681TIP3    H253239   3.982   3.504   2.227  1.8391  0.6300 -0.2770
 9682TIP3   OH253240   7.632   0.704   0.549  0.4131 -0.5820 -0.4413
 9682TIP3    H153241   7.685   0.741   0.479  1.1970 -1.7488 -0.5053
 9682TIP3    H253242   7.696   0.666   0.610 -0.2323  0.5840  1.0272
 9683TIP3   OH253243   1.232   2.032   1.161 -0.2672  0.1750 -0.2678
 9683TIP3    H153244   1.235   2.098   1.230 -2.1432 -0.4753  0.5200
 9683TIP3    H253245   1.240   1.949   1.207 -0.8051 -0.2401 -0.8977
 9684TIP3   OH253246   7.636   7.509   2.756 -0.3535 -0.2259 -0.1522
 9684TIP3    H153247   7.676   7.440   2.704  2.3492  1.0804  0.0330
 9684TIP3    H253248   7.707   7.572   2.772 -2.0714  1.3830  1.7489
 9685TIP3   OH253249   2.892   1.331   3.745 -0.3903  0.1861  0.3964
 9685TIP3    H153250   2.872   1.425   3.749  0.7694  0.5544 -1.2845
 9685TIP3    H253251   2.840   1.299   3.671  1.4575  0.1859 -0.9828
 9686TIP3   OH253252   1.267   5.817   1.673  0.3961 -0.5319 -0.1513
 9686TIP3    H153253   1.270   5.910   1.692 -0.5483 -0.4721 -0.2608
 9686TIP3    H253254   1.177   5.790   1.694  0.8553 -1.5703  0.5928
 9687TIP3   OH253255   6.493   2.654   1.136  0.0090 -0.1925  0.3984
 9687TIP3    H153256   6.445   2.710   1.195  0.3405  0.8316 -0.2786
 9687TIP3    H253257   6.431   2.584   1.113 -0.8126  0.5354  0.3458
 9688TIP3   OH253258   1.356   6.398   2.560 -0.2295  0.3512  0.3964
 9688TIP3    H153259   1.422   6.369   2.623  0.0984  1.1619  0.4430
 9688TIP3    H253260   1.346   6.325   2.500  1.8973  0.7853 -0.5645
 9689TIP3   OH253261   5.766   3.522   1.232  0.0428 -0.0838  0.3821
 9689TIP3    H153262   5.733   3.480   1.152  2.9213 -0.7771 -0.5801
 9689TIP3    H253263   5.764   3.615   1.212  1.5960 -0.2918 -0.9424
 9690TIP3   OH253264   1.484   6.691   3.368  0.2201 -0.0466  0.4706
 9690TIP3    H153265   1.470   6.780   3.399 -0.1885  0.0605 -0.0085
 9690TIP3    H253266   1.441   6.688   3.283  2.0808 -0.0753 -0.5257
 9691TIP3   OH253267   4.381   2.073   2.896  0.7703 -0.1726 -0.3379
 9691TIP3    H153268   4.467   2.108   2.875  0.3574  0.1168 -1.6899
 9691TIP3    H253269   4.322   2.149   2.892  0.2202 -0.6175 -1.0616
 9692TIP3   OH253270   7.120   5.237   1.071  0.0963 -0.3335 -0.4399
 9692TIP3    H153271   7.114   5.307   1.136  0.0655 -0.0841 -0.7111
 9692TIP3    H253272   7.136   5.158   1.123  1.8326  0.1036 -0.2383
 9693TIP3   OH253273   2.157   5.956   1.932 -0.5330  0.1232  0.2735
 9693TIP3    H153274   2.140   6.043   1.969 -1.1149  1.1898 -2.2879
 9693TIP3    H253275   2.071   5.925   1.904  0.1755  1.0421 -3.4455
 9694TIP3   OH253276   3.546   6.298   0.825  0.4426  0.6451  0.5682
 9694TIP3    H153277   3.456   6.316   0.850 -0.3805 -0.7383 -1.1761
 9694TIP3    H253278   3.568   6.368   0.763  0.0695  0.2365 -0.0391
 9695TIP3   OH253279   7.289   0.267   1.774  0.4203  0.2196 -0.1881
 9695TIP3    H153280   7.304   0.219   1.856  2.1274  0.9500 -0.0344
 9695TIP3    H253281   7.296   0.201   1.706 -1.2513 -0.4421  0.2184
 9696TIP3   OH253282   0.953   6.022   0.562 -0.0423  0.2328 -0.1189
 9696TIP3    H153283   1.009   5.996   0.488 -0.8627 -1.8281 -0.0976
 9696TIP3    H253284   1.007   6.083   0.612  0.9813  0.7649 -1.7626
 9697TIP3   OH253285   7.318   6.112   1.550 -0.1416  0.2151  0.0999
 9697TIP3    H153286   7.377   6.063   1.607 -0.2453 -1.7105 -1.3747
 9697TIP3    H253287   7.277   6.176   1.608  0.8103 -0.7262  1.8862
 9698TIP3   OH253288   6.079   7.162   3.356  0.6340  0.0859  0.7404
 9698TIP3    H153289   6.074   7.245   3.309  0.6371 -0.5074 -0.3450
 9698TIP3    H253290   6.004   7.112   3.324  0.4193 -0.1905  1.6615
 9699TIP3   OH253291   5.390   1.268   1.441  0.1801  0.4955  0.0771
 9699TIP3    H153292   5.373   1.362   1.432  0.9397  0.4734 -1.9174
 9699TIP3    H253293   5.411   1.238   1.353  1.5825 -1.2286  0.9349
 9700TIP3   OH253294   4.441   7.555   3.344  0.3604  0.3838  0.0878
 9700TIP3    H153295   4.352   7.588   3.327  0.2550 -0.4266 -1.0022
 9700TIP3    H253296   4.428   7.481   3.404  0.6474  2.5527  3.0969
 9701TIP3   OH253297   4.629   6.855   2.346  0.2192  0.1429  0.5816
 9701TIP3    H153298   4.684   6.928   2.375  0.2114 -0.1827  1.4589
 9701TIP3    H253299   4.635   6.856   2.251  0.5333  1.0442  0.6061
 9702TIP3   OH253300   0.673   1.385   2.259 -0.1681 -0.3997 -0.1382
 9702TIP3    H153301   0.764   1.358   2.265 -0.4224 -1.1779  0.3659
 9702TIP3    H253302   0.653   1.422   2.345  0.6114  2.9274 -1.2549
 9703TIP3   OH253303   5.826   3.140   0.606  0.0678  0.1560 -0.3451
 9703TIP3    H153304   5.731   3.134   0.597  0.2716 -2.8457 -1.5718
 9703TIP3    H253305   5.842   3.118   0.698 -0.3416 -1.7777 -0.6999
 9704TIP3   OH253306   1.577   0.619   0.771 -0.5275  0.0244 -0.6151
 9704TIP3    H153307   1.492   0.578   0.757 -1.0559  1.1836 -0.9683
 9704TIP3    H253308   1.602   0.594   0.860 -1.5878  0.2412 -0.2420
 9705TIP3   OH253309   4.401   2.919   0.585 -0.0546  0.9810 -0.4239
 9705TIP3    H153310   4.400   2.830   0.550  3.5511  0.4868  0.3109
 9705TIP3    H253311   4.458   2.967   0.525  0.9210  1.8120  1.1238
 9706TIP3   OH253312   5.539   0.097   2.019 -0.1596 -0.2426 -0.1157
 9706TIP3    H153313   5.634   0.095   2.010  0.0115  2.7090 -0.1056
 9706TIP3    H253314   5.506   0.092   1.929  0.0468 -0.3487 -0.1868
 9707TIP3   OH253315   5.273   5.760   2.925 -0.1822  0.3519  0.6588
 9707TIP3    H153316   5.240   5.844   2.956 -0.8810  0.5330 -0.4975
 9707TIP3    H253317   5.336   5.782   2.857 -0.0434 -0.0524  0.6540
 9708TIP3   OH253318   3.419   0.535   3.189 -0.1802 -0.2899  1.0257
 9708TIP3    H153319   3.349   0.481   3.152  0.4135 -0.0374 -0.5472
 9708TIP3    H253320   3.486   0.472   3.215 -1.1612 -0.5757  3.0409
 9709TIP3   OH253321   0.915   1.341   0.913  0.0140 -0.0974  0.6381
 9709TIP3    H153322   0.874   1.255   0.915  0.6593 -0.4475 -0.2128
 9709TIP3    H253323   0.846   1.402   0.940 -2.1152 -0.2817 -3.5420
 9710TIP3   OH253324   4.044   5.030   2.764  0.2376 -0.4926 -0.2623
 9710TIP3    H153325   4.041   4.935   2.770 -3.6762 -0.5149  0.0413
 9710TIP3    H253326   4.034   5.049   2.671  2.2661 -0.3131 -0.4766
 9711TIP3   OH253327   0.133   0.101   1.585 -0.3159 -0.4180  0.5852
 9711TIP3    H153328   0.138   0.172   1.648 -0.5702  0.1730 -0.0487
 9711TIP3    H253329   0.057   0.050   1.613  0.1412 -0.7111  1.3096
 9712TIP3   OH253330   6.344   7.598   0.756  0.5028 -0.4141  0.7962
 9712TIP3    H153331   6.299   7.615   0.839  0.5350  1.0531  0.5331
 9712TIP3    H253332   6.281   7.622   0.689  1.9634  2.8603  0.4000
 9713TIP3   OH253333   6.957   2.027   1.012  0.1157  0.3837 -0.3298
 9713TIP3    H153334   6.991   2.101   1.063 -0.3352  2.1052 -2.3476
 9713TIP3    H253335   7.017   1.955   1.030 -0.2560  0.7421  2.8684
 9714TIP3   OH253336   2.134   6.429   0.870 -0.2043 -0.4734  0.1129
 9714TIP3    H153337   2.102   6.473   0.949 -0.3945 -2.2238  1.0566
 9714TIP3    H253338   2.145   6.338   0.896  1.9980 -0.6626 -1.2376
 9715TIP3   OH253339   7.011   1.861   1.287  0.4574 -0.9638 -0.1424
 9715TIP3    H153340   6.922   1.843   1.255  1.4343 -2.5436 -2.2462
 9715TIP3    H253341   7.000   1.929   1.353 -2.0724  0.7868 -2.1633
 9716TIP3   OH253342   7.300   1.204   0.754  0.0203  0.0051  0.7147
 9716TIP3    H153343   7.269   1.120   0.790  0.2322  0.5060  2.1220
 9716TIP3    H253344   7.346   1.180   0.674 -0.2544 -1.1824  0.8934
 9717TIP3   OH253345   6.612   3.613   1.335 -0.8413  0.1751  0.3916
 9717TIP3    H153346   6.646   3.534   1.292 -1.9416  0.3950 -0.9469
 9717TIP3    H253347   6.554   3.652   1.270 -0.3290  2.1008  1.0303
 9718TIP3   OH253348   4.809   1.041   2.709 -0.0382  0.3163 -0.6136
 9718TIP3    H153349   4.780   1.055   2.800  2.5048 -1.8635  0.6563
 9718TIP3    H253350   4.845   1.126   2.682 -0.5711  0.9165  0.4708
 9719TIP3   OH253351   3.994   0.757   2.801  0.2291 -0.5650  0.8007
 9719TIP3    H153352   3.916   0.774   2.749  0.0236  0.4637  1.4157
 9719TIP3    H253353   3.989   0.819   2.873  2.3789  0.6487  0.0160
 9720TIP3   OH253354   4.166   1.767   2.339  0.6689  0.3065 -0.3490
 9720TIP3    H153355   4.164   1.862   2.330  0.9795  0.3980  0.5174
 9720TIP3    H253356   4.143   1.735   2.251 -1.4438  1.1654 -0.1854
 9721TIP3   OH253357   5.870   4.123   2.086  0.3764  0.1516  0.1478
 9721TIP3    H153358   5.787   4.131   2.133 -0.5189 -0.0123 -1.3548
 9721TIP3    H253359   5.882   4.206   2.041  2.2536  1.0881  2.1883
 9722TIP3   OH253360   2.653   6.478   3.328 -0.1319 -0.0008 -0.8224
 9722TIP3    H153361   2.634   6.572   3.328  0.0425  0.0418 -1.6492
 9722TIP3    H253362   2.571   6.436   3.355 -0.2845  0.3692 -0.7038
 9723TIP3   OH253363   1.480   6.223   1.027 -0.7606 -0.1576  0.1602
 9723TIP3    H153364   1.522   6.165   1.090  2.6588  0.3497 -1.4526
 9723TIP3    H253365   1.503   6.311   1.056 -0.4922  0.1389 -0.9113
 9724TIP3   OH253366   6.608   4.921   0.908 -0.1197  0.7183 -0.3165
 9724TIP3    H153367   6.583   5.001   0.863 -1.0796  1.0087  0.6872
 9724TIP3    H253368   6.538   4.859   0.888 -0.9589  1.0838  1.3374
 9725TIP3   OH253369   5.083   7.115   2.538  0.2432 -0.1913 -0.5131
 9725TIP3    H153370   4.999   7.086   2.574  0.0747  0.1977 -0.5797
 9725TIP3    H253371   5.092   7.205   2.569 -0.4733  0.5843 -2.3875
 9726TIP3   OH253372   6.304   0.624   3.868 -0.0361 -0.1688  0.4134
 9726TIP3    H153373   6.330   0.587   3.784 -1.0075  1.2442 -0.5598
 9726TIP3    H253374   6.214   0.593   3.881 -0.5901  1.1867 -0.0526
 9727TIP3   OH253375   0.787   0.485   2.119  0.2265 -0.5217  0.2536
 9727TIP3    H153376   0.774   0.447   2.206 -0.6209  0.1576  0.4417
 9727TIP3    H253377   0.847   0.426   2.075 -0.3256 -1.5548  0.8601
 9728TIP3   OH253378   0.846   7.429   0.545  0.4470 -0.0549 -0.0973
 9728TIP3    H153379   0.769   7.425   0.602  1.3544  0.2034  1.1820
 9728TIP3    H253380   0.823   7.493   0.478 -0.3895  0.1562  0.3750
 9729TIP3   OH253381   7.249   1.381   1.265  0.1787  0.2247  0.0973
 9729TIP3    H153382   7.202   1.376   1.348  2.7710 -0.1878  1.6602
 9729TIP3    H253383   7.208   1.316   1.210  0.2605 -1.6756  2.1462
 9730TIP3   OH253384   5.782   5.073   2.919  0.0513  0.4385 -0.2344
 9730TIP3    H153385   5.777   4.998   2.978  3.7247 -0.1550 -0.4434
 9730TIP3    H253386   5.696   5.114   2.925 -0.9554 -1.7488  2.5967
 9731TIP3   OH253387   5.374   6.975   2.299  0.1754  0.3374 -0.2555
 9731TIP3    H153388   5.289   6.994   2.260 -0.1317  2.1933  1.1732
 9731TIP3    H253389   5.435   7.034   2.255  0.8050 -1.1130 -1.4035
 9732TIP3   OH253390   2.235   3.831   3.369  0.0648  0.3233 -0.2141
 9732TIP3    H153391   2.167   3.889   3.401 -0.2935 -0.0958 -0.2053
 9732TIP3    H253392   2.202   3.743   3.387  1.8178  0.0924  2.3911
 9733TIP3   OH253393   5.957   0.109   1.351 -0.2675 -0.2874  0.3421
 9733TIP3    H153394   6.051   0.093   1.359  0.1122  0.3308 -2.0273
 9733TIP3    H253395   5.916   0.029   1.385  1.1242 -0.8336  0.8062
 9734TIP3   OH253396   5.541   6.637   1.538 -0.8641  0.2728 -0.5635
 9734TIP3    H153397   5.591   6.712   1.567  0.4878 -0.3243 -1.2475
 9734TIP3    H253398   5.582   6.562   1.581 -1.1212 -0.2342 -1.1760
 9735TIP3   OH253399   7.033   0.357   1.228  0.0418 -0.1197  0.5527
 9735TIP3    H153400   6.988   0.327   1.149  0.7092  0.2001  0.0419
 9735TIP3    H253401   6.988   0.438   1.252 -1.5636 -1.3109  1.7580
 9736TIP3   OH253402   2.349   0.039   2.109 -0.1920  0.0549 -0.6680
 9736TIP3    H153403   2.404   0.114   2.086 -1.4975  1.1918 -0.2461
 9736TIP3    H253404   2.265   0.078   2.134 -0.7807 -1.5358 -0.0354
 9737TIP3   OH253405   4.037   6.741   2.996  0.1638  0.2780  0.2939
 9737TIP3    H153406   4.063   6.755   2.905 -0.2871 -0.0488  0.1114
 9737TIP3    H253407   4.111   6.773   3.048  0.3104  0.7037 -0.1813
 9738TIP3   OH253408   5.408   5.461   0.709 -0.3328 -0.1635  0.3761
 9738TIP3    H153409   5.394   5.512   0.630 -1.3178 -1.0154 -0.0258
 9738TIP3    H253410   5.422   5.526   0.778  1.4164  0.5757 -0.6101
 9739TIP3   OH253411   2.395   7.463   1.570 -0.4853  0.5676  0.2567
 9739TIP3    H153412   2.351   7.499   1.493 -1.0366 -2.4009 -0.9759
 9739TIP3    H253413   2.451   7.393   1.535  0.8445  0.4724  2.3822
 9740TIP3   OH253414   1.822   0.750   1.095  0.1540 -0.3039  0.2357
 9740TIP3    H153415   1.811   0.788   1.008  1.1498  0.0957  0.2723
 9740TIP3    H253416   1.910   0.775   1.121  0.1411 -1.0637  1.0527
 9741TIP3   OH253417   6.589   3.121   0.625  0.1790 -0.2364  0.1183
 9741TIP3    H153418   6.497   3.138   0.646  0.9542  1.7731  2.4433
 9741TIP3    H253419   6.616   3.199   0.576  1.0289  0.0376  0.9933
 9742TIP3   OH253420   7.001   1.399   2.540  0.2457 -0.0271  0.1812
 9742TIP3    H153421   6.979   1.402   2.633 -0.3676 -3.1161  0.2326
 9742TIP3    H253422   6.979   1.487   2.508 -0.7657  0.7250  2.6560
 9743TIP3   OH253423   2.699   5.402   3.040  0.0253 -0.4995 -0.4377
 9743TIP3    H153424   2.629   5.356   2.995 -0.3799 -0.7407  0.4211
 9743TIP3    H253425   2.691   5.493   3.010 -0.9289 -0.4364 -0.0221
 9744TIP3   OH253426   7.194   1.503   0.860 -0.1798  0.1678 -0.8044
 9744TIP3    H153427   7.221   1.417   0.830 -2.4874 -1.0338  0.3018
 9744TIP3    H253428   7.131   1.486   0.930 -1.9275  2.6963 -1.5901
 9745TIP3   OH253429   6.447   5.088   1.903 -0.2283 -0.2265  0.1529
 9745TIP3    H153430   6.439   4.993   1.898 -0.2691 -0.2746  0.9887
 9745TIP3    H253431   6.362   5.121   1.873  0.9780 -0.2786 -3.9717
 9746TIP3   OH253432   4.658   2.791   0.906 -0.4133  0.2628  0.0157
 9746TIP3    H153433   4.733   2.814   0.960 -0.1722 -1.9355  0.6986
 9746TIP3    H253434   4.675   2.702   0.876 -2.7481 -0.3261  0.2266
 9747TIP3   OH253435   3.404   7.499   3.001 -0.0918 -0.0797  0.5169
 9747TIP3    H153436   3.329   7.558   3.011  0.4045  0.4086  1.4690
 9747TIP3    H253437   3.372   7.431   2.943 -1.1374  0.3653  0.5364
 9748TIP3   OH253438   7.466   6.729   1.526  0.2811 -0.1628  0.0216
 9748TIP3    H153439   7.399   6.666   1.499  0.4898 -0.6361  0.5589
 9748TIP3    H253440   7.540   6.674   1.554  0.2833  0.3004  0.9805
 9749TIP3   OH253441   0.620   3.339   2.015 -0.5461  0.3675 -0.3690
 9749TIP3    H153442   0.684   3.337   2.087  1.4773 -0.9421 -2.0739
 9749TIP3    H253443   0.631   3.425   1.976  1.5803 -0.4127 -1.7048
 9750TIP3   OH253444   3.787   2.302   2.088 -0.5130  0.1725  0.1881
 9750TIP3    H153445   3.751   2.378   2.042  2.3170  1.0559 -0.7841
 9750TIP3    H253446   3.741   2.302   2.172 -1.7930  1.9631 -0.4416
 9751TIP3   OH253447   1.221   4.321   2.136  0.2184 -0.6105  0.5199
 9751TIP3    H153448   1.216   4.311   2.231  1.0982 -0.0731  0.6306
 9751TIP3    H253449   1.315   4.325   2.117  0.0379  0.1286 -0.2781
 9752TIP3   OH253450   5.360   5.273   1.723 -0.3998  0.0675  0.1396
 9752TIP3    H153451   5.454   5.256   1.726 -0.6688 -1.3990  1.0582
 9752TIP3    H253452   5.319   5.187   1.719 -1.7245  0.6643  0.1073
 9753TIP3   OH253453   1.484   1.139   1.304 -0.5616 -0.1703  0.4076
 9753TIP3    H153454   1.567   1.134   1.351 -0.6213  0.2367  0.5600
 9753TIP3    H253455   1.450   1.226   1.324 -0.3486  0.2211 -0.7973
 9754TIP3   OH253456   1.847   3.556   2.218 -0.3030  0.7679  0.0450
 9754TIP3    H153457   1.887   3.642   2.202  1.2141  0.3515  1.3323
 9754TIP3    H253458   1.911   3.493   2.184 -1.4806  0.1193 -1.0510
 9755TIP3   OH253459   2.953   0.341   0.802  0.6265 -0.0343 -0.0881
 9755TIP3    H153460   2.987   0.253   0.815 -1.3194 -0.9886 -1.1610
 9755TIP3    H253461   2.928   0.370   0.890 -0.1625 -1.1867  0.0871
 9756TIP3   OH253462   6.510   1.713   1.754 -0.4775  0.3466  0.0955
 9756TIP3    H153463   6.588   1.674   1.715 -0.4017 -0.8163  1.3478
 9756TIP3    H253464   6.527   1.713   1.848 -1.9156  0.2051  0.3890
 9757TIP3   OH253465   6.439   4.437   1.903  0.1079  0.3591  0.7078
 9757TIP3    H153466   6.354   4.472   1.931  0.1260  1.9465 -1.0110
 9757TIP3    H253467   6.501   4.474   1.966 -0.3178  0.2546  1.2055
 9758TIP3   OH253468   4.111   0.077   2.618 -0.8507 -0.3665 -0.2200
 9758TIP3    H153469   4.144   0.140   2.682  0.4333 -0.6174 -0.5992
 9758TIP3    H253470   4.066   0.130   2.553 -0.5902  0.0711 -0.0481
 9759TIP3   OH253471   2.059   2.572   1.136  0.1941  0.2092 -0.0255
 9759TIP3    H153472   2.045   2.559   1.230  0.0078  0.1884 -0.0561
 9759TIP3    H253473   2.092   2.488   1.105 -0.7863 -0.1349 -0.1814
 9760TIP3   OH253474   3.089   2.478   2.020 -0.1856 -0.5935 -0.5651
 9760TIP3    H153475   3.096   2.496   1.926 -1.0773 -0.7236 -0.6694
 9760TIP3    H253476   3.112   2.561   2.062  2.0631 -1.0353 -0.8187
 9761TIP3   OH253477   4.317   3.364   0.757  0.6106 -0.0519  0.0599
 9761TIP3    H153478   4.306   3.295   0.692  0.5569 -1.1729  1.2010
 9761TIP3    H253479   4.243   3.423   0.744  0.7134 -0.1408 -1.0026
 9762TIP3   OH253480   5.875   1.857   1.584  0.7388 -0.4742  0.2370
 9762TIP3    H153481   5.945   1.828   1.525 -1.2343 -2.4260 -1.3041
 9762TIP3    H253482   5.901   1.825   1.670  2.3334 -0.0085 -0.0459
 9763TIP3   OH253483   3.541   2.280   1.878 -0.1402  0.5688  0.1102
 9763TIP3    H153484   3.630   2.304   1.852 -0.7551  3.0298  0.0401
 9763TIP3    H253485   3.544   2.276   1.973 -0.3847  2.9660  0.2889
 9764TIP3   OH253486   4.140   3.942   2.987  0.2014  0.1997  0.3644
 9764TIP3    H153487   4.083   3.912   3.058 -1.1371 -1.2958 -1.2683
 9764TIP3    H253488   4.225   3.903   3.009 -0.3771 -0.8948  0.7611
 9765TIP3   OH253489   7.571   4.952   2.082  0.2124  0.1406 -0.1852
 9765TIP3    H153490   7.517   4.955   2.161  0.4920  0.9312 -0.0105
 9765TIP3    H253491   7.647   4.899   2.107 -1.0135 -1.9886 -0.7963
 9766TIP3   OH253492   4.305   7.206   2.779 -0.3096 -0.3437 -0.2596
 9766TIP3    H153493   4.274   7.296   2.788  0.7567  0.1931 -1.7208
 9766TIP3    H253494   4.308   7.173   2.869 -1.1260  0.9167  0.2593
 9767TIP3   OH253495   1.365   7.305   0.647 -0.7963 -0.6414  0.2598
 9767TIP3    H153496   1.286   7.355   0.627  1.1175  1.1825 -3.8014
 9767TIP3    H253497   1.368   7.237   0.580  0.9715 -0.8291  0.4984
 9768TIP3   OH253498   1.121   2.687   2.280  0.1896 -0.4629  0.4450
 9768TIP3    H153499   1.115   2.592   2.291 -2.3363 -0.3998  0.0521
 9768TIP3    H253500   1.134   2.721   2.369 -1.8840 -1.0427  1.0226
 9769TIP3   OH253501   5.647   4.278   1.574 -0.3891 -0.2415  0.5352
 9769TIP3    H153502   5.600   4.206   1.533 -0.1275 -0.5411  0.7649
 9769TIP3    H253503   5.696   4.239   1.646 -1.0548  0.3323  1.3113
 9770TIP3   OH253504   7.540   7.497   2.053  0.1999  0.0746  0.4666
 9770TIP3    H153505   7.486   7.478   1.976 -1.8173 -0.8382  2.0144
 9770TIP3    H253506   7.626   7.460   2.032 -0.7823 -1.7053 -0.6851
 9771TIP3   OH253507   3.670   4.114   0.904  0.6632  0.0279  0.3548
 9771TIP3    H153508   3.758   4.153   0.908  0.8692 -0.3568 -0.3040
 9771TIP3    H253509   3.611   4.189   0.911  1.0249  0.2211  1.6002
 9772TIP3   OH253510   0.609   0.874   0.905 -0.4741  0.2624  0.1240
 9772TIP3    H153511   0.631   0.789   0.867  0.8956  0.8750 -0.4909
 9772TIP3    H253512   0.645   0.870   0.994 -2.7740 -0.7756  1.0987
 9773TIP3   OH253513   0.664   1.486   2.538  0.0831  0.4480  0.1450
 9773TIP3    H153514   0.592   1.520   2.484  1.0479  0.2334 -1.3045
 9773TIP3    H253515   0.700   1.563   2.581 -0.0230  0.7762 -0.3464
 9774TIP3   OH253516   3.537   4.003   1.553 -0.1015  0.4050  0.0736
 9774TIP3    H153517   3.443   3.994   1.535  0.1072  0.0619 -0.8461
 9774TIP3    H253518   3.547   4.095   1.578 -0.8660  0.1799  1.3588
 9775TIP3   OH253519   5.153   7.042   2.091 -0.0662 -0.7147  0.1996
 9775TIP3    H153520   5.075   7.096   2.099 -0.7959 -1.7908  0.6284
 9775TIP3    H253521   5.187   7.061   2.003 -0.2447  0.4806  0.3713
 9776TIP3   OH253522   2.633   5.648   2.846  0.3760  0.3857 -0.2306
 9776TIP3    H153523   2.717   5.680   2.879 -0.4558  1.5659  0.8562
 9776TIP3    H253524   2.586   5.727   2.820 -0.5470 -0.2249 -0.4466
 9777TIP3   OH253525   3.022   0.887   0.517 -0.5645 -0.2085  0.1613
 9777TIP3    H153526   3.101   0.837   0.533  0.5573  1.4670  0.1103
 9777TIP3    H253527   2.993   0.916   0.604  0.8322  1.9627 -0.0172
 9778TIP3   OH253528   5.991   5.978   2.943  0.6570 -0.0790  0.1172
 9778TIP3    H153529   5.984   6.007   3.034  1.2195 -2.1653  0.8743
 9778TIP3    H253530   5.996   5.883   2.948 -2.8240 -0.5573 -2.3220
 9779TIP3   OH253531   0.064   3.662   2.662 -0.0876 -0.1325  0.6500
 9779TIP3    H153532   0.110   3.612   2.730  0.1332 -2.0169 -0.8071
 9779TIP3    H253533  -0.026   3.628   2.665  0.4917 -2.1467 -1.6067
 9780TIP3   OH253534   7.666   1.796   1.297  0.4362 -0.2683 -0.5400
 9780TIP3    H153535   7.660   1.730   1.228 -1.0210 -0.4161 -0.2907
 9780TIP3    H253536   7.602   1.862   1.273  0.2433 -0.0908  0.4302
 9781TIP3   OH253537   7.042   4.397   1.220  0.3190 -0.3128  0.2415
 9781TIP3    H153538   7.080   4.309   1.227 -0.1256 -0.4477  0.9923
 9781TIP3    H253539   7.053   4.420   1.127  2.3950 -0.2683  0.4556
 9782TIP3   OH253540   1.569   3.002   2.325 -0.2103  0.0986  0.0856
 9782TIP3    H153541   1.601   3.020   2.413  1.1647  1.6327 -0.6804
 9782TIP3    H253542   1.496   2.941   2.338 -0.1891  0.4670  2.2806
 9783TIP3   OH253543   1.522   2.377   1.029  0.0563 -0.0205  0.2435
 9783TIP3    H153544   1.580   2.362   1.103  0.3795 -1.5395 -0.2902
 9783TIP3    H253545   1.581   2.391   0.955 -0.2435 -0.8194 -0.1577
 9784TIP3   OH253546   6.478   7.640   1.130 -0.3384  0.3768  0.0784
 9784TIP3    H153547   6.405   7.671   1.077  0.3568 -0.9082 -1.7144
 9784TIP3    H253548   6.464   7.681   1.216 -2.9558  0.4585 -0.2913
 9785TIP3   OH253549   3.019   6.819   1.141 -0.4380 -0.0710 -0.4828
 9785TIP3    H153550   3.044   6.901   1.098 -0.1080 -0.0492 -0.2619
 9785TIP3    H253551   2.930   6.834   1.172 -0.1363  0.4612  0.1565
 9786TIP3   OH253552   0.442   0.073   1.564  0.1385  0.5564  0.4740
 9786TIP3    H153553   0.486   0.031   1.638 -0.5632 -0.7167  0.1986
 9786TIP3    H253554   0.358   0.027   1.557 -0.9329  2.4045  0.5068
 9787TIP3   OH253555   6.343   3.915   1.838  0.1597  0.2084 -0.1237
 9787TIP3    H153556   6.429   3.880   1.816  0.0321 -0.2536  0.0854
 9787TIP3    H253557   6.359   4.004   1.869  0.3120  1.0656 -2.4769
 9788TIP3   OH253558   6.337   6.452   2.485  0.5077  0.4184  0.1398
 9788TIP3    H153559   6.304   6.397   2.556  0.4622  1.2114  0.7486
 9788TIP3    H253560   6.277   6.435   2.412  2.3384 -2.7697 -0.8097
 9789TIP3   OH253561   5.717   4.233   2.587 -0.2786 -0.3573  0.9171
 9789TIP3    H153562   5.703   4.148   2.630 -0.7133 -1.1873 -0.8090
 9789TIP3    H253563   5.654   4.291   2.628 -2.3487 -1.7184 -0.1758
 9790TIP3   OH253564   0.870   7.631   1.992  0.4385 -0.2326  0.2070
 9790TIP3    H153565   0.964   7.627   1.977  0.4081  1.1973 -0.5536
 9790TIP3    H253566   0.832   7.642   1.905 -0.4192 -0.5964  0.5237
 9791TIP3   OH253567   7.231   5.734   3.010  0.0241  0.1554 -0.2242
 9791TIP3    H153568   7.164   5.741   2.941 -0.9546  0.3732  0.7268
 9791TIP3    H253569   7.299   5.795   2.982 -0.6248  0.6717 -0.7216
 9792TIP3   OH253570   6.135   7.365   2.983  0.7742 -0.3391 -0.0096
 9792TIP3    H153571   6.149   7.359   2.888 -3.1988 -0.7895 -0.7136
 9792TIP3    H253572   6.084   7.287   3.004 -3.3199  2.4100  1.3372
 9793TIP3   OH253573   4.676   6.435   1.329 -0.0766  0.1415 -0.4093
 9793TIP3    H153574   4.624   6.404   1.255  0.7830 -0.1156 -0.9290
 9793TIP3    H253575   4.765   6.408   1.308  0.2206  0.2850  0.6102
 9794TIP3   OH253576   5.821   1.857   1.861 -0.2805  0.1666  0.0101
 9794TIP3    H153577   5.742   1.805   1.848  0.3721 -2.0827  3.7492
 9794TIP3    H253578   5.789   1.946   1.874 -2.0767 -0.4616  0.1892
 9795TIP3   OH253579   5.448   6.220   1.794 -0.2026 -0.4039 -0.3361
 9795TIP3    H153580   5.377   6.268   1.752 -1.3079 -1.5831  0.1297
 9795TIP3    H253581   5.480   6.279   1.863 -0.2768  0.3819 -0.9516
 9796TIP3   OH253582   5.373   2.653   2.602  0.8878 -0.0006 -0.1828
 9796TIP3    H153583   5.441   2.720   2.599  0.7244  0.1624 -0.2943
 9796TIP3    H253584   5.410   2.579   2.554  1.8685 -0.7496  1.6590
 9797TIP3   OH253585   1.216   5.908   2.654 -0.0313 -0.4464 -0.2556
 9797TIP3    H153586   1.157   5.891   2.581  0.2852 -0.4587 -0.5116
 9797TIP3    H253587   1.208   6.002   2.670  0.6144 -0.2625 -0.9413
 9798TIP3   OH253588   0.169   5.515   2.581 -0.7757 -0.4066 -0.3258
 9798TIP3    H153589   0.079   5.490   2.604 -0.9428  1.3645  1.1265
 9798TIP3    H253590   0.225   5.456   2.631 -1.1599  1.4386  2.4602
 9799TIP3   OH253591   2.767   3.058   1.644  0.6533  0.1198 -0.5270
 9799TIP3    H153592   2.735   2.968   1.637 -0.0809  0.3990 -0.8884
 9799TIP3    H253593   2.700   3.111   1.601  2.8647  0.4976 -3.8794
 9800TIP3   OH253594   0.822   7.389   1.790 -0.0991  0.0961 -0.3981
 9800TIP3    H153595   0.758   7.377   1.861 -0.6186  0.0604 -0.8701
 9800TIP3    H253596   0.903   7.352   1.825 -0.4883 -0.4269 -0.0254
 9801TIP3   OH253597   4.412   0.195   2.339  0.2794 -0.2309  0.5153
 9801TIP3    H153598   4.487   0.255   2.335 -0.8939  1.2666 -1.0890
 9801TIP3    H253599   4.382   0.190   2.248 -2.2963  0.2486  1.2531
 9802TIP3   OH253600   6.592   4.186   0.812  0.0268  0.3696  0.2739
 9802TIP3    H153601   6.592   4.202   0.906 -0.7877  0.9801  0.1850
 9802TIP3    H253602   6.620   4.096   0.803 -0.1233  0.2274  1.1260
 9803TIP3   OH253603   3.371   0.170   0.833  0.1611 -0.2897 -0.9436
 9803TIP3    H153604   3.421   0.126   0.901  0.8061  1.9636  0.1305
 9803TIP3    H253605   3.413   0.144   0.751  1.2172 -0.7600 -0.2670
 9804TIP3   OH253606   1.252   2.429   0.969  0.3206 -0.2671 -0.0046
 9804TIP3    H153607   1.346   2.424   0.951  0.6420 -0.8071  1.6517
 9804TIP3    H253608   1.246   2.455   1.061 -1.1807  0.8548 -0.3602
 9805TIP3   OH253609   7.105   0.895   2.968 -0.2366  0.6817  0.2296
 9805TIP3    H153610   7.199   0.879   2.960 -0.2082  0.5920  0.6858
 9805TIP3    H253611   7.099   0.978   3.015 -0.3863  1.1805 -0.6536
 9806TIP3   OH253612   6.009   3.537   2.345  0.2118 -0.6509 -0.2076
 9806TIP3    H153613   6.001   3.597   2.420  2.4666 -1.8473  1.0919
 9806TIP3    H253614   5.918   3.521   2.318 -0.6810  0.0608  2.0859
 9807TIP3   OH253615   1.270   4.107   1.599 -0.2973  0.0437  0.1480
 9807TIP3    H153616   1.249   4.171   1.667  0.6301  0.6536 -0.1269
 9807TIP3    H253617   1.197   4.114   1.536 -0.5391  0.3488  0.4603
 9808TIP3   OH253618   6.001   7.554   2.478  0.1782 -0.3201 -0.0297
 9808TIP3    H153619   6.093   7.581   2.488  0.1329 -0.4197  0.7004
 9808TIP3    H253620   6.002   7.494   2.404  1.0729 -2.0167  1.2914
 9809TIP3   OH253621   2.356   4.406   3.182  0.4745 -0.3408  0.0869
 9809TIP3    H153622   2.394   4.394   3.095  0.8768 -1.0162  0.3508
 9809TIP3    H253623   2.327   4.318   3.208 -3.3276  0.3720 -1.0203
 9810TIP3   OH253624   3.684   2.708   0.738  0.5296 -0.2541 -0.4255
 9810TIP3    H153625   3.694   2.774   0.806  0.4967  0.5326 -1.1699
 9810TIP3    H253626   3.647   2.755   0.664  2.1166 -0.7118 -1.5617
 9811TIP3   OH253627   4.549   1.190   2.340 -0.1724  0.1541  0.4998
 9811TIP3    H153628   4.546   1.228   2.427 -0.0992 -1.9064  1.4486
 9811TIP3    H253629   4.581   1.101   2.353  0.3719 -0.0485 -1.6970
 9812TIP3   OH253630   6.517   1.768   2.151 -0.0562 -0.4580 -0.2252
 9812TIP3    H153631   6.553   1.848   2.111 -1.7114  0.1030 -0.6802
 9812TIP3    H253632   6.571   1.697   2.116  0.7994  0.3707 -0.6227
 9813TIP3   OH253633   2.484   7.138   1.808 -0.4469 -0.0410  0.9488
 9813TIP3    H153634   2.430   7.209   1.844 -0.7124  0.0266  0.4427
 9813TIP3    H253635   2.453   7.130   1.717  0.5281  0.1231  0.5942
 9814TIP3   OH253636   1.732   5.248   1.198 -0.2362 -0.0432  0.3027
 9814TIP3    H153637   1.783   5.289   1.128 -0.7710  2.0430  1.0717
 9814TIP3    H253638   1.730   5.155   1.175 -0.7485  0.6106 -2.6918
 9815TIP3   OH253639   6.146   7.404   1.413 -0.3207  0.0630  0.3756
 9815TIP3    H153640   6.235   7.384   1.384  0.1780  1.7395  0.6292
 9815TIP3    H253641   6.147   7.386   1.507 -0.3810 -0.3133  0.3063
 9816TIP3   OH253642   6.049   1.835   3.952  0.0139  0.2776 -0.5355
 9816TIP3    H153643   5.980   1.893   3.984 -0.4364 -2.0983  3.4928
 9816TIP3    H253644   6.003   1.758   3.919  0.6776 -0.2641 -0.2282
 9817TIP3   OH253645   3.811   3.911   1.522 -0.0931 -0.3326  0.3565
 9817TIP3    H153646   3.730   3.905   1.471  0.3625  1.5686 -0.6905
 9817TIP3    H253647   3.782   3.907   1.613 -1.6484  2.1179  0.0608
 9818TIP3   OH253648   2.623   4.547   2.799  0.6823 -0.4995  0.0723
 9818TIP3    H153649   2.694   4.607   2.821 -1.1712  1.3454  1.3634
 9818TIP3    H253650   2.656   4.461   2.824  2.3955  0.3195  0.7717
 9819TIP3   OH253651   7.653   0.030   1.213 -0.2845  0.2472 -0.6129
 9819TIP3    H153652   7.599   0.096   1.257  1.0321 -0.4589  2.2805
 9819TIP3    H253653   7.721   0.081   1.168 -0.1795  0.9573  0.3104
 9820TIP3   OH253654   1.089   5.140   2.406  0.7641 -0.2333 -0.5395
 9820TIP3    H153655   0.996   5.142   2.383  0.5031 -0.1740  0.4678
 9820TIP3    H253656   1.111   5.230   2.427  1.5047  0.0600 -2.4234
 9821TIP3   OH253657   1.219   3.874   2.721 -0.5711  0.1933 -0.4071
 9821TIP3    H153658   1.309   3.840   2.721 -0.4158  0.5732  0.3836
 9821TIP3    H253659   1.166   3.802   2.685  0.0934  0.1175 -1.2767
 9822TIP3   OH253660   4.722   2.950   2.048 -0.2208  0.3983 -0.1307
 9822TIP3    H153661   4.790   2.882   2.048 -0.4974  0.0949 -1.5020
 9822TIP3    H253662   4.724   2.986   2.137  1.6818  0.3409 -0.1050
 9823TIP3   OH253663   4.899   0.807   3.938 -0.3186  0.1927  0.2230
 9823TIP3    H153664   4.940   0.892   3.920  1.1508 -1.1270 -3.7623
 9823TIP3    H253665   4.973   0.745   3.941 -1.5625 -1.4542 -1.0245
 9824TIP3   OH253666   0.297   3.070   1.845 -0.6381  0.1680  0.4558
 9824TIP3    H153667   0.386   3.102   1.827 -1.0309  0.8844 -0.3018
 9824TIP3    H253668   0.308   3.008   1.917  0.6727 -0.8571 -0.5674
 9825TIP3   OH253669   6.900   4.766   1.854 -0.1216  0.0834 -0.2613
 9825TIP3    H153670   6.982   4.738   1.814 -1.4171 -1.5617 -1.9998
 9825TIP3    H253671   6.862   4.827   1.790 -0.2717  0.8126  0.5104
 9826TIP3   OH253672   1.265   6.618   1.272 -0.5698 -0.3122 -0.4876
 9826TIP3    H153673   1.246   6.552   1.206  1.4975 -1.2592 -0.2223
 9826TIP3    H253674   1.215   6.590   1.349 -1.5721 -0.2131 -1.0967
 9827TIP3   OH253675   0.600   6.015   1.602 -0.6338 -0.7724  0.7962
 9827TIP3    H153676   0.663   6.032   1.532 -0.2141  1.4125  1.6177
 9827TIP3    H253677   0.647   5.956   1.662 -0.0682 -0.6516  0.4828
 9828TIP3   OH253678   2.688   2.794   2.666 -0.3447 -0.1596  0.2304
 9828TIP3    H153679   2.712   2.869   2.720  0.4404 -0.4708  0.3243
 9828TIP3    H253680   2.691   2.719   2.726 -2.6559 -0.0824  0.5166
 9829TIP3   OH253681   4.003   6.600   1.422 -0.2604  0.0124 -0.4748
 9829TIP3    H153682   4.055   6.664   1.374  1.8483 -0.6444  0.8302
 9829TIP3    H253683   3.920   6.645   1.439  1.0968  2.3913  0.3213
 9830TIP3   OH253684   1.403   7.178   1.113 -0.4028  0.5972  0.1099
 9830TIP3    H153685   1.442   7.265   1.125  0.8070  0.1128 -0.1210
 9830TIP3    H253686   1.409   7.137   1.199  0.9134  0.0201 -0.2353
 9831TIP3   OH253687   1.564   6.733   0.856 -0.0620 -0.1344  0.1284
 9831TIP3    H153688   1.587   6.779   0.775 -1.9295  0.9682  0.1700
 9831TIP3    H253689   1.551   6.643   0.829 -1.0445  0.2919 -0.9093
 9832TIP3   OH253690   5.386   6.950   3.115  0.6681 -0.1104  0.1964
 9832TIP3    H153691   5.329   6.880   3.085  0.0032  1.3795 -2.2688
 9832TIP3    H253692   5.474   6.916   3.103  0.3569 -0.8417 -0.0757
 9833TIP3   OH253693   6.433   6.825   3.459  0.5330  0.1022  0.4567
 9833TIP3    H153694   6.432   6.841   3.364 -1.1935  1.8125  0.7150
 9833TIP3    H253695   6.470   6.904   3.496  0.7740 -0.3795  1.2711
 9834TIP3   OH253696   3.621   2.653   2.916 -0.4315 -0.0223  0.1041
 9834TIP3    H153697   3.715   2.648   2.903 -0.1668  2.8117  0.3038
 9834TIP3    H253698   3.607   2.625   3.006  0.4072  0.9333  0.5395
 9835TIP3   OH253699   7.607   4.295   0.952  0.3234 -0.8407  0.0861
 9835TIP3    H153700   7.694   4.272   0.917  0.6268 -0.0008  0.2754
 9835TIP3    H253701   7.548   4.288   0.877  0.9309  0.7427 -0.5729
 9836TIP3   OH253702   1.859   1.655   0.932 -0.3305 -0.4989 -0.9385
 9836TIP3    H153703   1.891   1.596   1.001  0.2631  0.3841 -0.4404
 9836TIP3    H253704   1.881   1.610   0.850 -1.0887 -1.5799 -0.5701
 9837TIP3   OH253705   2.257   3.910   2.477 -0.0458  0.1814  0.4351
 9837TIP3    H153706   2.243   3.988   2.423  0.2635 -0.0736 -0.0105
 9837TIP3    H253707   2.196   3.921   2.550 -0.5894  0.4420 -0.0493
 9838TIP3   OH253708   4.376   1.471   2.723  0.0539 -0.3471 -0.5372
 9838TIP3    H153709   4.322   1.479   2.644 -0.1386  0.1303 -0.3613
 9838TIP3    H253710   4.351   1.546   2.777  1.3650  0.2704 -0.7340
 9839TIP3   OH253711   5.088   0.671   3.497  0.0866 -0.3320  0.1983
 9839TIP3    H153712   5.119   0.648   3.584 -0.4320 -0.6896  0.2944
 9839TIP3    H253713   5.059   0.762   3.505 -0.9428 -0.6863  0.6811
 9840TIP3   OH253714   0.060   6.986   3.246 -0.2136  0.0160  0.6747
 9840TIP3    H153715   0.123   6.917   3.268 -0.5965 -0.0871  1.4893
 9840TIP3    H253716  -0.022   6.939   3.230 -0.2084  0.1922  0.1269
 9841TIP3   OH253717   3.604   0.214   2.213 -0.3313  0.0839 -0.0232
 9841TIP3    H153718   3.584   0.203   2.307  0.2201  3.2747  0.5663
 9841TIP3    H253719   3.698   0.235   2.211 -0.2698 -0.2624 -1.3378
 9842TIP3   OH253720   2.045   0.107   0.724 -0.4843 -0.1099  0.0985
 9842TIP3    H153721   2.044   0.126   0.818 -1.2308  0.4590 -0.0229
 9842TIP3    H253722   2.015   0.187   0.682  1.3681  0.1999 -0.7447
 9843TIP3   OH253723   7.050   2.807   1.714 -0.4377 -0.3270 -0.3315
 9843TIP3    H153724   7.043   2.726   1.663 -0.7855 -0.5457  0.0637
 9843TIP3    H253725   6.960   2.827   1.740 -0.5494  0.9271 -1.5590
 9844TIP3   OH253726   0.975   1.127   1.291  0.5698 -0.3894 -0.1404
 9844TIP3    H153727   0.935   1.211   1.269  2.9631  0.4622 -1.6854
 9844TIP3    H253728   0.933   1.063   1.234 -1.0702 -0.2319  0.8415
 9845TIP3   OH253729   2.498   4.309   2.205  0.3057  0.3513  0.3217
 9845TIP3    H153730   2.445   4.375   2.251  0.3975 -0.0043  0.9513
 9845TIP3    H253731   2.464   4.225   2.237  0.0185  0.0854 -0.6661
 9846TIP3   OH253732   6.455   2.720   2.327 -0.0442 -0.1412 -0.2764
 9846TIP3    H153733   6.472   2.779   2.254  0.0396  0.2193  0.0307
 9846TIP3    H253734   6.366   2.687   2.311 -0.5808  1.0207  0.1910
 9847TIP3   OH253735   3.257   2.843   2.960  0.0129  0.2291 -0.6199
 9847TIP3    H153736   3.172   2.843   2.916  0.7713  1.6232 -2.1886
 9847TIP3    H253737   3.238   2.878   3.048 -1.1151 -0.0419 -0.7352
 9848TIP3   OH253738   5.737   6.918   0.810  0.2380 -0.3592 -0.4638
 9848TIP3    H153739   5.795   6.861   0.860 -0.6565 -0.5901  0.3111
 9848TIP3    H253740   5.650   6.882   0.822 -0.0823 -0.0409 -1.6661
 9849TIP3   OH253741   5.114   2.131   3.009 -0.0767  0.1776  0.1833
 9849TIP3    H153742   5.061   2.073   3.063 -0.2941  2.1181  2.2446
 9849TIP3    H253743   5.051   2.180   2.957 -0.2095  1.0663  1.1444
 9850TIP3   OH253744   2.282   4.325   0.683 -0.2094 -1.0548 -0.2399
 9850TIP3    H153745   2.205   4.348   0.734  0.5287  0.4485  0.2538
 9850TIP3    H253746   2.268   4.233   0.658 -1.6070 -1.1501  0.7889
 9851TIP3   OH253747   4.124   0.332   2.222  0.6525  0.2911 -0.4532
 9851TIP3    H153748   4.127   0.292   2.309  0.5814  0.1724 -0.5056
 9851TIP3    H253749   4.213   0.367   2.208  0.1048  2.2305  0.5695
 9852TIP3   OH253750   0.813   2.732   1.333 -0.3731  0.0446 -0.5932
 9852TIP3    H153751   0.883   2.699   1.276  0.4035  1.1713 -0.3509
 9852TIP3    H253752   0.789   2.658   1.388  0.6699 -0.3607 -0.6596
 9853TIP3   OH253753   0.698   2.124   1.984  0.3299 -0.8901  0.0154
 9853TIP3    H153754   0.639   2.049   1.975 -1.9109  0.7487  0.2205
 9853TIP3    H253755   0.709   2.156   1.895  0.6626 -1.0017  0.0158
 9854TIP3   OH253756   1.504   4.896   0.550 -0.0366  0.2891  0.0927
 9854TIP3    H153757   1.496   4.960   0.479  0.4359 -0.3724 -0.5669
 9854TIP3    H253758   1.579   4.925   0.601 -0.6075  0.9819  0.5595
 9855TIP3   OH253759   2.537   6.990   2.320 -0.4310 -0.2513 -0.4451
 9855TIP3    H153760   2.531   7.075   2.363 -2.2996 -1.9057  2.9869
 9855TIP3    H253761   2.493   7.002   2.236 -2.7093  1.6759  0.9042
 9856TIP3   OH253762   4.522   6.228   0.580  0.3387 -0.1095 -0.3112
 9856TIP3    H153763   4.582   6.156   0.597  1.8135  1.2602  0.4878
 9856TIP3    H253764   4.574   6.307   0.593 -1.1080  1.1244 -1.5874
 9857TIP3   OH253765   6.444   0.248   3.486 -0.0187 -0.3603 -0.1035
 9857TIP3    H153766   6.366   0.277   3.533  0.9020  1.1739  0.5477
 9857TIP3    H253767   6.496   0.203   3.551  0.6901  0.6771  0.0679
 9858TIP3   OH253768   7.541   0.387   1.827  0.1131 -0.1524  0.0852
 9858TIP3    H153769   7.548   0.387   1.731  3.4911 -1.5593  0.2154
 9858TIP3    H253770   7.475   0.321   1.846  0.9078 -1.3997 -1.2727
 9859TIP3   OH253771   3.869   2.446   2.591 -0.1567 -0.2275  0.4294
 9859TIP3    H153772   3.920   2.494   2.656  1.2829 -0.1032 -0.7503
 9859TIP3    H253773   3.916   2.364   2.578 -0.6436 -0.4284 -0.1598
 9860TIP3   OH253774   7.022   5.747   2.805 -0.0192 -0.4969  0.0841
 9860TIP3    H153775   7.046   5.839   2.819  1.1958 -0.9206  1.0374
 9860TIP3    H253776   6.949   5.732   2.865 -0.6647  0.0172 -0.5656
 9861TIP3   OH253777   3.410   4.948   0.865 -0.1237 -0.4706  0.2059
 9861TIP3    H153778   3.353   5.024   0.876 -0.0488 -0.4836  0.7343
 9861TIP3    H253779   3.362   4.889   0.808 -0.2797 -0.1211 -0.0263
 9862TIP3   OH253780   2.960   0.919   2.094 -0.0078 -0.5999 -0.2702
 9862TIP3    H153781   2.950   0.888   2.004  1.0955 -2.6603  0.2518
 9862TIP3    H253782   2.906   0.998   2.098  0.9897  0.3505 -3.1013
 9863TIP3   OH253783   0.365   5.828   1.798 -0.4244 -0.2476  0.4930
 9863TIP3    H153784   0.398   5.741   1.821  0.3459 -0.0367  0.2257
 9863TIP3    H253785   0.427   5.860   1.733  0.0763  1.0472  1.5721
 9864TIP3   OH253786   4.384   0.661   1.672 -0.1023  0.0402 -0.8925
 9864TIP3    H153787   4.438   0.727   1.715  0.2696 -0.1489 -1.0692
 9864TIP3    H253788   4.443   0.616   1.612 -0.4155 -0.2763 -0.9689
 9865TIP3   OH253789   5.305   3.109   0.848 -0.6092 -0.0776 -0.7130
 9865TIP3    H153790   5.282   3.149   0.932 -2.4006 -2.3194 -0.0319
 9865TIP3    H253791   5.227   3.120   0.794 -0.1018 -0.1608 -1.4776
 9866TIP3   OH253792   0.852   2.687   1.930 -0.4145 -0.3960 -0.0144
 9866TIP3    H153793   0.914   2.620   1.958 -0.4831  0.1491  1.5362
 9866TIP3    H253794   0.874   2.764   1.983 -1.3986  0.2994 -0.5779
 9867TIP3   OH253795   2.007   3.004   1.331 -0.2406 -0.3268  0.7384
 9867TIP3    H153796   1.954   3.076   1.298  0.4097 -0.1786 -0.0162
 9867TIP3    H253797   2.011   3.019   1.426 -0.8647  0.1056  0.7019
 9868TIP3   OH253798   2.538   7.037   0.682 -0.5103  0.2413 -0.1212
 9868TIP3    H153799   2.510   7.108   0.741 -1.0604 -0.3223  0.3109
 9868TIP3    H253800   2.624   7.065   0.651 -0.4859  0.8515  0.4583
 9869TIP3   OH253801   0.745   2.241   2.446 -0.2166  0.0253  0.1733
 9869TIP3    H153802   0.745   2.204   2.534 -0.1333  0.5525  0.4042
 9869TIP3    H253803   0.777   2.331   2.459  0.4640 -0.1179 -0.4904
 9870TIP3   OH253804   5.921   6.752   1.781 -0.0029 -0.4164  0.4150
 9870TIP3    H153805   5.897   6.665   1.750 -2.8462  0.8463 -1.3478
 9870TIP3    H253806   5.869   6.765   1.860 -0.0865 -0.0711  0.3047
 9871TIP3   OH253807   3.606   1.203   0.801  0.6692 -0.1280 -0.5851
 9871TIP3    H153808   3.578   1.111   0.807  0.4932 -0.0759 -0.6231
 9871TIP3    H253809   3.641   1.223   0.887  0.0828 -0.0219 -0.3734
 9872TIP3   OH253810   2.034   3.786   3.023 -0.2739  0.2700  0.2445
 9872TIP3    H153811   1.981   3.856   2.984 -0.6070  0.3513  0.8319
 9872TIP3    H253812   1.971   3.728   3.065  0.1597  1.4185  2.6847
 9873TIP3   OH253813   2.427   3.213   1.778  0.6593 -0.1430 -0.1114
 9873TIP3    H153814   2.427   3.257   1.693  0.0258  0.1332  0.0258
 9873TIP3    H253815   2.369   3.138   1.767  0.4904 -0.0461  0.1033
 9874TIP3   OH253816   6.100   0.116   3.275  0.3733 -0.6098  0.1134
 9874TIP3    H153817   6.164   0.046   3.285  2.1024  0.7265 -0.9091
 9874TIP3    H253818   6.119   0.153   3.188 -0.1391  1.4006  0.8023
 9875TIP3   OH253819   4.291   1.399   3.970  0.6485  0.0712 -0.4623
 9875TIP3    H153820   4.211   1.447   3.990 -0.5496 -1.5518 -1.1632
 9875TIP3    H253821   4.355   1.467   3.947 -0.4523  1.4077  0.2940
 9876TIP3   OH253822   6.898   0.401   3.108  0.2865  0.6434 -0.0814
 9876TIP3    H153823   6.935   0.323   3.150  1.5849  1.1690 -0.2115
 9876TIP3    H253824   6.836   0.436   3.173  1.4904  0.8536  1.0037
 9877TIP3   OH253825   5.783   6.990   1.622 -0.1141  0.0975  0.5368
 9877TIP3    H153826   5.818   6.919   1.676  0.2197  0.6440  1.0579
 9877TIP3    H253827   5.826   7.069   1.655 -0.1920  0.5000 -0.2824
 9878TIP3   OH253828   0.204   1.547   1.103  0.3678  0.2106 -0.1160
 9878TIP3    H153829   0.181   1.551   1.010  1.3622  0.9676 -0.3492
 9878TIP3    H253830   0.246   1.631   1.120  0.2736  0.0393  1.0086
 9879TIP3   OH253831   0.451   2.509   1.763 -0.0688 -0.1972 -0.1036
 9879TIP3    H153832   0.519   2.489   1.699  0.9113  1.8710  0.2213
 9879TIP3    H253833   0.475   2.458   1.841  0.0638 -0.8825 -0.5830
 9880TIP3   OH253834   6.458   6.786   1.663 -0.1354  0.0592  0.8042
 9880TIP3    H153835   6.458   6.757   1.572  0.5335  3.1476 -0.2961
 9880TIP3    H253836   6.547   6.817   1.678 -0.7711  1.5368  1.7928
 9881TIP3   OH253837   4.745   0.924   2.958 -0.6686 -0.2326 -0.1106
 9881TIP3    H153838   4.714   0.933   3.049 -2.1061 -2.3500 -0.2976
 9881TIP3    H253839   4.718   0.835   2.933 -0.4034  0.3261 -2.6529
 9882TIP3   OH253840   6.922   7.053   2.028 -0.0675  0.3186  0.1986
 9882TIP3    H153841   6.956   6.967   2.003 -1.9537 -0.7057  1.0006
 9882TIP3    H253842   6.914   7.048   2.124 -2.3238  0.5221  0.0674
 9883TIP3   OH253843   3.165   1.441   2.972  0.0918 -0.0663  0.4602
 9883TIP3    H153844   3.256   1.426   2.947 -0.2385  0.3521 -1.1008
 9883TIP3    H253845   3.170   1.491   3.053  1.2503 -0.1861  0.4753
 9884TIP3   OH253846   3.867   7.550   2.568  0.5550  0.2113 -0.5238
 9884TIP3    H153847   3.906   7.634   2.543  1.0406 -0.0569 -0.6916
 9884TIP3    H253848   3.889   7.540   2.661  1.6233 -0.3112 -0.8042
 9885TIP3   OH253849   0.632   0.950   1.929 -0.2229  0.2515  0.2267
 9885TIP3    H153850   0.688   0.872   1.930 -0.8473 -0.3722 -2.8862
 9885TIP3    H253851   0.687   1.017   1.888 -1.2907 -0.1041 -1.9619
 9886TIP3   OH253852   0.819   1.158   2.387  0.5352 -0.4835  0.5042
 9886TIP3    H153853   0.853   1.211   2.315  0.8376 -0.2744  0.7978
 9886TIP3    H253854   0.725   1.150   2.368  0.7517 -1.1109 -0.3324
 9887TIP3   OH253855   5.376   2.051   2.060 -0.5128 -0.2107  0.0490
 9887TIP3    H153856   5.288   2.087   2.051  0.0772  1.1567 -0.5802
 9887TIP3    H253857   5.403   2.030   1.970 -0.6523 -1.7877  0.3612
 9888TIP3   OH253858   1.799   0.033   2.024  0.2433 -0.0563  0.4967
 9888TIP3    H153859   1.758  -0.010   2.099 -1.2261  0.3987 -0.0033
 9888TIP3    H253860   1.754   0.117   2.017 -0.8915 -0.7746 -1.8837
 9889TIP3   OH253861   1.715   5.168   2.749  0.0475 -0.5612 -0.4538
 9889TIP3    H153862   1.743   5.132   2.665 -2.1831 -0.3048 -1.3761
 9889TIP3    H253863   1.639   5.116   2.774  1.3606 -1.4391  2.0834
 9890TIP3   OH253864   6.972   6.188   2.413  0.2355 -0.1321 -0.0289
 9890TIP3    H153865   7.062   6.162   2.393  0.2875  0.6684 -0.9135
 9890TIP3    H253866   6.918   6.113   2.389  0.5687 -0.2206 -0.5016
 9891TIP3   OH253867   1.563   4.748   1.407  0.1421 -0.9561  0.6341
 9891TIP3    H153868   1.508   4.765   1.484  0.5335  1.1069  0.5113
 9891TIP3    H253869   1.652   4.763   1.438  0.4668 -1.9111  0.2084
 9892TIP3   OH253870   5.816   6.315   2.419 -0.2429 -0.2366 -0.1198
 9892TIP3    H153871   5.845   6.241   2.366  0.3364  0.7648 -1.2394
 9892TIP3    H253872   5.893   6.370   2.428 -0.4960 -0.0731  1.2584
 9893TIP3   OH253873   4.972   2.995   1.414 -0.5670 -0.3836  1.1798
 9893TIP3    H153874   5.033   3.011   1.342 -2.5899  1.6492 -0.1870
 9893TIP3    H253875   4.977   2.901   1.429 -1.8817 -1.3983 -3.3628
 9894TIP3   OH253876   6.786   4.215   2.826  0.7773  0.6214  0.0396
 9894TIP3    H153877   6.770   4.305   2.800  2.7423  0.9459 -0.1748
 9894TIP3    H253878   6.803   4.220   2.920  1.4081  0.5797 -0.0633
 9895TIP3   OH253879   7.134   5.373   1.857 -0.1304 -0.2891 -0.0281
 9895TIP3    H153880   7.119   5.278   1.861 -0.5110 -0.2803 -1.0859
 9895TIP3    H253881   7.104   5.398   1.770  1.6647  0.5251 -0.4506
 9896TIP3   OH253882   4.739   1.937   1.594  0.1657 -0.5285  0.4389
 9896TIP3    H153883   4.799   1.928   1.520 -0.5983  1.6351 -0.5213
 9896TIP3    H253884   4.668   1.875   1.575  0.6076 -0.9278  0.0502
 9897TIP3   OH253885   6.037   0.205   0.311 -0.2244  0.2792  0.1612
 9897TIP3    H153886   6.024   0.170   0.223  0.0161 -0.9857  0.6045
 9897TIP3    H253887   6.020   0.130   0.369 -0.0849  1.0108  1.1734
 9898TIP3   OH253888   4.513   3.907   2.606 -0.4472 -0.1505  0.0124
 9898TIP3    H153889   4.506   3.957   2.688  2.5838 -0.2683  0.4449
 9898TIP3    H253890   4.563   3.829   2.630 -0.4584 -0.7429 -1.7625
 9899TIP3   OH253891   1.569   0.321   2.608 -0.9273  0.1936  0.1499
 9899TIP3    H153892   1.535   0.410   2.610 -1.8227 -0.1514  0.7787
 9899TIP3    H253893   1.662   0.331   2.587 -1.2522  1.2002 -0.9070
 9900TIP3   OH253894   0.401   1.961   0.672 -0.4079  0.7092  0.3346
 9900TIP3    H153895   0.343   1.887   0.690 -1.2627  0.9247 -1.3550
 9900TIP3    H253896   0.395   2.016   0.750 -1.8016  0.2749  0.5566
 9901TIP3   OH253897   7.340   6.229   1.280 -0.1210 -0.6328  0.4582
 9901TIP3    H153898   7.288   6.228   1.360 -0.5091  0.4732  0.2427
 9901TIP3    H253899   7.428   6.203   1.307 -0.1005  0.3218  1.3625
 9902TIP3   OH253900   2.838   5.490   1.997  0.6562 -0.2649  0.4176
 9902TIP3    H153901   2.748   5.483   2.030 -0.1160 -1.0609 -1.6504
 9902TIP3    H253902   2.853   5.406   1.953  1.3150  0.9277 -1.7575
 9903TIP3   OH253903   1.665   3.060   1.218 -0.3823  0.0025 -0.6894
 9903TIP3    H153904   1.590   3.119   1.217 -0.0846  0.3847 -0.5459
 9903TIP3    H253905   1.740   3.115   1.193 -0.1905 -0.4293 -1.0765
 9904TIP3   OH253906   6.548   7.661   3.675 -0.4015 -0.1877 -0.0828
 9904TIP3    H153907   6.624   7.716   3.654 -1.8499  1.3149 -1.7534
 9904TIP3    H253908   6.513   7.636   3.589 -2.0825 -0.4145  0.6374
 9905TIP3   OH253909   6.434   7.356   2.551 -0.1622  0.2589 -0.5247
 9905TIP3    H153910   6.503   7.290   2.547 -1.0007 -0.6396 -4.3089
 9905TIP3    H253911   6.480   7.439   2.540  0.4664 -0.2197 -1.6380
 9906TIP3   OH253912   5.391   5.307   2.247  0.2486 -0.1054 -0.4267
 9906TIP3    H153913   5.439   5.337   2.171 -1.3384  0.9768 -1.0599
 9906TIP3    H253914   5.453   5.252   2.296  2.5527  2.2982 -0.4643
 9907TIP3   OH253915   2.384   0.850   2.487 -0.1407 -0.0896 -0.2987
 9907TIP3    H153916   2.289   0.843   2.484 -0.2757  1.2729 -3.1821
 9907TIP3    H253917   2.408   0.885   2.400  2.6911  2.7691  1.4008
 9908TIP3   OH253918   5.221   3.290   2.007 -0.1476 -0.0017  0.3809
 9908TIP3    H153919   5.268   3.373   2.015 -1.0726  0.7530 -1.4915
 9908TIP3    H253920   5.290   3.225   1.988  0.4189  0.5965  0.3637
 9909TIP3   OH253921   2.066   7.499   0.770  0.2407  0.1480  0.1011
 9909TIP3    H153922   2.092   7.516   0.860  0.3366  1.5454 -0.1757
 9909TIP3    H253923   2.054   7.585   0.731 -2.3945 -0.3627 -0.4824
 9910TIP3   OH253924   1.369   1.438   0.825  0.2769  0.9732  0.3900
 9910TIP3    H153925   1.294   1.413   0.771  2.0667 -1.9362 -0.9582
 9910TIP3    H253926   1.338   1.428   0.915 -0.5327 -1.9241 -0.1173
 9911TIP3   OH253927   1.994   1.345   1.325  0.4853  0.0244  0.0089
 9911TIP3    H153928   1.958   1.263   1.292 -1.5796  1.1250 -0.6904
 9911TIP3    H253929   1.945   1.363   1.405 -0.0686  1.2055 -0.5661
 9912TIP3   OH253930   3.024   6.438   0.646  0.1742 -0.1541  0.7388
 9912TIP3    H153931   2.946   6.483   0.614  1.9632  2.7346  0.0485
 9912TIP3    H253932   3.089   6.508   0.657  3.1651 -2.5684 -0.1957
 9913TIP3   OH253933   1.425   5.207   0.839 -0.5342 -0.1794  0.2535
 9913TIP3    H153934   1.355   5.226   0.901 -2.3266  0.8199 -1.9392
 9913TIP3    H253935   1.504   5.201   0.893 -2.0650  0.0006  2.6644
 9914TIP3   OH253936   2.699   3.364   2.739 -0.0868  0.2230  0.2474
 9914TIP3    H153937   2.732   3.449   2.766  0.5708 -0.1258  0.5453
 9914TIP3    H253938   2.605   3.378   2.725  0.1733  1.2258 -0.6319
 9915TIP3   OH253939   5.235   7.619   1.801  0.0978 -0.4836  0.4131
 9915TIP3    H153940   5.258   7.684   1.734  1.0107 -1.9385 -0.7533
 9915TIP3    H253941   5.145   7.594   1.779  0.0125 -0.1627  0.3957
 9916TIP3   OH253942   6.542   5.493   2.052 -0.1674  0.3858  0.2079
 9916TIP3    H153943   6.604   5.559   2.020  0.3622 -0.8639 -1.5163
 9916TIP3    H253944   6.526   5.437   1.976  1.1726 -2.8250  2.0624
 9917TIP3   OH253945   7.073   0.856   1.216 -1.0532 -0.1120  0.3938
 9917TIP3    H153946   7.071   0.804   1.136  0.1612 -1.0363  0.9226
 9917TIP3    H253947   6.990   0.838   1.259 -0.0952 -2.8770  1.2835
 9918TIP3   OH253948   0.644   6.096   2.855 -0.4929 -0.1806 -0.8105
 9918TIP3    H153949   0.628   6.136   2.941  1.3652  1.0223 -0.9885
 9918TIP3    H253950   0.573   6.129   2.800 -0.6034  0.5990 -0.2188
 9919TIP3   OH253951   4.868   0.487   2.503  0.8344 -0.2690  0.4301
 9919TIP3    H153952   4.898   0.512   2.590 -1.5506 -1.2675  1.5949
 9919TIP3    H253953   4.790   0.539   2.488  0.9447 -0.4511 -0.9444
 9920TIP3   OH253954   2.119   6.001   1.351 -0.2582  0.2083  0.3423
 9920TIP3    H153955   2.060   5.964   1.417 -0.4980  1.0238  0.5927
 9920TIP3    H253956   2.158   5.925   1.309  0.2033 -0.3308  1.6944
 9921TIP3   OH253957   2.945   5.790   1.331 -0.1523  0.0117 -0.0324
 9921TIP3    H153958   3.038   5.807   1.349 -0.7204  2.3022  1.0935
 9921TIP3    H253959   2.918   5.730   1.400  0.0866  0.7744  0.7443
 9922TIP3   OH253960   3.133   5.436   2.502 -0.2234  0.3902 -0.1663
 9922TIP3    H153961   3.199   5.372   2.528 -0.9978 -0.7630 -0.9466
 9922TIP3    H253962   3.178   5.493   2.439 -0.0181 -0.5074 -0.8422
 9923TIP3   OH253963   0.413   5.890   1.405 -0.3893  0.0288 -0.6583
 9923TIP3    H153964   0.439   5.798   1.404 -0.1751  0.0425 -3.4261
 9923TIP3    H253965   0.480   5.933   1.457  0.1848 -1.1986 -0.3460
 9924TIP3   OH253966   4.550   1.924   2.235 -0.6324  0.4685  0.1982
 9924TIP3    H153967   4.476   1.866   2.217 -0.9891  1.1467 -0.5525
 9924TIP3    H253968   4.624   1.885   2.188 -0.6977  0.2433  0.2795
 9925TIP3   OH253969   7.169   6.657   2.626 -0.9978 -0.3167 -0.2410
 9925TIP3    H153970   7.258   6.671   2.659 -1.2394  0.0707  0.2587
 9925TIP3    H253971   7.132   6.591   2.684 -1.7323  1.0199  0.8592
 9926TIP3   OH253972   0.170   6.917   1.047  0.4918 -0.4174  0.2754
 9926TIP3    H153973   0.117   6.961   0.982 -0.4228 -1.0106  0.5984
 9926TIP3    H253974   0.131   6.830   1.056  0.5728 -0.3420  1.6241
 9927TIP3   OH253975   0.613   0.262   0.917 -0.0239  0.4417  0.3683
 9927TIP3    H153976   0.668   0.297   0.987  0.5645 -0.3137  0.3012
 9927TIP3    H253977   0.662   0.186   0.885 -1.4346 -0.6793  0.7717
 9928TIP3   OH253978   4.424   0.827   2.586 -0.0888 -0.3515 -0.0195
 9928TIP3    H153979   4.351   0.869   2.631 -0.7444  0.9993 -2.1868
 9928TIP3    H253980   4.489   0.896   2.574  0.3724 -0.8482 -0.4873
 9929TIP3   OH253981   7.171   6.238   0.852 -0.1093  0.1426 -0.8174
 9929TIP3    H153982   7.129   6.306   0.800  0.4333 -0.2018 -1.7377
 9929TIP3    H253983   7.177   6.163   0.792 -1.0136 -0.8448  0.2710
 9930TIP3   OH253984   1.495   3.441   1.007 -0.1817  0.4180 -0.1185
 9930TIP3    H153985   1.555   3.411   0.940  0.1186  2.1342 -0.6642
 9930TIP3    H253986   1.551   3.469   1.080 -0.4791 -0.8592  0.6352
 9931TIP3   OH253987   5.384   1.544   1.381 -0.3337 -0.1278  0.3461
 9931TIP3    H153988   5.326   1.537   1.304 -0.1163 -0.8947  0.2383
 9931TIP3    H253989   5.415   1.634   1.380 -0.9660  0.0949 -0.0060
 9932TIP3   OH253990   0.601   0.079   2.016 -0.6812  0.2096  0.1491
 9932TIP3    H153991   0.695   0.070   2.002 -0.8500  0.6576 -1.5274
 9932TIP3    H253992   0.564  -0.002   1.979 -0.8122 -1.6608  3.8406
 9933TIP3   OH253993   5.783   0.113   1.867 -0.3026  0.3534  0.2072
 9933TIP3    H153994   5.753   0.203   1.884  1.5160  0.9063  0.7198
 9933TIP3    H253995   5.762   0.098   1.774  0.1128  1.6194 -0.1093
 9934TIP3   OH253996   4.056   3.518   2.588  0.6381 -0.1116 -0.2707
 9934TIP3    H153997   4.084   3.558   2.671  1.9283 -1.4850 -0.0077
 9934TIP3    H253998   4.137   3.504   2.539  0.1851 -1.8377 -0.5910
 9935TIP3   OH253999   5.800   3.427   0.775 -0.2427 -0.6312  0.1029
 9935TIP3    H154000   5.745   3.503   0.793  1.5888  1.3037 -1.7298
 9935TIP3    H254001   5.755   3.382   0.704 -0.0773  0.3195 -0.6407
 9936TIP3   OH254002   4.853   6.057   1.353  0.2102 -0.0240 -0.5257
 9936TIP3    H154003   4.939   6.086   1.383 -0.1434  0.9573 -0.4550
 9936TIP3    H254004   4.863   5.962   1.344  1.2985  0.0691 -0.5185
 9937TIP3   OH254005   2.357   0.397   2.931 -0.3653  0.0299  0.0635
 9937TIP3    H154006   2.396   0.480   2.904 -0.2276 -0.1515 -0.3083
 9937TIP3    H254007   2.395   0.380   3.018  1.3281 -0.7201 -0.7720
 9938TIP3   OH254008   5.327   0.681   3.338 -0.4141  0.1418  0.0590
 9938TIP3    H154009   5.259   0.684   3.405 -1.0440  0.2005 -0.5653
 9938TIP3    H254010   5.368   0.595   3.350  1.0383  1.0503  1.9877
 9939TIP3   OH254011   0.860   2.227   2.683 -0.4278  0.2080  0.1989
 9939TIP3    H154012   0.846   2.261   2.771  0.4236 -1.9162  1.2256
 9939TIP3    H254013   0.953   2.206   2.680 -0.5013 -0.0165 -1.1347
 9940TIP3   OH254014   3.761   3.904   1.115 -0.0739  0.0480  0.5387
 9940TIP3    H154015   3.786   3.978   1.171  1.4624  0.6178 -0.8225
 9940TIP3    H254016   3.680   3.932   1.073  0.1131  0.6586  0.5794
 9941TIP3   OH254017   1.987   2.784   2.612 -0.0654 -0.4298 -0.8125
 9941TIP3    H154018   1.920   2.729   2.571  0.5727 -2.0244  0.1679
 9941TIP3    H254019   2.050   2.721   2.648  0.6186  0.9533  0.4979
 9942TIP3   OH254020   6.303   3.376   1.028  0.1455 -0.3845 -0.4823
 9942TIP3    H154021   6.237   3.440   1.054 -0.3064 -1.4887  1.2763
 9942TIP3    H254022   6.383   3.427   1.017 -0.8785  0.9395 -2.3959
 9943TIP3   OH254023   6.159   5.355   1.586  0.9016  0.7303  0.2917
 9943TIP3    H154024   6.069   5.331   1.566 -0.3167  3.0130  2.5737
 9943TIP3    H254025   6.188   5.405   1.510 -0.9181  2.6946  0.8208
 9944TIP3   OH254026   4.986   7.650   1.210  0.0059  0.5925 -0.0579
 9944TIP3    H154027   5.062   7.701   1.182  0.4931  0.1603  0.4443
 9944TIP3    H254028   4.921   7.664   1.141  0.9729 -0.0213 -1.1349
 9945TIP3   OH254029   5.553   3.163   2.322  0.5950 -0.0712  0.5803
 9945TIP3    H154030   5.573   3.085   2.270  1.5467  0.6875 -0.2529
 9945TIP3    H254031   5.483   3.207   2.274  0.5426 -0.0539  0.6714
 9946TIP3   OH254032   3.061   4.192   1.629 -0.5166  0.8428 -0.3483
 9946TIP3    H154033   2.975   4.156   1.606 -0.8487  0.7204  1.0096
 9946TIP3    H254034   3.064   4.188   1.725  1.9107 -1.2290 -0.4153
 9947TIP3   OH254035   2.221   4.584   2.099 -0.0111  0.9773  0.1763
 9947TIP3    H154036   2.264   4.530   2.165 -0.8766 -0.3421 -0.2952
 9947TIP3    H254037   2.135   4.604   2.138 -0.7092 -0.2018 -0.7092
 9948TIP3   OH254038   4.613   5.695   0.909 -0.2484 -0.1052  0.0769
 9948TIP3    H154039   4.595   5.754   0.982  0.2015  0.8505 -0.5643
 9948TIP3    H254040   4.541   5.707   0.849 -1.0227 -1.4625  0.6726
 9949TIP3   OH254041   6.209   7.357   2.706  0.1706 -0.3954  0.5146
 9949TIP3    H154042   6.289   7.357   2.654 -0.3689 -4.2916 -0.6043
 9949TIP3    H254043   6.148   7.411   2.657  1.9469  2.7799  1.4554
 9950TIP3   OH254044   0.782   3.544   1.684  0.2913 -0.4210 -0.2578
 9950TIP3    H154045   0.696   3.514   1.654 -0.0096  0.9511 -0.8502
 9950TIP3    H254046   0.844   3.482   1.646 -0.2181  0.3730 -2.5370
 9951TIP3   OH254047   6.187   3.054   2.836  0.6881 -0.0786 -0.2345
 9951TIP3    H154048   6.094   3.068   2.854  0.4818 -1.8011  0.1628
 9951TIP3    H254049   6.214   2.987   2.898  1.7795 -0.8605 -1.5045
 9952TIP3   OH254050   3.505   4.094   2.971  0.4181 -0.4911  0.2354
 9952TIP3    H154051   3.600   4.089   2.973  0.6867  2.2886 -1.4327
 9952TIP3    H254052   3.485   4.185   2.992 -2.1462 -1.7007  4.0718
 9953TIP3   OH254053   3.683   6.622   2.486 -0.4345 -0.0026 -0.5686
 9953TIP3    H154054   3.766   6.644   2.442 -0.6007 -0.0780 -0.9194
 9953TIP3    H254055   3.616   6.666   2.434 -0.5842  0.3634 -0.0670
 9954TIP3   OH254056   2.173   5.837   2.786  0.3551  0.2523  0.0514
 9954TIP3    H154057   2.208   5.833   2.875  0.8944  0.8013 -0.1239
 9954TIP3    H254058   2.080   5.857   2.797 -0.1280 -2.0289  0.5547
 9955TIP3   OH254059   2.360   1.402   1.759 -0.1113 -0.8173  0.0753
 9955TIP3    H154060   2.304   1.390   1.682  0.0257  0.6465 -0.2814
 9955TIP3    H254061   2.448   1.414   1.723  0.3186 -2.2351  0.5901
 9956TIP3   OH254062   7.083   3.007   0.813  0.4210  0.2777  0.1540
 9956TIP3    H154063   7.018   2.963   0.758  0.1278  0.7204  0.1374
 9956TIP3    H254064   7.041   3.089   0.838  0.7237  0.2730  0.6854
 9957TIP3   OH254065   3.999   5.129   1.692  0.3401  0.0409 -0.5230
 9957TIP3    H154066   4.035   5.211   1.726  0.2175  0.8760 -2.2879
 9957TIP3    H254067   3.926   5.108   1.750  0.0886  1.4416 -0.3074
 9958TIP3   OH254068   7.070   5.417   1.281 -0.2597  0.3947 -0.8881
 9958TIP3    H154069   6.978   5.392   1.273 -0.1632 -0.4733  0.4516
 9958TIP3    H254070   7.072   5.509   1.255 -1.5792  0.5367 -0.5546
 9959TIP3   OH254071   6.672   4.260   1.686  0.9191  0.1504  0.4926
 9959TIP3    H154072   6.720   4.222   1.612  0.8120  0.5702  0.2056
 9959TIP3    H254073   6.711   4.346   1.698 -0.6759  1.0721 -0.6407
 9960TIP3   OH254074   4.584   5.238   2.382  0.1152 -0.2093 -0.4385
 9960TIP3    H154075   4.650   5.305   2.399 -1.7642  1.4466  0.7410
 9960TIP3    H254076   4.589   5.179   2.457 -0.6500  0.7255  0.3728
 9961TIP3   OH254077   2.069   6.227   0.519  0.1119 -0.3686  0.2911
 9961TIP3    H154078   2.124   6.305   0.524  1.1360 -0.8914 -1.8000
 9961TIP3    H254079   1.980   6.261   0.529  0.6302  0.8735  0.9099
 9962TIP3   OH254080   2.794   2.772   0.808  0.1876 -0.0606 -0.1931
 9962TIP3    H154081   2.863   2.837   0.792  0.0769  0.1280  0.0885
 9962TIP3    H254082   2.835   2.707   0.865  0.1851 -0.0386 -0.1661
 9963TIP3   OH254083   1.515   6.425   1.464  0.8980 -0.9090 -0.2287
 9963TIP3    H154084   1.470   6.509   1.462 -0.1968 -1.4939 -1.1734
 9963TIP3    H254085   1.608   6.447   1.459  0.5883  0.2221 -1.3098
 9964TIP3   OH254086   6.885   7.490   2.691 -0.2627 -0.4570  0.2633
 9964TIP3    H154087   6.865   7.498   2.598 -1.4181 -1.2327  0.4171
 9964TIP3    H254088   6.953   7.555   2.707  0.6372 -0.9498 -1.3134
 9965TIP3   OH254089   4.023   6.895   0.997  0.4465  0.1997 -0.0833
 9965TIP3    H154090   4.046   6.807   0.967 -0.7451 -0.0792 -0.1989
 9965TIP3    H254091   4.044   6.894   1.091 -0.9280 -0.6932  0.2339
 9966TIP3   OH254092   4.927   1.594   0.970 -0.4952  0.0483  0.1677
 9966TIP3    H154093   4.959   1.671   1.017 -0.5308 -0.8633  1.7322
 9966TIP3    H254094   4.931   1.523   1.034  0.6105 -1.5293 -1.5586
 9967TIP3   OH254095   7.130   7.642   3.296  0.2244 -0.4898 -0.5268
 9967TIP3    H154096   7.128   7.570   3.358 -0.1244 -0.1941 -0.1885
 9967TIP3    H254097   7.125   7.600   3.210  1.5561 -0.9482 -0.3967
 9968TIP3   OH254098   2.127   0.511   2.388 -0.7000  0.1736 -0.0581
 9968TIP3    H154099   2.090   0.591   2.426 -0.2679  0.4329 -0.1755
 9968TIP3    H254100   2.088   0.505   2.301  0.1074  0.8667 -0.4840
 9969TIP3   OH254101   2.586   0.315   1.540 -0.4798  0.1955 -0.2318
 9969TIP3    H154102   2.582   0.409   1.523  0.2832  0.8328  2.6285
 9969TIP3    H254103   2.521   0.300   1.608 -0.3139 -1.2985 -0.3712
 9970TIP3   OH254104   1.854   0.198   2.630 -0.8035 -0.0127  0.8192
 9970TIP3    H154105   1.851   0.120   2.685 -2.5992 -1.0746 -0.6705
 9970TIP3    H254106   1.947   0.219   2.624 -0.0570 -3.0543 -0.0415
 9971TIP3   OH254107   7.443   4.427   2.435  0.3833 -0.1235  0.0887
 9971TIP3    H154108   7.455   4.348   2.486 -0.7297 -0.5983 -0.3437
 9971TIP3    H254109   7.509   4.488   2.467 -0.0927 -0.5095  1.8668
 9972TIP3   OH254110   2.925   0.779   2.328 -0.1265 -0.2163 -0.3870
 9972TIP3    H154111   2.940   0.827   2.247 -2.0189  2.3617  0.6606
 9972TIP3    H254112   2.854   0.718   2.307  0.1520 -0.3570 -0.9365
 9973TIP3   OH254113   0.429   1.527   2.356  0.4391 -0.1730  0.1607
 9973TIP3    H154114   0.423   1.452   2.296 -2.7892 -0.6910  0.9524
 9973TIP3    H254115   0.401   1.602   2.304 -1.2478 -0.4323  0.6375
 9974TIP3   OH254116   5.608   2.224   3.243 -0.3460 -0.0660  0.8457
 9974TIP3    H154117   5.698   2.209   3.274  0.2609  0.9400 -0.3352
 9974TIP3    H254118   5.596   2.318   3.251 -0.5888  0.0698 -0.7864
 9975TIP3   OH254119   3.554   2.071   3.416 -1.1483 -0.1359  0.7044
 9975TIP3    H154120   3.475   2.034   3.378 -1.0040  0.6298 -0.3683
 9975TIP3    H254121   3.567   2.022   3.497 -1.8687 -1.2988  0.1323
 9976TIP3   OH254122   4.594   7.196   2.628  0.0777 -0.0188 -0.6097
 9976TIP3    H154123   4.528   7.224   2.691  1.1979  0.2166  0.5042
 9976TIP3    H254124   4.556   7.216   2.543 -1.7224 -0.8623 -0.0612
 9977TIP3   OH254125   2.682   1.133   2.323 -0.3877  0.2627 -0.7015
 9977TIP3    H154126   2.633   1.098   2.249 -1.7599  1.3386 -0.3396
 9977TIP3    H254127   2.744   1.195   2.284 -0.1891 -0.1489 -1.0479
 9978TIP3   OH254128   2.992   1.373   1.239 -0.0426  0.0469  0.0765
 9978TIP3    H154129   2.985   1.466   1.258 -0.5235 -0.1285  0.8014
 9978TIP3    H254130   2.934   1.331   1.302 -0.2295 -0.7078 -0.5772
 9979TIP3   OH254131   3.650   0.636   2.332 -0.2651  0.4297  0.3594
 9979TIP3    H154132   3.599   0.625   2.252 -0.0352  0.6400  0.1867
 9979TIP3    H254133   3.680   0.726   2.330 -0.0194  0.3531  0.5450
 9980TIP3   OH254134   5.364   2.199   1.204  0.2974 -0.2481  0.8542
 9980TIP3    H154135   5.370   2.126   1.143  1.2930  0.2540  0.3316
 9980TIP3    H254136   5.428   2.179   1.272  0.2399 -0.0892  0.9561
 9981TIP3   OH254137   5.078   1.006   2.492 -0.2025  0.0794 -0.4193
 9981TIP3    H154138   5.100   1.069   2.561 -0.2279 -0.5709  0.1932
 9981TIP3    H254139   5.154   1.006   2.434  0.5173 -0.5549  0.4971
 9982TIP3   OH254140   2.477   1.952   1.027  0.4408 -0.5817 -0.2012
 9982TIP3    H154141   2.521   2.011   0.966  0.5872  0.7745  1.1517
 9982TIP3    H254142   2.486   1.865   0.987  0.5718  0.2307 -2.0547
 9983TIP3   OH254143   3.652   5.319   0.973 -0.4172  0.4751 -0.4784
 9983TIP3    H154144   3.640   5.272   0.891 -0.1493  0.8131 -0.7163
 9983TIP3    H254145   3.665   5.251   1.038  0.4865  0.2281 -0.9015
 9984TIP3   OH254146   2.419   6.264   1.648  0.0950 -0.1248 -0.3891
 9984TIP3    H154147   2.353   6.332   1.643 -2.2539 -2.3647 -2.5430
 9984TIP3    H254148   2.408   6.226   1.735 -0.2655  0.6226 -0.1026
 9985TIP3   OH254149   1.694   5.074   0.972  0.7877 -0.4592  0.6517
 9985TIP3    H154150   1.688   5.005   1.037 -0.4644 -0.8246  0.1772
 9985TIP3    H254151   1.719   5.028   0.891  1.4074 -0.1452  0.6629
 9986TIP3   OH254152   2.971   2.429   2.335  0.1813 -0.1088  0.3687
 9986TIP3    H154153   3.066   2.424   2.324  0.0352 -1.0063 -0.7383
 9986TIP3    H254154   2.945   2.341   2.363 -0.1992  0.4799  1.9879
 9987TIP3   OH254155   5.727   5.052   0.704  0.6497 -0.0541 -0.0338
 9987TIP3    H154156   5.729   4.967   0.660  3.1741 -0.5289  0.8594
 9987TIP3    H254157   5.798   5.048   0.769 -0.0321  2.2526  0.9739
 9988TIP3   OH254158   3.780   5.502   1.150  0.1074 -0.2251  0.1551
 9988TIP3    H154159   3.741   5.463   1.072 -1.7062  1.9179 -0.1173
 9988TIP3    H254160   3.872   5.516   1.126 -0.5661  1.0849 -1.9666
 9989TIP3   OH254161   6.736   2.188   2.644  0.1334 -0.0868  0.5537
 9989TIP3    H154162   6.729   2.257   2.710  1.4457  2.0026 -1.3670
 9989TIP3    H254163   6.822   2.201   2.605 -0.3384 -1.6708 -1.1289
 9990TIP3   OH254164   5.193   3.667   1.643 -0.3740  0.0326 -0.3697
 9990TIP3    H154165   5.127   3.616   1.595 -1.3092  1.6542 -0.8636
 9990TIP3    H254166   5.235   3.720   1.575 -0.2024  0.7457  0.2882
 9991TIP3   OH254167   2.185   4.331   0.360  0.1026 -0.1284 -0.5855
 9991TIP3    H154168   2.143   4.379   0.431  0.1950 -0.2939 -0.4207
 9991TIP3    H254169   2.119   4.328   0.291  0.1215  0.3035 -0.6284
 9992TIP3   OH254170   1.196   5.201   1.004  0.3064  0.1640  0.5354
 9992TIP3    H154171   1.140   5.195   0.926  0.2160  2.2442  0.3899
 9992TIP3    H254172   1.138   5.232   1.073  0.8423  0.3919  0.8891
 9993TIP3   OH254173   1.446   4.195   1.035 -0.5008 -0.2698  0.1140
 9993TIP3    H154174   1.397   4.198   1.117 -3.4199  2.3543 -1.4869
 9993TIP3    H254175   1.385   4.156   0.973  0.9512 -0.5338 -1.1950
 9994TIP3   OH254176   5.505   0.234   1.721 -0.3666 -0.1111  0.3470
 9994TIP3    H154177   5.534   0.291   1.792 -0.0349  0.4919 -0.2695
 9994TIP3    H254178   5.580   0.227   1.663 -0.4654 -1.0235  0.3114
 9995TIP3   OH254179   1.440   0.079   3.120 -0.1721 -0.4034  0.1386
 9995TIP3    H154180   1.533   0.058   3.114 -0.2118 -0.6285  0.3037
 9995TIP3    H254181   1.437   0.174   3.117  0.1110 -0.3701  0.7147
 9996TIP3   OH254182   4.472   1.547   2.306 -0.4653 -0.7245 -0.1025
 9996TIP3    H154183   4.392   1.535   2.358 -0.2009  2.8939  1.4743
 9996TIP3    H254184   4.443   1.599   2.231  0.2972  0.2299  0.2508
 9997TIP3   OH254185   1.796   6.341   0.593  0.4917 -0.1045 -0.1263
 9997TIP3    H154186   1.801   6.290   0.675  0.3754 -0.9317 -0.6206
 9997TIP3    H254187   1.724   6.403   0.608 -1.3979 -2.0452 -0.5337
 9998TIP3   OH254188   4.415   0.075   1.035 -0.5054 -0.4186  0.7710
 9998TIP3    H154189   4.469   0.116   0.968 -1.4971 -1.2434 -0.5606
 9998TIP3    H254190   4.368   0.148   1.075 -1.3669 -0.0998 -0.7732
 9999TIP3   OH254191   4.389   6.977   1.604  0.1358  0.0674 -0.6382
 9999TIP3    H154192   4.400   7.029   1.524  0.8754 -0.2985 -0.7827
 9999TIP3    H254193   4.310   6.926   1.589  0.4882 -0.2873 -1.3027
10000TIP3   OH254194   3.392   1.235   1.130 -0.0779  0.3822  0.1219
10000TIP3    H154195   3.378   1.254   1.037  1.0158  0.6633  0.0010
10000TIP3    H254196   3.452   1.160   1.130 -0.1589  0.3164  0.6035
10001TIP3   OH254197   6.035   2.200   1.090 -0.5911  0.3779  0.1023
10001TIP3    H154198   6.080   2.115   1.091 -0.1753  0.5905  1.5330
10001TIP3    H254199   5.969   2.192   1.159 -1.8036  0.5820 -1.0047
10002TIP3   OH254200   7.027   0.437   1.649  0.1482  0.3060  0.0664
10002TIP3    H154201   7.001   0.404   1.735 -0.5533 -0.7319 -0.5194
10002TIP3    H254202   7.122   0.446   1.654 -0.0139  1.8558  1.4736
10003TIP3   OH254203   5.651   0.382   0.909 -0.0006  0.9766 -0.3368
10003TIP3    H154204   5.664   0.291   0.935 -0.9943  0.7807 -0.4947
10003TIP3    H254205   5.705   0.392   0.830  0.3185  0.6076 -0.1718
10004TIP3   OH254206   2.052   3.074   2.617  1.0263  0.2819 -0.4732
10004TIP3    H154207   2.021   3.030   2.696  0.2053  0.0893 -0.8908
10004TIP3    H254208   2.142   3.098   2.637  1.2835 -1.0154  0.0016
10005TIP3   OH254209   2.001   2.753   0.820  0.3240 -0.2367  0.2033
10005TIP3    H154210   2.000   2.775   0.913  0.7320  0.7247 -0.0070
10005TIP3    H254211   2.083   2.790   0.787  0.1942 -0.5777 -0.5390
10006TIP3   OH254212   1.635   0.055   1.573  0.6618  0.4358 -0.2918
10006TIP3    H154213   1.715   0.047   1.625  0.0841 -0.1096  0.5445
10006TIP3    H254214   1.596  -0.033   1.574  0.3074  0.5662 -1.1209
10007TIP3   OH254215   0.711   6.963   1.299 -0.4383 -0.4039 -0.3309
10007TIP3    H154216   0.765   6.993   1.226  0.5170 -0.2395  0.4181
10007TIP3    H254217   0.656   6.895   1.261  0.8485 -1.1340 -0.9818
10008TIP3   OH254218   6.115   6.013   1.618  0.7952  0.2957  0.3217
10008TIP3    H154219   6.019   6.004   1.616  0.7814  0.5252 -1.0955
10008TIP3    H254220   6.136   6.064   1.540  2.1464 -0.5028  0.1312
10009TIP3   OH254221   4.259   1.499   2.046 -0.2234 -0.3778 -0.5577
10009TIP3    H154222   4.269   1.414   2.090  1.7005 -0.2383 -0.6071
10009TIP3    H254223   4.218   1.477   1.962 -2.3595 -0.8533  0.5499
10010TIP3   OH254224   1.085   4.273   1.447  0.2630  0.5259 -0.3587
10010TIP3    H154225   1.034   4.291   1.367  0.6169  0.5819 -0.5743
10010TIP3    H254226   1.030   4.307   1.518 -0.1938  0.1965 -0.5497
10011TIP3   OH254227   1.399   4.808   1.632  0.3255 -0.1932 -0.5053
10011TIP3    H154228   1.436   4.894   1.611  2.5074 -0.3758  2.1094
10011TIP3    H254229   1.341   4.824   1.707  0.5232 -0.9505 -0.1778
10012TIP3   OH254230   1.271   2.391   1.614 -0.6139  0.2841  0.3229
10012TIP3    H154231   1.202   2.348   1.666 -1.1388 -0.4383 -0.9114
10012TIP3    H254232   1.349   2.338   1.630 -0.5783  0.5191  0.9573
10013TIP3   OH254233   4.680   6.806   3.220 -0.8522 -0.3419  0.5502
10013TIP3    H154234   4.588   6.828   3.234 -0.7625 -0.7250  1.8950
10013TIP3    H254235   4.694   6.730   3.277 -0.0798 -1.2113 -0.7614
10014TIP3   OH254236   4.408   4.934   1.778 -0.4788 -0.5036  0.0450
10014TIP3    H154237   4.412   5.030   1.778  1.3219 -0.5559 -0.4513
10014TIP3    H254238   4.402   4.911   1.871  0.9638  0.0606  0.3061
10015TIP3   OH254239   5.666   3.076   3.059  0.3036  0.4834  0.0183
10015TIP3    H154240   5.617   3.158   3.059  0.1953  0.4189  0.0227
10015TIP3    H254241   5.683   3.058   3.152  0.4539  0.5764  0.0082
10016TIP3   OH254242   2.344   3.741   2.259 -0.4099  0.0129 -0.3869
10016TIP3    H154243   2.437   3.740   2.238 -0.3832 -0.0436 -0.2700
10016TIP3    H254244   2.341   3.757   2.353 -0.4547 -1.5811 -0.0939
10017TIP3   OH254245   2.413   0.780   1.622 -0.9251  0.2693 -0.0528
10017TIP3    H154246   2.447   0.697   1.591  1.1612  0.7808  0.7005
10017TIP3    H254247   2.388   0.763   1.713  0.4458  0.6788  0.4174
10018TIP3   OH254248   2.086   3.782   1.075 -0.1179  0.1702  0.7116
10018TIP3    H154249   2.141   3.859   1.089 -0.7972  0.8189 -0.0938
10018TIP3    H254250   2.004   3.817   1.040 -0.4800 -0.9086  0.4410
10019TIP3   OH254251   7.145   3.499   2.543 -0.4489  0.0163  0.3741
10019TIP3    H154252   7.200   3.433   2.585 -1.2004 -1.0908 -0.2968
10019TIP3    H254253   7.062   3.454   2.529 -0.5303  0.6504 -1.3805
10020TIP3   OH254254   6.469   2.087   1.107 -0.1859  0.4781  0.6996
10020TIP3    H154255   6.556   2.125   1.095  0.0215 -0.3589 -0.6236
10020TIP3    H254256   6.486   1.998   1.137 -0.6134  0.5538  1.1779
10021TIP3   OH254257   5.318   4.277   1.282 -0.0236 -0.1543  0.1654
10021TIP3    H154258   5.270   4.213   1.334 -0.1446  1.0029  1.5218
10021TIP3    H254259   5.383   4.226   1.234 -1.5291 -1.5586 -0.4876
10022TIP3   OH254260   7.390   5.191   2.021 -0.1664 -0.2473  0.1351
10022TIP3    H154261   7.451   5.119   2.038 -0.0451  0.2073  1.7353
10022TIP3    H254262   7.312   5.148   1.985  0.4078 -1.0199 -0.2164
10023TIP3   OH254263   0.802   4.977   0.956 -0.5053  0.6401 -0.1939
10023TIP3    H154264   0.802   4.977   0.860 -2.5837  0.4118 -0.2483
10023TIP3    H254265   0.889   4.946   0.980 -0.1291  0.1594 -2.0158
10024TIP3   OH254266   1.491   6.767   1.117 -0.5068  0.0977 -0.0347
10024TIP3    H154267   1.504   6.763   1.022  0.9290  2.7282 -0.0340
10024TIP3    H254268   1.421   6.831   1.129 -1.3565 -0.9296  0.6948
10025TIP3   OH254269   5.683   2.553   2.203  0.1205  0.1047 -0.3134
10025TIP3    H154270   5.744   2.584   2.270 -0.3496  0.4632 -0.0451
10025TIP3    H254271   5.601   2.539   2.250 -0.6974  1.9491 -1.0914
10026TIP3   OH254272   0.824   0.314   1.112 -0.3693 -0.0862  0.1360
10026TIP3    H154273   0.810   0.298   1.206 -2.0803  2.5571  0.4307
10026TIP3    H254274   0.918   0.301   1.099 -0.2235 -1.3442  2.0004
10027TIP3   OH254275   5.532   7.336   1.354  0.1581  0.0821  0.3975
10027TIP3    H154276   5.543   7.397   1.427  0.0206 -1.6355  1.9067
10027TIP3    H254277   5.553   7.250   1.390  0.5218 -0.7807 -1.7090
10028TIP3   OH254278   2.067   0.992   2.216  0.4718 -0.3952  0.7253
10028TIP3    H154279   2.159   1.014   2.226  0.4005 -0.0978  0.7265
10028TIP3    H254280   2.025   1.074   2.191 -0.0134 -0.2184  2.0551
10029TIP3   OH254281   6.868   5.388   3.167  0.0768  0.4988  0.4494
10029TIP3    H154282   6.786   5.432   3.148  0.1674  0.6536  0.4174
10029TIP3    H254283   6.934   5.458   3.166  0.3665  0.2278 -0.5482
10030TIP3   OH254284   4.600   4.671   1.685  0.2400  0.1747  0.1749
10030TIP3    H154285   4.654   4.750   1.692 -1.5666  1.5886 -0.9507
10030TIP3    H254286   4.509   4.704   1.686 -0.5735 -1.9155 -0.1214
10031TIP3   OH254287   6.396   0.254   1.033  0.0623 -0.2286  0.0859
10031TIP3    H154288   6.472   0.247   1.089 -0.4348 -1.4410  0.6384
10031TIP3    H254289   6.363   0.343   1.049  0.4858 -0.2175  0.9745
10032TIP3   OH254290   7.414   3.155   1.369  0.1679 -0.2434 -0.4217
10032TIP3    H154291   7.387   3.238   1.328  0.7441 -0.4939 -1.3380
10032TIP3    H254292   7.333   3.120   1.406  0.1901  1.5477  1.5527
10033TIP3   OH254293   2.295   2.247   0.613 -0.5944  0.1767  0.0909
10033TIP3    H154294   2.262   2.276   0.528 -1.3715  1.6352  0.8627
10033TIP3    H254295   2.373   2.300   0.628 -0.9100  0.4831  0.6462
10034TIP3   OH254296   0.477   7.259   0.958 -0.6826 -0.3388  0.0829
10034TIP3    H154297   0.426   7.331   0.921  1.0016  0.0185 -1.7402
10034TIP3    H254298   0.563   7.296   0.973 -0.0939 -1.6906  0.1436
10035TIP3   OH254299   1.931   1.916   0.826  0.2534  0.0607  0.0411
10035TIP3    H154300   1.895   1.836   0.864  3.3332 -0.7925  1.4908
10035TIP3    H254301   2.019   1.923   0.863 -0.0466  4.4888  0.4899
10036TIP3   OH254302   2.422   6.232   0.733 -0.0763 -0.2470 -0.5408
10036TIP3    H154303   2.474   6.249   0.811  1.0963  0.1914 -1.3947
10036TIP3    H254304   2.465   6.158   0.691  1.3942  1.6213 -2.5244
10037TIP3   OH254305   1.047   0.310   1.446  0.4012 -0.3907 -0.1485
10037TIP3    H154306   1.087   0.358   1.374 -1.2953  2.4422  0.6386
10037TIP3    H254307   1.062   0.364   1.523 -1.1567 -1.3857  0.9137
10038TIP3   OH254308   3.736   4.357   1.759  0.2297 -0.4902  0.1461
10038TIP3    H154309   3.831   4.372   1.757  0.0681  0.6384 -1.3525
10038TIP3    H254310   3.702   4.425   1.818  0.1701  0.7340 -1.2204
10039TIP3   OH254311   3.855   3.017   0.802  0.0337  0.4794 -0.3994
10039TIP3    H154312   3.910   2.983   0.732 -0.3485  0.1727 -0.5523
10039TIP3    H254313   3.893   3.102   0.824  2.2886 -0.8735  1.3929
10040TIP3   OH254314   1.309   6.576   0.753  0.3896  0.2363 -0.2809
10040TIP3    H154315   1.297   6.670   0.763  1.1421  0.3180 -0.1062
10040TIP3    H254316   1.220   6.541   0.753  0.0954  0.9662 -0.5755
10041TIP3   OH254317   0.247   3.191   0.865  0.0432  0.3006 -0.0983
10041TIP3    H154318   0.285   3.106   0.885  0.8162  0.6338 -0.1184
10041TIP3    H254319   0.295   3.222   0.789  0.0405  0.9292  0.1492
10042TIP3   OH254320   6.380   2.253   0.903 -0.0699 -0.0932  0.1505
10042TIP3    H154321   6.457   2.228   0.852 -0.0621 -0.4145  0.3158
10042TIP3    H254322   6.393   2.211   0.988 -0.4194 -0.1404  0.1829
10043TIP3   OH254323   0.302   1.670   2.956  0.0669  0.1159 -0.1566
10043TIP3    H154324   0.228   1.703   2.906 -0.5800 -2.5597 -1.1333
10043TIP3    H254325   0.267   1.595   3.005  1.9663 -0.8318 -0.1426
10044TIP3   OH254326   4.231   1.514   2.471 -0.3355  0.2110 -0.2078
10044TIP3    H154327   4.161   1.462   2.432 -1.4609  1.4371  0.1099
10044TIP3    H254328   4.226   1.599   2.426 -0.3332  0.9636  1.1638
10045TIP3   OH254329   2.134   7.143   2.492  0.4602 -0.8449  0.3906
10045TIP3    H154330   2.051   7.184   2.517  0.6166 -0.3661  0.1379
10045TIP3    H254331   2.201   7.205   2.521  0.7955 -1.7831  1.6719
10046TIP3   OH254332   4.249   5.978   1.970 -0.8230  0.0324 -0.3837
10046TIP3    H154333   4.266   5.923   1.894 -2.7969 -0.9723 -0.1605
10046TIP3    H254334   4.168   5.944   2.007 -1.8955  2.7880  0.0531
10047TIP3   OH254335   4.164   2.019   1.960 -0.1629 -0.0062 -0.2031
10047TIP3    H154336   4.194   1.991   1.873 -1.7425 -0.3451 -0.6741
10047TIP3    H254337   4.110   2.096   1.943  0.8140  0.9251  0.6835
10048TIP3   OH254338   1.204   4.858   2.367 -0.4320  0.4803  0.2373
10048TIP3    H154339   1.117   4.843   2.331  0.2893  1.3053 -2.1097
10048TIP3    H254340   1.199   4.944   2.409 -0.5931  0.9148 -0.6313
10049TIP3   OH254341   1.182   5.127   2.141  0.1901  0.3586 -0.2852
10049TIP3    H154342   1.092   5.136   2.111  0.0757  0.2790  0.0318
10049TIP3    H254343   1.175   5.093   2.230  0.5791 -3.0144 -1.3757
10050TIP3   OH254344   6.992   0.853   1.760 -0.6888 -0.5091  0.0083
10050TIP3    H154345   6.921   0.802   1.722 -1.0718 -0.3942  0.5664
10050TIP3    H254346   6.949   0.921   1.811 -0.1868  0.3650 -0.6960
10051TIP3   OH254347   5.385   0.281   0.944  0.2761 -0.0691 -0.1498
10051TIP3    H154348   5.399   0.187   0.930  0.5509 -0.4708  2.3574
10051TIP3    H254349   5.468   0.321   0.920 -0.7330  0.0059 -4.1220
10052TIP3   OH254350   4.117   0.448   3.429 -0.0732  0.2248 -0.0354
10052TIP3    H154351   4.194   0.501   3.409 -0.2409  0.5860  0.2793
10052TIP3    H254352   4.047   0.486   3.377  0.2474 -0.9679 -1.4377
10053TIP3   OH254353   3.165   1.482   2.488  0.3231  0.1583 -0.1114
10053TIP3    H154354   3.217   1.403   2.504  1.6793  0.9341 -0.5024
10053TIP3    H254355   3.080   1.450   2.457  0.8205 -1.1388 -0.1732
10054TIP3   OH254356   5.689   0.245   0.652 -0.3333 -0.2895 -0.0463
10054TIP3    H154357   5.731   0.185   0.713  1.5578  0.8978 -0.1163
10054TIP3    H254358   5.758   0.270   0.591 -2.3339 -2.2381 -3.4475
10055TIP3   OH254359   5.458   1.927   1.794 -0.6415  0.1263 -0.6033
10055TIP3    H154360   5.506   1.991   1.743  0.7771 -1.3491 -1.1956
10055TIP3    H254361   5.494   1.842   1.767 -0.0167 -0.7533  2.5796
10056TIP3   OH254362   2.042   5.065   1.163 -0.2372 -1.0364 -0.1953
10056TIP3    H154363   1.997   5.026   1.237 -0.4345  0.2031  0.3632
10056TIP3    H254364   2.135   5.044   1.178 -0.3954 -1.7525 -0.2043
10057TIP3   OH254365   5.695   3.566   2.781 -0.2508  0.4720 -0.6296
10057TIP3    H154366   5.745   3.573   2.862  1.4107  0.2062 -1.5691
10057TIP3    H254367   5.731   3.636   2.725 -0.4993 -0.1176 -1.5464
10058TIP3   OH254368   4.021   6.679   0.727 -0.0559 -1.0864 -0.0883
10058TIP3    H154369   4.043   6.645   0.814  0.4335 -2.3892 -0.6813
10058TIP3    H254370   4.033   6.603   0.669 -1.2463 -0.4779 -1.1656
10059TIP3   OH254371   5.162   2.949   1.988  0.1950  0.0401 -0.3809
10059TIP3    H154372   5.236   2.969   1.930 -1.0105  1.4781 -1.5105
10059TIP3    H254373   5.174   3.004   2.064 -0.1998  1.0156 -1.0075
10060TIP3   OH254374   1.707   2.143   1.577 -0.5898 -0.4540  0.0605
10060TIP3    H154375   1.764   2.216   1.597 -2.0522  0.5508  0.7342
10060TIP3    H254376   1.738   2.072   1.633  0.9147 -0.4268 -0.6865
10061TIP3   OH254377   0.465   2.343   2.570 -0.0701 -0.2498 -0.0690
10061TIP3    H154378   0.421   2.271   2.524 -1.6680  0.7836 -0.2346
10061TIP3    H254379   0.514   2.388   2.502  0.6195 -0.9191 -0.0352
10062TIP3   OH254380   2.360   0.407   2.344  0.5198  0.0063  0.7543
10062TIP3    H154381   2.376   0.413   2.249  0.6863  0.7354  0.8259
10062TIP3    H254382   2.276   0.452   2.357  0.2340 -0.5573  0.8872
10063TIP3   OH254383   0.640   0.024   0.739  0.2077 -0.1524 -0.7330
10063TIP3    H154384   0.581   0.050   0.668 -3.1730 -0.7555  1.6107
10063TIP3    H254385   0.647  -0.071   0.730  0.9994 -0.0636 -1.1018
10064TIP3   OH254386   0.015   4.664   0.741  0.0132  0.3111  0.3517
10064TIP3    H154387  -0.054   4.602   0.718  0.4818 -0.0729 -0.0575
10064TIP3    H254388   0.027   4.653   0.835 -1.0914  1.0229  0.5872
10065TIP3   OH254389   3.856   1.510   1.104 -0.4332 -0.0341 -0.5452
10065TIP3    H154390   3.842   1.604   1.106 -1.4896 -0.1672 -1.0385
10065TIP3    H254391   3.946   1.498   1.134 -0.6268  1.0475  0.5134
10066TIP3   OH254392   0.441   7.512   2.429 -0.0372 -0.5222 -0.0574
10066TIP3    H154393   0.357   7.468   2.415 -1.6224  2.2960 -0.1528
10066TIP3    H254394   0.453   7.511   2.524 -0.6873 -0.0976  0.0350
10067TIP3   OH254395   5.388   4.132   2.075  0.1379 -0.1481 -0.3421
10067TIP3    H154396   5.385   4.196   2.146  1.0849  0.0784 -0.4929
10067TIP3    H254397   5.373   4.184   1.996  0.2387 -0.2175 -0.4069
10068TIP3   OH254398   7.546   1.493   2.446  0.1899 -0.1874 -0.4014
10068TIP3    H154399   7.477   1.483   2.380 -1.1921  1.3338  0.7221
10068TIP3    H254400   7.502   1.536   2.520  2.3424  0.8058  0.3709
10069TIP3   OH254401   3.662   3.503   2.297  0.0973 -0.0871 -0.4052
10069TIP3    H154402   3.654   3.598   2.307  2.9704  0.5134 -2.5003
10069TIP3    H254403   3.718   3.476   2.369  1.1848  0.2450 -1.1019
10070TIP3   OH254404   5.748   5.511   1.077  0.3551 -0.6666  0.1695
10070TIP3    H154405   5.724   5.460   1.000  2.1215  1.8466 -2.2090
10070TIP3    H254406   5.666   5.520   1.126 -1.1605 -1.1736 -2.1172
10071TIP3   OH254407   5.348   0.037   3.064  0.1912  0.1275 -0.8702
10071TIP3    H154408   5.359   0.117   3.115 -0.4065 -0.2326 -0.1599
10071TIP3    H254409   5.370   0.062   2.974  0.7772  0.8881 -0.5214
10072TIP3   OH254410   6.104   0.214   1.602 -0.4002  0.0066  0.2179
10072TIP3    H154411   6.035   0.275   1.575  1.5782  2.4894  0.3857
10072TIP3    H254412   6.135   0.175   1.520 -1.3007 -0.3751  0.0472
10073TIP3   OH254413   5.888   4.613   3.257 -0.0389  0.1345  0.0116
10073TIP3    H154414   5.874   4.570   3.173 -0.3822  0.9487 -0.3585
10073TIP3    H254415   5.861   4.547   3.322 -0.5775 -0.2042 -0.5414
10074TIP3   OH254416   1.045   5.644   1.707  0.5807 -0.1387  0.5723
10074TIP3    H154417   1.069   5.584   1.637 -0.1481  0.0422  0.1550
10074TIP3    H254418   0.950   5.656   1.697  1.0731  3.8343 -1.6714
10075TIP3   OH254419   5.990   0.552   0.987 -1.1128 -0.0056  0.2130
10075TIP3    H154420   5.983   0.647   0.991 -3.8945 -0.0512 -0.8204
10075TIP3    H254421   5.969   0.531   0.896 -2.3754 -1.6637  0.8340
10076TIP3   OH254422   7.456   0.987   1.476 -0.6880  0.1909 -0.7682
10076TIP3    H154423   7.436   0.954   1.388 -1.3570 -0.7009 -0.2980
10076TIP3    H254424   7.371   1.001   1.517 -0.3995 -1.1466  0.3604
10077TIP3   OH254425   2.720   1.016   0.984  0.5789  0.7179 -0.7148
10077TIP3    H154426   2.807   0.983   1.008 -0.9855 -2.9156  0.7174
10077TIP3    H254427   2.681   1.043   1.067 -1.5593 -3.1887 -0.1999
10078TIP3   OH254428   4.497   1.368   1.868 -0.2182  0.0471  0.3252
10078TIP3    H154429   4.460   1.387   1.954  0.6205 -2.5433  1.3555
10078TIP3    H254430   4.446   1.293   1.837 -0.0514  0.5173 -1.1645
10079TIP3   OH254431   1.238   1.661   1.457 -0.4662 -1.1733 -0.1965
10079TIP3    H154432   1.287   1.652   1.539  0.2247 -0.1480 -0.4651
10079TIP3    H254433   1.303   1.641   1.389 -0.8947 -1.5114 -0.5053
10080TIP3   OH254434   5.472   7.360   2.357  0.2315  0.0530 -0.1677
10080TIP3    H154435   5.524   7.312   2.421 -0.5102  0.5694  0.8498
10080TIP3    H254436   5.387   7.314   2.356 -0.0236  0.5160 -0.1899
10081TIP3   OH254437   5.458   5.014   0.716 -0.3874 -0.3356  0.1467
10081TIP3    H154438   5.462   4.926   0.680 -1.4455  0.2203 -1.4426
10081TIP3    H254439   5.549   5.042   0.722 -0.0002 -1.7346  1.2794
10082TIP3   OH254440   3.829   6.706   1.141 -0.0403  0.2759 -0.3336
10082TIP3    H154441   3.893   6.746   1.200  0.0968  0.4802 -0.6146
10082TIP3    H254442   3.757   6.769   1.138 -0.0401  0.2728 -0.3968
10083TIP3   OH254443   2.582   0.582   1.484  0.1580  0.2886 -0.2601
10083TIP3    H154444   2.620   0.630   1.558 -1.4212  0.8134  0.2392
10083TIP3    H254445   2.632   0.612   1.408  1.8127 -0.2667  0.5621
10084TIP3   OH254446   6.755   0.214   2.263 -0.0160  0.0470 -1.0746
10084TIP3    H154447   6.700   0.151   2.216  1.3930 -1.1588 -1.1746
10084TIP3    H254448   6.757   0.291   2.206 -0.9412 -0.1821 -1.4378
10085TIP3   OH254449   0.575   1.889   2.423 -0.2029  0.1338 -0.7765
10085TIP3    H154450   0.537   1.959   2.370 -1.0728  0.4757  0.2687
10085TIP3    H254451   0.585   1.816   2.362 -1.7467  0.3104 -1.2929
10086TIP3   OH254452   2.530   6.952   2.021  0.1053 -0.1787 -0.0500
10086TIP3    H154453   2.574   6.894   1.958  0.5319  1.1932 -1.0642
10086TIP3    H254454   2.495   7.023   1.967 -4.0246 -1.4695  0.5769
10087TIP3   OH254455   2.350   2.846   0.602  0.0282 -0.3216 -0.2158
10087TIP3    H154456   2.349   2.939   0.625  0.9704  0.0117 -1.3889
10087TIP3    H254457   2.337   2.800   0.684  0.4709  0.8322  0.5171
10088TIP3   OH254458   7.159   3.086   1.458  0.3505  0.1686 -0.7200
10088TIP3    H154459   7.108   3.085   1.377  0.1572 -2.8990 -0.6679
10088TIP3    H254460   7.095   3.108   1.526 -0.6022 -1.9746 -0.8627
10089TIP3   OH254461   2.813   6.124   1.848 -0.2641  0.1679 -0.2321
10089TIP3    H154462   2.756   6.050   1.869  0.5365 -0.0195  1.4144
10089TIP3    H254463   2.815   6.126   1.752 -1.9516 -0.6353 -0.3229
10090TIP3   OH254464   7.662   2.233   1.473  0.3975 -0.2033 -0.1870
10090TIP3    H154465   7.655   2.328   1.462  1.1504 -0.1069  0.1050
10090TIP3    H254466   7.707   2.222   1.556 -0.1587 -0.8333  0.0405
10091TIP3   OH254467   5.574   3.265   0.683  0.9414 -0.0027 -0.1909
10091TIP3    H154468   5.486   3.287   0.651  1.6645  2.3078 -0.7990
10091TIP3    H254469   5.559   3.196   0.748 -1.2556 -0.0280 -0.6200
10092TIP3   OH254470   4.265   3.953   1.533  0.4718  0.0533  0.0684
10092TIP3    H154471   4.339   3.962   1.473  0.4631  0.7741  0.1567
10092TIP3    H254472   4.188   3.949   1.477  0.4816  0.5120  0.0156
10093TIP3   OH254473   1.474   4.407   0.803  0.0143  0.1424 -0.0191
10093TIP3    H154474   1.406   4.344   0.828 -2.0072  2.0466 -0.3651
10093TIP3    H254475   1.528   4.360   0.739 -1.3209 -1.3006 -0.1509
10094TIP3   OH254476   1.230   1.367   1.352 -0.1777  0.1337 -0.1648
10094TIP3    H154477   1.185   1.383   1.435  1.0983 -2.7860  1.2764
10094TIP3    H254478   1.161   1.360   1.287 -1.4102  0.2941  1.0940
10095TIP3   OH254479   6.276   3.070   2.568  0.0949 -0.0249  0.2545
10095TIP3    H154480   6.241   3.068   2.658  0.1103  0.1784  0.2645
10095TIP3    H254481   6.204   3.103   2.515  0.3264  0.5549  0.2992
10096TIP3   OH254482   2.418   1.530   2.142  0.2362 -0.4481 -0.5689
10096TIP3    H154483   2.455   1.572   2.219  0.6999  0.6064 -1.3472
10096TIP3    H254484   2.493   1.517   2.084  0.0805 -2.2136 -0.4322
10097TIP3   OH254485   5.118   3.004   1.192 -0.1536 -0.3188 -0.5942
10097TIP3    H154486   5.149   3.094   1.178 -2.9130  0.5935 -1.3133
10097TIP3    H254487   5.073   2.981   1.111 -0.1637 -2.0904 -0.1282
10098TIP3   OH254488   3.979   5.390   1.810 -0.1551 -0.3823 -0.3523
10098TIP3    H154489   4.002   5.460   1.871 -0.9296 -1.0412  0.7265
10098TIP3    H254490   3.902   5.423   1.763  1.3234  0.7613 -2.1377
10099TIP3   OH254491   7.481   6.854   2.068 -0.1913 -0.2370  0.6588
10099TIP3    H154492   7.457   6.762   2.077  2.1120 -0.9458 -0.0187
10099TIP3    H254493   7.513   6.879   2.155  0.7132 -0.5694  0.4325
10100TIP3   OH254494   7.518   0.857   2.065 -0.5395  0.6048 -0.2753
10100TIP3    H154495   7.584   0.807   2.017  0.2791  0.8727  0.5378
10100TIP3    H254496   7.504   0.935   2.012  0.0784  0.7206 -0.2796
10101TIP3   OH254497   2.085   2.308   3.059 -0.1673  0.0961  0.1759
10101TIP3    H154498   2.175   2.278   3.054 -0.3227 -0.3449 -0.1013
10101TIP3    H254499   2.090   2.394   3.101  0.3715  0.0521  0.2089
10102TIP3   OH254500   0.772   5.849   1.182 -0.0829  0.3574  0.0026
10102TIP3    H154501   0.725   5.786   1.127  2.2407 -3.2485  1.6945
10102TIP3    H254502   0.864   5.824   1.173  0.9869  3.4382  1.0776
10103TIP3   OH254503   6.923   4.434   2.604 -0.5741  0.2261  0.0609
10103TIP3    H154504   6.847   4.398   2.559  0.8412 -0.6284 -1.7689
10103TIP3    H254505   6.892   4.449   2.694 -2.3821 -1.8326 -0.1157
10104TIP3   OH254506   6.833   1.208   1.612  0.5574 -0.0939 -0.1003
10104TIP3    H154507   6.810   1.119   1.636  0.2203  0.3141  1.1664
10104TIP3    H254508   6.821   1.259   1.692 -0.0270  1.2399 -0.9842
10105TIP3   OH254509   5.183   5.505   2.707  0.2232  0.2647  0.3874
10105TIP3    H154510   5.164   5.585   2.657 -2.4927  0.3266  1.3193
10105TIP3    H254511   5.208   5.441   2.641 -1.0619  0.9560 -0.8242
10106TIP3   OH254512   1.250   5.361   1.494  0.1927  0.3844 -0.3852
10106TIP3    H154513   1.214   5.438   1.448  0.8269 -0.0403 -1.6342
10106TIP3    H254514   1.292   5.310   1.426  1.7696  0.0474  0.7888
10107TIP3   OH254515   7.468   4.244   2.108  0.3673  0.0106 -0.6052
10107TIP3    H154516   7.507   4.183   2.170  3.0864  3.0024  0.9333
10107TIP3    H254517   7.540   4.266   2.048 -1.0780  0.2615 -2.3208
10108TIP3   OH254518   4.755   0.371   0.894  0.3930 -0.1374 -0.0062
10108TIP3    H154519   4.668   0.406   0.916 -0.0986 -0.2569 -1.6717
10108TIP3    H254520   4.804   0.447   0.864  0.8220 -0.1070  0.7424
10109TIP3   OH254521   4.508   4.363   1.915 -0.2339  0.0381 -0.0322
10109TIP3    H154522   4.468   4.449   1.905 -2.2528 -0.8857 -0.2533
10109TIP3    H254523   4.508   4.325   1.827 -0.3098 -0.5939  0.2339
10110TIP3   OH254524   5.739   0.146   1.591  0.4457 -0.0603  0.4650
10110TIP3    H154525   5.765   0.214   1.529  1.0204  0.3901  1.1922
10110TIP3    H254526   5.800   0.074   1.575  1.2891  0.4685  1.2294
10111TIP3   OH254527   5.149   6.330   2.453 -0.2751 -0.0463 -1.0373
10111TIP3    H154528   5.118   6.257   2.506  1.6708 -1.2901 -1.5438
10111TIP3    H254529   5.190   6.390   2.515  0.0648 -0.4406 -0.8819
10112TIP3   OH254530   4.203   2.359   0.935  0.3062 -0.3474 -0.0442
10112TIP3    H154531   4.186   2.451   0.953  1.5071 -0.0397 -0.4268
10112TIP3    H254532   4.282   2.358   0.882  0.3909 -1.6073  0.0609
10113TIP3   OH254533   1.416   0.104   2.509 -0.1182  0.3996  0.2262
10113TIP3    H154534   1.419   0.107   2.413  1.5730 -2.8355  0.0200
10113TIP3    H254535   1.450   0.188   2.538  0.5859  0.9481 -2.0421
10114TIP3   OH254536   6.594   2.080   0.794  0.0382  0.0278 -0.0734
10114TIP3    H154537   6.621   2.132   0.870  0.1900 -0.1173 -0.0292
10114TIP3    H254538   6.658   2.010   0.789 -0.0584 -0.0467 -0.2485
10115TIP3   OH254539   2.220   4.687   0.821 -0.3310 -0.2280 -0.3264
10115TIP3    H154540   2.235   4.731   0.905  1.2548 -0.8672 -0.2408
10115TIP3    H254541   2.183   4.755   0.765  1.1538  0.9967  0.0957
10116TIP3   OH254542   3.772   2.346   1.462 -0.7591  0.2228 -0.0437
10116TIP3    H154543   3.700   2.312   1.409 -1.0003  0.7271 -0.0388
10116TIP3    H254544   3.848   2.340   1.405 -0.9055  0.2047 -0.2388
10117TIP3   OH254545   1.222   2.970   1.627  0.2109 -0.1964  0.5120
10117TIP3    H154546   1.153   2.954   1.562  0.7814 -0.0039 -0.1484
10117TIP3    H254547   1.190   2.927   1.706 -0.6490 -0.1474  0.2030
10118TIP3   OH254548   2.421   0.626   2.778  0.3585 -0.6513  0.6451
10118TIP3    H154549   2.367   0.691   2.824 -1.0259 -1.2566 -0.0656
10118TIP3    H254550   2.453   0.672   2.701 -1.9536 -1.1821 -0.7402
10119TIP3   OH254551   2.562   3.835   0.711  0.1421  0.3306  0.6824
10119TIP3    H154552   2.479   3.884   0.704  1.1361  1.8840 -1.1680
10119TIP3    H254553   2.626   3.891   0.667  2.3413 -0.5349  2.6139
10120TIP3   OH254554   6.681   6.277   1.348  0.0534 -0.2871 -0.4700
10120TIP3    H154555   6.648   6.191   1.321 -1.3501  0.3113 -0.7802
10120TIP3    H254556   6.666   6.279   1.443  1.8857 -1.1020 -0.1287
10121TIP3   OH254557   4.193   1.889   2.995  0.0638 -0.7355  0.0776
10121TIP3    H154558   4.273   1.942   3.004  0.3384 -1.0652 -0.4104
10121TIP3    H254559   4.155   1.889   3.083 -1.4061  2.5674 -0.4047
10122TIP3   OH254560   1.959   6.413   3.204 -0.2394  0.1243  0.0395
10122TIP3    H154561   1.911   6.486   3.242  1.8400 -0.2529  3.9066
10122TIP3    H254562   1.908   6.335   3.227  0.5504 -0.0267  1.4099
10123TIP3   OH254563   0.005   0.713   1.146 -0.2569 -0.4395 -0.4659
10123TIP3    H154564   0.015   0.675   1.233 -1.3993  0.9182  0.2911
10123TIP3    H254565  -0.060   0.782   1.157  0.6911  0.7817 -2.0881
10124TIP3   OH254566   0.750   6.003   2.255 -0.0591  0.4813 -0.2978
10124TIP3    H154567   0.723   6.077   2.201 -1.5493 -0.7544 -1.3504
10124TIP3    H254568   0.771   6.041   2.340  1.3900  2.3676 -1.4266
10125TIP3   OH254569   6.518   3.514   0.971  0.3318 -0.0716  0.2647
10125TIP3    H154570   6.520   3.604   1.003 -0.9127  0.1508 -0.2217
10125TIP3    H254571   6.587   3.511   0.904  0.5447  0.4423  0.4533
10126TIP3   OH254572   6.997   3.100   1.690 -0.7621  0.2191 -0.0053
10126TIP3    H154573   7.023   3.009   1.706  0.4720  0.0848 -2.3491
10126TIP3    H254574   7.032   3.148   1.766 -0.0428 -1.0290  0.4892
10127TIP3   OH254575   2.115   5.700   0.992  0.2468 -0.1573  0.0467
10127TIP3    H154576   2.119   5.641   0.917  1.6921 -1.5824  1.1701
10127TIP3    H254577   2.091   5.644   1.066 -2.0510  1.3686  0.5543
10128TIP3   OH254578   5.349   5.806   2.274  0.4426 -0.4901 -0.4184
10128TIP3    H154579   5.362   5.858   2.194 -1.1936  0.3456 -0.1932
10128TIP3    H254580   5.255   5.810   2.289  0.6484 -1.1817  1.2030
10129TIP3   OH254581   2.969   3.360   1.029  0.5410  0.2095  0.5858
10129TIP3    H154582   3.015   3.419   1.090  0.1688  0.6463  0.4493
10129TIP3    H254583   2.965   3.409   0.947  2.4354 -0.9901 -0.2845
10130TIP3   OH254584   3.887   6.632   2.312  0.0921 -0.7637 -0.1091
10130TIP3    H154585   3.861   6.669   2.228 -1.1768  1.2422  1.0504
10130TIP3    H254586   3.979   6.657   2.322  0.6427 -2.1509 -1.4113
10131TIP3   OH254587   1.227   2.200   1.366  0.3593  0.1554 -0.1539
10131TIP3    H154588   1.258   2.235   1.449 -0.4939  0.1961  0.1619
10131TIP3    H254589   1.132   2.198   1.375  0.3272 -1.5196 -0.4365
10132TIP3   OH254590   4.377   2.288   3.841  0.3725  0.1323  0.5285
10132TIP3    H154591   4.347   2.350   3.908  1.3977 -1.1727  2.2800
10132TIP3    H254592   4.343   2.203   3.870  0.2866 -0.3824 -0.9917
10133TIP3   OH254593   0.731   0.571   1.038 -0.1227 -0.2787 -0.2381
10133TIP3    H154594   0.769   0.624   1.108 -1.3748 -1.4793  1.4229
10133TIP3    H254595   0.771   0.485   1.048  0.4013 -0.2292 -1.6444
10134TIP3   OH254596   6.003   6.509   2.517 -0.0125  0.2748  0.0850
10134TIP3    H154597   6.052   6.592   2.516  0.6688 -0.1162  0.0570
10134TIP3    H254598   5.928   6.526   2.574 -0.1438  1.0535 -0.3064
10135TIP3   OH254599   1.772   2.553   1.151  0.3751  0.1127  0.3065
10135TIP3    H154600   1.866   2.552   1.166  0.6094 -1.3655 -0.9802
10135TIP3    H254601   1.746   2.643   1.168  2.2079  0.8168 -0.3596
10136TIP3   OH254602   4.978   5.062   1.777 -0.1216 -0.1197  0.8253
10136TIP3    H154603   5.061   5.046   1.822  1.9368  1.3564 -2.0762
10136TIP3    H254604   4.945   5.144   1.816  1.1615  0.6741  0.3086
10137TIP3   OH254605   2.213   4.033   1.096  1.1003  0.1210  0.1169
10137TIP3    H154606   2.170   4.109   1.057  1.5758  0.4061  0.1414
10137TIP3    H254607   2.273   4.070   1.162  1.8058 -0.2243 -0.3140
10138TIP3   OH254608   7.599   5.304   1.799  0.2382  0.2307 -0.9113
10138TIP3    H154609   7.535   5.251   1.751 -0.9713  1.0986 -0.3100
10138TIP3    H254610   7.614   5.254   1.879 -0.3404  0.4199 -0.6761
10139TIP3   OH254611   3.578   5.099   0.532  0.1168  0.1420 -0.4471
10139TIP3    H154612   3.652   5.047   0.501 -0.0708 -2.0870  2.4262
10139TIP3    H254613   3.501   5.048   0.507 -0.2629  0.6599 -0.3517
10140TIP3   OH254614   2.588   2.627   2.322  0.3037  0.4165  0.2518
10140TIP3    H154615   2.662   2.656   2.268  0.3813  0.4047  0.3521
10140TIP3    H254616   2.522   2.598   2.258  0.0548  1.2188  0.1351
10141TIP3   OH254617   2.473   4.479   0.809  0.1938 -0.8336  0.1121
10141TIP3    H154618   2.428   4.561   0.791  1.7107 -0.1828 -0.8891
10141TIP3    H254619   2.426   4.413   0.757 -0.4438 -0.4336  0.1783
10142TIP3   OH254620   1.181   4.741   1.459  0.4010  0.7701 -0.6091
10142TIP3    H154621   1.245   4.722   1.528  1.5294  0.5712 -1.6695
10142TIP3    H254622   1.214   4.693   1.383 -0.6723  1.1999 -1.3606
10143TIP3   OH254623   2.906   4.804   2.329  0.2499  0.0626  0.1064
10143TIP3    H154624   2.903   4.710   2.309  0.9060  0.6291 -3.0489
10143TIP3    H254625   2.830   4.841   2.284  0.4630  1.1749  0.6191
10144TIP3   OH254626   5.949   1.957   2.094  0.5185  0.4444  0.1811
10144TIP3    H154627   5.917   1.874   2.130  0.4269 -0.3144 -1.5716
10144TIP3    H254628   5.927   1.954   2.001  1.1434  2.1425 -0.0665
10145TIP3   OH254629   0.231   2.445   1.567  0.0648  0.1945  0.0163
10145TIP3    H154630   0.196   2.361   1.597  0.4398 -0.4184 -1.1718
10145TIP3    H254631   0.315   2.453   1.612  0.0481 -0.0887  0.1003
10146TIP3   OH254632   2.604   1.868   1.896  0.2109 -0.5381 -0.2618
10146TIP3    H154633   2.532   1.807   1.882  1.3023 -1.6262 -1.3456
10146TIP3    H254634   2.623   1.862   1.990 -1.1717 -0.1113  0.0792
10147TIP3   OH254635   2.389   3.310   1.522 -0.0659  0.0535  0.2644
10147TIP3    H154636   2.341   3.390   1.540 -1.5251 -0.5138 -0.9220
10147TIP3    H254637   2.456   3.335   1.458 -1.8001  0.0085 -1.6782
10148TIP3   OH254638   6.639   3.545   1.666 -0.3885  0.1070 -0.7881
10148TIP3    H154639   6.579   3.608   1.705 -0.5665 -0.9608  0.7738
10148TIP3    H254640   6.663   3.583   1.582 -1.5411  1.5892 -0.4879
10149TIP3   OH254641   0.022   1.121   2.279  0.1208 -0.0961  0.2896
10149TIP3    H154642  -0.028   1.059   2.332 -1.3960  0.1760 -0.7319
10149TIP3    H254643   0.061   1.181   2.343 -0.3800 -0.6840  1.1734
10150TIP3   OH254644   1.580   5.523   3.253  0.0119  0.9597 -0.6890
10150TIP3    H154645   1.540   5.610   3.244  0.0076  0.9302 -0.9449
10150TIP3    H254646   1.531   5.467   3.192 -0.5452  0.5831  0.0868
10151TIP3   OH254647   1.523   0.093   2.778 -0.2790 -0.1910 -0.3234
10151TIP3    H154648   1.613   0.061   2.783 -0.5112 -0.7766  0.2747
10151TIP3    H254649   1.530   0.177   2.733  0.6538  0.0997  0.3363
10152TIP3   OH254650   2.157   0.087   3.305 -0.3450 -0.4006 -0.0495
10152TIP3    H154651   2.074   0.042   3.287 -0.4736 -0.4600  0.6573
10152TIP3    H254652   2.132   0.161   3.361 -0.0234  0.0594 -0.5017
10153TIP3   OH254653   3.976   3.265   0.842  0.1352 -0.2121 -0.1346
10153TIP3    H154654   3.923   3.328   0.793  1.0934  0.4332 -0.3561
10153TIP3    H254655   3.989   3.307   0.927  1.7079  0.4177 -0.6547
10154TIP3   OH254656   3.034   6.956   1.965  0.1664  0.2261  0.1198
10154TIP3    H154657   2.973   7.017   1.923  1.6635  1.7108  0.0206
10154TIP3    H254658   2.977   6.886   1.998 -1.5917  1.4941 -0.0313
10155TIP3   OH254659   2.092   5.146   3.109  0.1741 -0.0490  0.1229
10155TIP3    H154660   2.166   5.205   3.121  1.4600 -1.5796  0.0674
10155TIP3    H254661   2.114   5.069   3.160 -2.2160  0.0995  1.5312
10156TIP3   OH254662   4.645   7.468   1.935 -0.0436  0.1494 -0.4682
10156TIP3    H154663   4.601   7.490   2.018  1.0691  0.1659  0.1419
10156TIP3    H254664   4.601   7.522   1.870 -0.8518  0.2404  0.1344
10157TIP3   OH254665   0.434   6.269   2.248 -0.3230 -0.1614 -0.0751
10157TIP3    H154666   0.528   6.267   2.226 -0.7263 -2.3946 -2.1114
10157TIP3    H254667   0.402   6.349   2.207  0.6430  0.5766  0.5507
10158TIP3   OH254668   2.059   1.251   1.038  0.7668 -0.1852  0.0749
10158TIP3    H154669   1.967   1.260   1.013  0.8220  0.6569  0.1428
10158TIP3    H254670   2.057   1.219   1.128  0.5324  0.0357  0.1487
10159TIP3   OH254671   4.965   0.914   3.564 -0.7946  0.3254 -0.5533
10159TIP3    H154672   4.888   0.955   3.524 -0.7557  1.1303  0.1688
10159TIP3    H254673   5.012   0.986   3.605 -1.0715 -0.5067  1.3559
10160TIP3   OH254674   7.191   7.493   2.003 -0.2265  0.0340 -0.8735
10160TIP3    H154675   7.232   7.540   1.930  1.8744  0.0610  0.2442
10160TIP3    H254676   7.251   7.421   2.023  0.4783  1.2890  2.1716
10161TIP3   OH254677   2.431   3.486   2.675 -0.2598  0.4252 -0.1383
10161TIP3    H154678   2.456   3.448   2.591 -0.4370  0.2311 -0.1030
10161TIP3    H254679   2.344   3.451   2.692  0.0748 -0.1123  0.4811
10162TIP3   OH254680   6.689   2.071   2.250  0.0646 -0.4014 -0.3260
10162TIP3    H154681   6.702   2.057   2.156  1.0810 -1.3725 -0.0712
10162TIP3    H254682   6.602   2.109   2.257 -0.3384 -1.0296 -1.6033
10163TIP3   OH254683   1.911   5.870   2.878 -0.5142  0.8216 -0.2175
10163TIP3    H154684   1.876   5.794   2.923 -0.5938  0.7442 -0.4103
10163TIP3    H254685   1.900   5.942   2.941  1.8475  0.2539  1.0006
10164TIP3   OH254686   1.604   1.324   2.764  0.4365 -0.1589  0.6901
10164TIP3    H154687   1.540   1.261   2.798  0.7050  0.0234  1.5492
10164TIP3    H254688   1.689   1.286   2.786  0.6259 -0.3052 -0.2796
10165TIP3   OH254689   5.580   7.084   1.465  0.6418 -0.2602  0.2278
10165TIP3    H154690   5.655   7.070   1.524  1.6416 -1.5734 -1.2464
10165TIP3    H254691   5.601   7.031   1.388 -0.8534  0.9858 -1.0987
10166TIP3   OH254692   2.984   5.857   2.137 -0.0357  0.3452  0.0888
10166TIP3    H154693   2.974   5.865   2.043 -0.4007 -1.6254 -0.0943
10166TIP3    H254694   2.944   5.936   2.173  1.4698  1.8585 -1.4243
10167TIP3   OH254695   3.488   3.677   1.933  0.1061 -0.1006 -0.3059
10167TIP3    H154696   3.393   3.673   1.948  0.3333  0.0651  1.3619
10167TIP3    H254697   3.499   3.749   1.871 -0.8009  0.4823  0.1718
10168TIP3   OH254698   1.447   6.943   2.793  0.6694  0.6520 -0.5062
10168TIP3    H154699   1.359   6.947   2.830  1.6678 -1.5024  2.5147
10168TIP3    H254700   1.474   7.034   2.783 -0.3943  1.3975  2.5828
10169TIP3   OH254701   0.220   6.954   2.061 -0.0771 -0.7765  0.2522
10169TIP3    H154702   0.252   6.983   1.975  0.6804 -1.3274  0.3362
10169TIP3    H254703   0.153   6.889   2.042 -0.0797 -0.7212  0.0749
10170TIP3   OH254704   0.720   5.327   1.812  0.0873 -0.3267  0.1913
10170TIP3    H154705   0.667   5.294   1.740 -3.8921  1.1952  2.1323
10170TIP3    H254706   0.709   5.263   1.882 -0.1305  0.5358  0.9763
10171TIP3   OH254707   3.969   5.993   1.576 -0.3016  0.0814 -0.1221
10171TIP3    H154708   3.932   5.943   1.649 -1.4600  0.2305 -0.5887
10171TIP3    H254709   3.943   5.945   1.498  0.2262  0.3767 -0.4909
10172TIP3   OH254710   5.982   1.103   1.926 -0.5355 -0.4099 -0.0350
10172TIP3    H154711   6.063   1.116   1.975 -0.3552 -2.2684  0.2313
10172TIP3    H254712   6.002   1.136   1.838  0.6839 -1.2148 -0.0962
10173TIP3   OH254713   5.376   6.852   2.062 -0.9748  0.0118 -0.0991
10173TIP3    H154714   5.378   6.876   2.155 -0.7235  0.3419 -0.1859
10173TIP3    H254715   5.308   6.908   2.024  0.9547  2.1273 -0.6953
10174TIP3   OH254716   5.686   6.914   1.261 -0.0744 -0.0385  0.0251
10174TIP3    H154717   5.758   6.876   1.311  1.9445  1.6207 -1.4283
10174TIP3    H254718   5.678   6.858   1.184 -1.9946 -1.5589  1.2287
10175TIP3   OH254719   1.378   5.872   2.004  0.3818  0.2097  0.0776
10175TIP3    H154720   1.345   5.833   1.924  1.5269  0.5966 -0.6106
10175TIP3    H254721   1.461   5.827   2.020  0.9178  1.2109  0.1763
10176TIP3   OH254722   5.131   2.534   1.344  0.3498  0.0872  0.2872
10176TIP3    H154723   5.044   2.542   1.305  0.4915 -0.1206 -0.0751
10176TIP3    H254724   5.191   2.570   1.278  0.5135  0.5082  0.6564
10177TIP3   OH254725   1.867   5.917   1.075  0.7767 -0.1646  0.2174
10177TIP3    H154726   1.926   5.856   1.031  0.1449 -0.6664  0.0467
10177TIP3    H254727   1.901   5.924   1.164  3.8986  3.1983 -1.0166
10178TIP3   OH254728   3.797   7.189   2.881 -0.5933 -0.2726  0.1880
10178TIP3    H154729   3.725   7.236   2.838 -0.4555 -0.5361 -0.3280
10178TIP3    H254730   3.792   7.100   2.846 -0.1587 -0.3492  0.3233
10179TIP3   OH254731   6.703   0.027   3.301 -0.4068  0.0265 -0.1190
10179TIP3    H154732   6.688  -0.021   3.220 -1.9236  1.1740 -0.5630
10179TIP3    H254733   6.643  -0.014   3.364  0.7290 -0.8274  0.4387
10180TIP3   OH254734   3.573   7.596   1.197 -0.3846  0.6562 -0.3376
10180TIP3    H154735   3.486   7.633   1.187 -1.3922 -1.3987  0.1687
10180TIP3    H254736   3.578   7.570   1.289  1.5158  2.3938  0.1237
10181TIP3   OH254737   0.101   2.588   1.345  0.9180  0.4525  0.1497
10181TIP3    H154738   0.040   2.662   1.345  0.2600 -0.0772  0.5335
10181TIP3    H254739   0.146   2.595   1.430 -0.2675 -0.4701  0.8885
10182TIP3   OH254740   6.480   1.148   1.473 -0.6108  0.1268 -0.0455
10182TIP3    H154741   6.544   1.217   1.455 -0.6745  0.2582  0.2158
10182TIP3    H254742   6.477   1.143   1.569 -0.3670 -0.4648 -0.0639
10183TIP3   OH254743   5.225   0.145   1.217 -0.0076  0.0022 -0.1607
10183TIP3    H154744   5.319   0.138   1.201 -0.0100  0.6859 -0.4847
10183TIP3    H254745   5.209   0.238   1.229 -0.5448 -0.1697  0.5292
10184TIP3   OH254746   4.971   2.287   1.648 -0.5995  0.0747  0.0407
10184TIP3    H154747   4.900   2.259   1.590  0.1466 -1.5856 -0.1111
10184TIP3    H254748   4.958   2.382   1.657 -0.4829  0.5022 -3.1770
10185TIP3   OH254749   1.754   7.371   0.891 -0.5382  0.1840  0.2390
10185TIP3    H154750   1.659   7.378   0.896 -0.7000 -0.0989 -1.6903
10185TIP3    H254751   1.770   7.294   0.836  0.8017  0.4117  0.2664
10186TIP3   OH254752   5.459   6.150   1.037  0.6157  1.0656 -0.3280
10186TIP3    H154753   5.545   6.193   1.027  1.4804 -0.3472  0.6776
10186TIP3    H254754   5.453   6.130   1.130  0.0608 -0.5792 -0.6825
10187TIP3   OH254755   0.478   3.544   1.168 -0.4186 -0.5689  0.1309
10187TIP3    H154756   0.562   3.513   1.135 -0.1615 -0.1576  0.3943
10187TIP3    H254757   0.420   3.469   1.159  0.0203 -0.9101  0.1140
10188TIP3   OH254758   6.120   1.830   1.440  0.7999  0.0373  0.0509
10188TIP3    H154759   6.124   1.747   1.392 -0.6345 -0.2757  0.4186
10188TIP3    H254760   6.206   1.838   1.481  0.7744 -1.5886  0.5029
10189TIP3   OH254761   5.001   0.991   0.936  0.4342  0.3047 -0.1217
10189TIP3    H154762   5.032   0.914   0.982 -0.6413 -0.4656 -0.6396
10189TIP3    H254763   5.054   0.994   0.856  0.3595 -0.0188 -0.1868
10190TIP3   OH254764   0.961   1.361   2.259 -0.0156  0.4008  0.1350
10190TIP3    H154765   0.988   1.411   2.335  0.4604 -0.5034  0.5763
10190TIP3    H254766   1.035   1.365   2.199 -0.2145  0.7344 -0.0891
10191TIP3   OH254767   6.153   2.850   1.847  0.6844  0.0422  0.0400
10191TIP3    H154768   6.178   2.881   1.760  0.1460  0.0417 -0.1185
10191TIP3    H254769   6.114   2.926   1.890  2.1223  0.3935  0.7607
10192TIP3   OH254770   1.233   1.586   1.811  0.0177 -0.2675 -0.0583
10192TIP3    H154771   1.190   1.526   1.750 -0.7341  0.2410 -0.0512
10192TIP3    H254772   1.232   1.540   1.895  2.0675 -1.4478 -0.6063
10193TIP3   OH254773   1.371   4.567   1.296 -0.1648  0.2183 -0.0079
10193TIP3    H154774   1.428   4.644   1.303  0.1384  0.2055 -1.9227
10193TIP3    H254775   1.407   4.505   1.359  0.6789  0.9801  0.2787
10194TIP3   OH254776   7.332   7.274   1.591  0.7509  0.2926  0.0229
10194TIP3    H154777   7.372   7.265   1.505  0.9053  1.2380 -0.0191
10194TIP3    H254778   7.256   7.216   1.588 -0.2741  1.6058 -1.4003
10195TIP3   OH254779   5.225   4.537   0.804  0.5231 -0.0726 -0.1465
10195TIP3    H154780   5.207   4.499   0.890  0.6790 -0.0082 -0.0854
10195TIP3    H254781   5.244   4.629   0.823 -0.8000  0.2700 -0.3824
10196TIP3   OH254782   0.164   2.825   0.895 -0.0606 -0.3299  0.2283
10196TIP3    H154783   0.165   2.730   0.878  1.5885 -0.1214 -1.0576
10196TIP3    H254784   0.121   2.862   0.818  0.8634  0.0664 -0.1170
10197TIP3   OH254785   5.093   6.851   0.614 -0.0108  0.6468  0.1877
10197TIP3    H154786   5.164   6.881   0.670 -0.6786  1.0204  0.8576
10197TIP3    H254787   5.130   6.778   0.565  0.6588  0.4494  0.9646
10198TIP3   OH254788   6.252   5.365   2.047 -0.0372 -0.0526 -0.6192
10198TIP3    H154789   6.237   5.424   1.973 -2.5534  1.1836  0.7484
10198TIP3    H254790   6.239   5.278   2.011 -1.4634  0.5338 -1.6189
10199TIP3   OH254791   2.467   1.810   2.279  0.3941 -0.2818 -0.7571
10199TIP3    H154792   2.411   1.862   2.221 -1.7667 -0.8043  0.7288
10199TIP3    H254793   2.493   1.871   2.349  1.6497 -0.0735 -1.3745
10200TIP3   OH254794   1.560   0.727   1.668 -0.1360  0.5228  0.3911
10200TIP3    H154795   1.615   0.802   1.644 -2.1732  1.0835 -3.1796
10200TIP3    H254796   1.491   0.765   1.722  0.8695  0.4604  1.7808
10201TIP3   OH254797   0.400   2.385   3.060 -0.0505  0.3227  0.0381
10201TIP3    H154798   0.404   2.468   3.011 -2.9970 -1.2390 -3.2844
10201TIP3    H254799   0.449   2.323   3.007 -0.9857 -0.8716  0.5282
10202TIP3   OH254800   2.810   1.293   0.842 -0.1553  0.1541  0.2234
10202TIP3    H154801   2.773   1.294   0.930 -0.6977 -1.7066  0.0741
10202TIP3    H254802   2.744   1.247   0.790  0.1837  1.1736 -1.1520
10203TIP3   OH254803   6.721   2.429   2.104 -0.0394 -0.1665  0.0371
10203TIP3    H154804   6.806   2.384   2.113  2.1490  3.3901 -0.8561
10203TIP3    H254805   6.698   2.454   2.194 -0.6775 -1.8903  0.3919
10204TIP3   OH254806   0.513   5.967   0.494  0.0585 -0.2910  0.7310
10204TIP3    H154807   0.578   5.977   0.564 -0.7075  0.3461  1.3824
10204TIP3    H254808   0.486   5.875   0.498  2.4754 -1.1484 -0.9915
10205TIP3   OH254809   4.545   4.159   0.798 -0.6029  0.5603  0.2433
10205TIP3    H154810   4.475   4.136   0.859 -0.4297  0.9401  0.5886
10205TIP3    H254811   4.527   4.106   0.720 -1.1104  0.4450  0.4347
10206TIP3   OH254812   1.732   6.919   1.733 -0.1754  0.5138 -0.3505
10206TIP3    H154813   1.819   6.927   1.774 -0.7071  0.2683  0.8591
10206TIP3    H254814   1.675   6.889   1.804 -0.8820 -1.1305 -1.5579
10207TIP3   OH254815   2.544   4.061   2.909 -0.3710  0.1971  1.3740
10207TIP3    H154816   2.467   4.014   2.880 -0.5946  0.2819  1.8247
10207TIP3    H254817   2.586   4.003   2.973  0.5051 -0.2955  0.3813
10208TIP3   OH254818   1.716   3.187   1.819 -0.3323  0.2269  0.2662
10208TIP3    H154819   1.738   3.094   1.811 -1.1192  0.0974 -0.5281
10208TIP3    H254820   1.654   3.190   1.892 -2.5690 -0.3200 -1.4977
10209TIP3   OH254821   0.278   1.732   0.711 -0.4943  0.2620  0.7564
10209TIP3    H154822   0.214   1.746   0.781 -0.3273  1.1649  0.7441
10209TIP3    H254823   0.249   1.652   0.668 -1.9414  0.9383  0.4074
10210TIP3   OH254824   4.896   7.099   1.305  0.1592  0.6567 -0.0985
10210TIP3    H154825   4.910   7.191   1.281  1.5519  0.0437 -1.8368
10210TIP3    H254826   4.855   7.060   1.228 -1.0276 -0.0865  0.8594
10211TIP3   OH254827   2.704   3.588   0.746 -0.0542 -0.2057  0.6257
10211TIP3    H154828   2.649   3.515   0.775 -0.4906  0.2037  0.8496
10211TIP3    H254829   2.642   3.654   0.716  0.2969  0.4449  1.3107
10212TIP3   OH254830   0.582   1.238   0.551 -0.4161 -0.6165 -0.1081
10212TIP3    H154831   0.640   1.302   0.592 -0.8881  1.1683 -2.0978
10212TIP3    H254832   0.508   1.289   0.518 -0.6040 -2.0743 -2.1473
10213TIP3   OH254833   4.334   0.555   2.639 -0.0103 -0.0294  0.1780
10213TIP3    H154834   4.322   0.645   2.609  1.8231 -0.0161 -0.7031
10213TIP3    H254835   4.340   0.562   2.734 -1.7317  0.4987  0.2838
10214TIP3   OH254836   3.210   1.204   2.252  0.3722  0.0326 -0.1620
10214TIP3    H154837   3.263   1.279   2.280 -0.0054 -0.6796  2.7484
10214TIP3    H254838   3.260   1.128   2.281 -2.6804 -0.6678  4.0744
10215TIP3   OH254839   2.316   1.634   2.965  0.2864 -0.6672 -0.8482
10215TIP3    H154840   2.360   1.576   2.903 -0.1697 -3.4363  1.2656
10215TIP3    H254841   2.348   1.607   3.051 -2.7250 -0.3191  0.4971
10216TIP3   OH254842   0.686   7.067   1.848  0.2003  0.2581  0.0923
10216TIP3    H154843   0.630   7.142   1.869  1.5241  1.7447 -1.3426
10216TIP3    H254844   0.634   6.991   1.873 -0.6462  1.6158  3.0339
10217TIP3   OH254845   7.005   1.126   0.548  0.0953  0.5910 -0.3868
10217TIP3    H154846   7.059   1.125   0.469  0.5931 -1.5146 -0.0674
10217TIP3    H254847   7.046   1.062   0.606 -0.0224  2.3502  1.7742
10218TIP3   OH254848   1.635   7.301   2.994  0.5109 -0.1195  0.2276
10218TIP3    H154849   1.711   7.359   2.984 -0.3842  0.9474 -0.5902
10218TIP3    H254850   1.588   7.337   3.069  1.3829 -1.4875  1.5011
10219TIP3   OH254851   4.804   6.539   1.888  0.4173  0.0678  0.8039
10219TIP3    H154852   4.720   6.566   1.851  1.3663  0.8446 -0.9350
10219TIP3    H254853   4.800   6.443   1.889  0.2519 -0.0053 -1.2532
10220TIP3   OH254854   0.006   3.443   1.315 -0.5735 -0.0043 -0.0240
10220TIP3    H154855  -0.006   3.461   1.408 -1.0889 -1.5944  0.2614
10220TIP3    H254856   0.024   3.349   1.312  2.3216  0.5033 -1.3109
10221TIP3   OH254857   6.871   7.343   1.922  0.0978 -0.0545 -0.6000
10221TIP3    H154858   6.914   7.341   1.836  0.5741 -0.6567 -0.3561
10221TIP3    H254859   6.888   7.256   1.959  0.3419  0.3788  0.3241
10222TIP3   OH254860   4.324   2.796   2.620  0.8833  0.7325  0.1986
10222TIP3    H154861   4.413   2.797   2.655 -0.0327 -1.5066  2.9629
10222TIP3    H254862   4.335   2.789   2.525  3.7534 -1.8624  0.5751
10223TIP3   OH254863   5.331   1.648   1.904 -0.5045  0.4924 -0.3271
10223TIP3    H154864   5.328   1.681   1.994 -0.5740  1.9487 -0.8325
10223TIP3    H254865   5.239   1.633   1.882 -0.5873  1.1885 -0.4997
10224TIP3   OH254866   6.849   4.198   1.467 -0.1285  0.5679 -0.2674
10224TIP3    H154867   6.930   4.202   1.518 -1.3271 -1.0820  1.9408
10224TIP3    H254868   6.877   4.173   1.379  1.6607 -2.2574  0.9539
10225TIP3   OH254869   1.377   0.229   0.518  0.1362 -0.1673 -0.1783
10225TIP3    H154870   1.443   0.177   0.564  0.1103 -0.6104 -0.6305
10225TIP3    H254871   1.368   0.308   0.570  1.9800  0.4935 -0.7740
10226TIP3   OH254872   3.762   3.191   1.060 -0.2583 -0.5264  0.5196
10226TIP3    H154873   3.842   3.242   1.070  1.0911 -2.1809 -1.1856
10226TIP3    H254874   3.708   3.243   1.000  0.1816 -0.1450  0.4496
10227TIP3   OH254875   6.140   6.222   1.956  0.6817 -0.5148 -0.3537
10227TIP3    H154876   6.081   6.193   2.026  0.0187  0.5145 -0.4677
10227TIP3    H254877   6.141   6.149   1.894 -0.1268 -0.7365 -0.1240
10228TIP3   OH254878   2.749   6.545   1.942 -0.3068 -0.6418  0.1048
10228TIP3    H154879   2.735   6.566   1.850 -1.6550  1.8223  0.7959
10228TIP3    H254880   2.807   6.614   1.974 -0.6344 -0.9038  1.3141
10229TIP3   OH254881   4.696   2.756   2.307 -0.3300 -1.1933  0.7612
10229TIP3    H154882   4.765   2.723   2.365  1.2266 -0.4590 -0.5810
10229TIP3    H254883   4.696   2.695   2.234  0.7584  0.2213 -0.4893
10230TIP3   OH254884   1.965   5.858   1.531 -0.2914 -0.5368 -0.1910
10230TIP3    H154885   2.009   5.776   1.551 -1.9255 -1.2407  0.7362
10230TIP3    H254886   1.966   5.907   1.614  2.0590  1.1281 -1.1079
10231TIP3   OH254887   3.602   4.877   1.675 -0.5598  0.2406 -0.1287
10231TIP3    H154888   3.579   4.934   1.749  2.0178  2.0078 -0.5675
10231TIP3    H254889   3.674   4.922   1.631 -0.4740 -1.8888 -2.3977
10232TIP3   OH254890   5.268   7.550   2.150  0.6262  0.8006  0.0217
10232TIP3    H154891   5.283   7.466   2.194  0.5908  0.8386  0.1072
10232TIP3    H254892   5.351   7.569   2.106  1.1192  1.4018  1.1570
10233TIP3   OH254893   1.391   6.686   3.120  0.0195  0.2214  0.5356
10233TIP3    H154894   1.325   6.637   3.071  0.4127 -0.0528  0.2681
10233TIP3    H254895   1.450   6.720   3.052 -0.6403  1.6827  0.6507
10234TIP3   OH254896   6.926   3.479   2.085 -0.0210  0.1188  0.0971
10234TIP3    H154897   6.995   3.426   2.126 -2.0239 -1.4932  1.6061
10234TIP3    H254898   6.891   3.422   2.016 -0.1718  0.7397 -0.3451
10235TIP3   OH254899   6.860   4.963   0.752  0.2187 -0.2046  0.3825
10235TIP3    H154900   6.864   5.051   0.789  0.6830  1.1940 -2.6168
10235TIP3    H254901   6.789   4.919   0.799 -1.3959  2.4826  0.6652
10236TIP3   OH254902   3.868   2.831   2.004 -0.0893  0.2170  0.3587
10236TIP3    H154903   3.792   2.874   2.043 -0.2426 -0.3757  0.7134
10236TIP3    H254904   3.936   2.836   2.071 -0.0367  0.1052  0.3137
10237TIP3   OH254905   2.476   5.033   2.458  0.2983  0.4313  0.1243
10237TIP3    H154906   2.473   4.975   2.534 -0.3046  0.0861 -0.1595
10237TIP3    H254907   2.539   5.101   2.483  2.6611 -1.4680 -0.3490
10238TIP3   OH254908   6.731   3.669   2.158  0.1818 -0.0494  0.4266
10238TIP3    H154909   6.746   3.679   2.252 -0.7048 -1.2892  0.7246
10238TIP3    H254910   6.799   3.609   2.129  1.0061  1.0272  0.0831
10239TIP3   OH254911   5.455   2.440   1.055 -0.6448 -0.7180  0.2597
10239TIP3    H154912   5.459   2.386   1.134 -1.5223 -2.7209 -0.9646
10239TIP3    H254913   5.511   2.394   0.992 -1.6164 -0.3747 -0.9053
10240TIP3   OH254914   5.305   2.627   2.258  0.4123 -0.2084  0.1427
10240TIP3    H154915   5.322   2.560   2.324 -0.2103 -0.7164 -0.1902
10240TIP3    H254916   5.327   2.710   2.300  3.4426 -0.7433 -0.1785
10241TIP3   OH254917   1.185   4.261   1.866  0.0335  0.1593 -0.3855
10241TIP3    H154918   1.190   4.263   1.961  0.5343  0.5601 -0.4142
10241TIP3    H254919   1.100   4.221   1.847  1.1021 -2.6299  0.1988
10242TIP3   OH254920   6.371   7.328   1.291  0.2582 -0.2087  0.4506
10242TIP3    H154921   6.388   7.241   1.327  1.7539  0.4739  1.4845
10242TIP3    H254922   6.457   7.369   1.285 -0.4725  1.4211  0.5789
10243TIP3   OH254923   6.493   1.075   0.404  0.3166  0.1983 -0.2766
10243TIP3    H154924   6.462   1.042   0.489 -3.0334  0.9579 -1.0455
10243TIP3    H254925   6.538   1.156   0.426 -0.8688  0.6063  0.8069
10244TIP3   OH254926   6.450   4.724   0.817 -0.1765  0.2615 -0.2026
10244TIP3    H154927   6.519   4.658   0.822 -0.5389 -0.3120 -1.9217
10244TIP3    H254928   6.372   4.674   0.793  0.0518  1.4825 -4.1947
10245TIP3   OH254929   6.448   1.352   3.039 -0.1339  0.0239  0.1593
10245TIP3    H154930   6.466   1.425   2.980  2.6734 -0.8415 -0.2186
10245TIP3    H254931   6.472   1.385   3.126 -3.1685  0.9183  0.7691
10246TIP3   OH254932   4.406   2.476   1.213 -0.2617  0.1689 -0.0415
10246TIP3    H154933   4.407   2.508   1.303  0.7363  2.9008 -0.9004
10246TIP3    H254934   4.320   2.500   1.180 -0.0027  0.7538 -0.2997
10247TIP3   OH254935   1.960   6.901   3.076 -0.3771  0.3841 -0.0442
10247TIP3    H154936   2.016   6.936   3.145 -1.5037  1.3573  0.4285
10247TIP3    H254937   1.996   6.815   3.056  0.0425  0.1280  1.6800
10248TIP3   OH254938   6.379   5.908   2.042  0.7216 -0.0614 -0.1222
10248TIP3    H154939   6.354   5.846   2.111  0.8919 -0.2050 -0.1906
10248TIP3    H254940   6.297   5.929   1.998 -0.3386  3.6521  3.0482
10249TIP3   OH254941   6.038   1.662   2.375 -0.3400 -0.5980  0.3719
10249TIP3    H154942   6.126   1.648   2.340 -0.6958 -0.1400 -0.7538
10249TIP3    H254943   5.979   1.631   2.306 -1.0651 -0.5460  0.9529
10250TIP3   OH254944   0.773   2.362   2.147  0.2452 -0.6418  0.3696
10250TIP3    H154945   0.831   2.410   2.206  0.8901 -0.5762 -0.3041
10250TIP3    H254946   0.822   2.284   2.122  0.0878 -0.5309 -0.2951
10251TIP3   OH254947   6.378   2.927   1.020 -0.7268  0.3454 -0.1621
10251TIP3    H154948   6.300   2.979   1.003 -1.7467 -1.2235 -0.5040
10251TIP3    H254949   6.358   2.878   1.100 -0.1693 -0.2010 -0.3474
10252TIP3   OH254950   5.471   4.441   0.687 -0.5094 -0.0310  0.6124
10252TIP3    H154951   5.393   4.466   0.738 -1.4061 -0.7898 -0.3339
10252TIP3    H254952   5.478   4.347   0.700 -0.7167 -0.2284 -0.5971
10253TIP3   OH254953   6.978   5.783   1.873 -0.3017 -0.3246  0.4037
10253TIP3    H154954   6.919   5.711   1.850 -1.9156  1.0673  0.0323
10253TIP3    H254955   7.051   5.773   1.811 -2.0202  0.1903 -1.8604
10254TIP3   OH254956   2.873   3.152   0.632 -0.2909  0.1095  0.2277
10254TIP3    H154957   2.936   3.099   0.681 -1.1792 -1.1577  0.0567
10254TIP3    H254958   2.789   3.107   0.645 -0.9701  1.1278 -0.4670
10255TIP3   OH254959   2.234   0.821   2.051 -0.3875 -0.1425  0.0254
10255TIP3    H154960   2.188   0.871   2.119 -1.3876 -0.3385 -0.4858
10255TIP3    H254961   2.165   0.768   2.010  0.2856 -0.3831 -0.8219
10256TIP3   OH254962   3.552   2.984   2.370  0.3012 -0.5311  0.0152
10256TIP3    H154963   3.577   2.970   2.461 -0.3793  0.6977  0.4013
10256TIP3    H254964   3.458   3.001   2.372 -0.1183 -2.3500 -1.1376
10257TIP3   OH254965   1.029   2.721   2.574  0.0964 -0.1147  0.2093
10257TIP3    H154966   1.103   2.735   2.633 -0.6817 -0.8457  1.3924
10257TIP3    H254967   1.004   2.809   2.545  1.3118  0.1482 -0.0812
10258TIP3   OH254968   5.891   3.879   1.218  0.0796 -0.0252  0.8210
10258TIP3    H154969   5.926   3.863   1.130  1.0126  0.7570  1.0414
10258TIP3    H254970   5.966   3.875   1.276 -0.7515 -2.1670  1.8392
10259TIP3   OH254971   2.125   3.048   1.971 -0.4663 -0.0713 -0.6691
10259TIP3    H154972   2.208   3.049   2.019 -1.4431  2.4605  1.1525
10259TIP3    H254973   2.152   3.049   1.879  1.5025 -0.6715 -0.1611
10260TIP3   OH254974   1.169   7.149   0.955  0.2795 -0.5071  0.6035
10260TIP3    H154975   1.111   7.215   0.994  1.2385  0.4411  0.4518
10260TIP3    H254976   1.251   7.157   1.003  1.7777  1.2206 -1.9812
10261TIP3   OH254977   0.778   3.854   2.044  0.6142  0.3428 -0.5073
10261TIP3    H154978   0.722   3.903   1.983  0.2528 -0.6575 -0.9889
10261TIP3    H254979   0.757   3.891   2.129  0.5568  1.2298 -0.8889
10262TIP3   OH254980   7.304   2.320   0.883  0.4265  0.3419  0.3097
10262TIP3    H154981   7.252   2.305   0.804 -1.2705  2.1596  0.9910
10262TIP3    H254982   7.363   2.245   0.888  0.3533 -0.0121 -2.4645
10263TIP3   OH254983   7.078   5.810   0.529 -0.4790 -0.1854  0.4936
10263TIP3    H154984   7.107   5.747   0.463  0.2092  1.1068 -0.4857
10263TIP3    H254985   6.999   5.771   0.566 -1.4484 -0.5454 -1.7822
10264TIP3   OH254986   3.686   3.791   0.804 -0.7552  0.2343 -0.1901
10264TIP3    H154987   3.750   3.860   0.823 -1.6886  0.5426  2.2780
10264TIP3    H254988   3.609   3.839   0.771 -0.3064  0.0164 -1.6118
10265TIP3   OH254989   6.705   6.864   2.923 -0.4782 -0.4735  0.5500
10265TIP3    H154990   6.776   6.800   2.932  2.2231  1.4357 -3.5178
10265TIP3    H254991   6.625   6.814   2.936  1.4625 -4.3272 -0.6624
10266TIP3   OH254992   5.930   5.462   1.851  0.0761  0.4545 -0.1673
10266TIP3    H154993   5.911   5.514   1.773 -0.1542 -0.8187 -0.9960
10266TIP3    H254994   6.013   5.418   1.831 -0.0783 -0.0204  0.2187
10267TIP3   OH254995   0.786   1.421   0.644  0.2542 -0.2166  0.4900
10267TIP3    H154996   0.836   1.501   0.629  1.7131 -1.0934  0.4712
10267TIP3    H254997   0.780   1.414   0.740 -1.3895  0.7838  0.4978
10268TIP3   OH254998   7.555   4.869   0.591 -0.1515 -0.0478  0.1013
10268TIP3    H154999   7.592   4.891   0.505  1.5807 -0.9474  0.5676
10268TIP3    H255000   7.603   4.791   0.618  0.6263  1.2158  2.6582
10269TIP3   OH255001   0.720   7.081   2.460 -0.1596  0.1268  0.9641
10269TIP3    H155002   0.794   7.138   2.479  2.2494 -2.4510 -0.0190
10269TIP3    H255003   0.711   7.026   2.537 -0.9428  0.3118  1.0084
10270TIP3   OH255004   7.063   3.254   2.174  0.4712 -0.5212 -0.5612
10270TIP3    H155005   6.979   3.229   2.212  0.5631 -0.5185 -0.3526
10270TIP3    H255006   7.126   3.194   2.214  0.8512  0.6792  0.7328
10271TIP3   OH255007   1.117   2.708   1.210  0.1740  0.1124 -0.5334
10271TIP3    H155008   1.123   2.711   1.305 -2.8108 -0.1379 -0.2569
10271TIP3    H255009   1.154   2.622   1.186  0.6940  0.0678  0.4099
10272TIP3   OH255010   5.941   2.694   3.043 -0.0997  0.0818 -0.0022
10272TIP3    H155011   5.901   2.620   3.089 -0.3773  0.4816  0.4081
10272TIP3    H255012   6.014   2.656   2.994 -0.7206 -0.5876 -0.4154
10273TIP3   OH255013   2.192   2.498   0.760  0.5240  0.0427 -0.0014
10273TIP3    H155014   2.102   2.528   0.777  0.6834  0.2995  0.3989
10273TIP3    H255015   2.191   2.475   0.667  0.8106  2.8811 -0.8198
10274TIP3   OH255016   4.357   3.463   0.434 -0.2951 -0.0127 -0.1471
10274TIP3    H155017   4.262   3.451   0.441 -0.2473 -1.1849 -1.1664
10274TIP3    H255018   4.369   3.558   0.436 -1.3149  0.1271  1.7663
10275TIP3   OH255019   0.341   5.738   0.950  0.2439  0.3064 -0.8747
10275TIP3    H155020   0.310   5.806   1.009 -0.6573 -1.3170  0.6257
10275TIP3    H255021   0.434   5.758   0.937 -0.1690  2.2280 -1.1330
10276TIP3   OH255022   5.836   5.981   1.622  0.3721  0.1902  0.3431
10276TIP3    H155023   5.845   5.987   1.527 -1.4274  2.1817  0.2067
10276TIP3    H255024   5.751   5.940   1.635  0.7522 -0.3735  1.1143
10277TIP3   OH255025   3.171   7.329   1.534 -0.2768  0.1044  0.3603
10277TIP3    H155026   3.151   7.414   1.572 -0.6561  0.5306 -0.7527
10277TIP3    H255027   3.247   7.297   1.583 -1.2204  0.2596  1.9951
10278TIP3   OH255028   0.219   3.785   1.895 -0.2579  0.0518 -0.5648
10278TIP3    H155029   0.286   3.772   1.828 -0.3952 -1.3240 -0.4598
10278TIP3    H255030   0.181   3.698   1.909 -1.0788  0.5412  0.4140
10279TIP3   OH255031   5.504   5.478   2.889 -0.2054 -0.0949  0.2778
10279TIP3    H155032   5.507   5.425   2.809  1.1036 -0.0727  0.2852
10279TIP3    H255033   5.593   5.514   2.897 -0.5254  0.5022  1.3428
10280TIP3   OH255034   0.067   3.954   0.686 -0.5854  0.0419  0.6097
10280TIP3    H155035   0.043   3.916   0.602  1.2739 -0.8112  0.4130
10280TIP3    H255036   0.096   3.879   0.739 -1.6829  0.5661  2.0015
10281TIP3   OH255037   1.000   2.208   2.137  0.0840  0.1003 -0.0434
10281TIP3    H155038   1.025   2.138   2.198  1.6369  1.2347  0.6828
10281TIP3    H255039   1.070   2.273   2.145 -1.5135  1.9401 -0.4037
10282TIP3   OH255040   7.099   3.860   2.552  0.1584  0.2320 -0.4671
10282TIP3    H155041   7.184   3.850   2.595 -1.2011 -0.5797  2.2716
10282TIP3    H255042   7.088   3.780   2.501  0.2370 -0.5796  0.7598
10283TIP3   OH255043   7.655   3.586   0.618 -0.2974 -0.3911 -0.1273
10283TIP3    H155044   7.699   3.526   0.680  2.0603  0.6579 -0.6703
10283TIP3    H255045   7.594   3.635   0.672  0.1259 -1.0220  0.9639
10284TIP3   OH255046   0.976   0.085   1.325  0.1718 -0.1576  0.4564
10284TIP3    H155047   1.008   0.160   1.374  0.1771 -1.6945  3.0237
10284TIP3    H255048   0.880   0.089   1.333  0.0924  0.2139 -0.4933
10285TIP3   OH255049   7.378   1.063   2.300  0.3614  0.1201 -0.0784
10285TIP3    H155050   7.294   1.018   2.303  0.8001 -0.7656 -0.6283
10285TIP3    H255051   7.417   1.036   2.217  0.3302  2.1338 -0.8027
10286TIP3   OH255052   5.382   7.137   2.809 -0.0745 -0.1439 -0.4160
10286TIP3    H155053   5.335   7.219   2.826  2.0370  1.2606 -0.9029
10286TIP3    H255054   5.327   7.069   2.846 -1.3691  1.6160  1.0379
10287TIP3   OH255055   7.319   5.507   2.786 -0.6334 -1.2716  0.6487
10287TIP3    H155056   7.305   5.538   2.876 -0.7870 -0.7603  0.4479
10287TIP3    H255057   7.233   5.481   2.756 -1.1721  1.4586 -0.4288
10288TIP3   OH255058   5.099   6.304   3.194 -0.5079  0.0993 -0.2989
10288TIP3    H155059   5.091   6.389   3.150 -2.7931  0.0919 -0.0092
10288TIP3    H255060   5.070   6.321   3.284  1.2400 -0.5310  0.4284
10289TIP3   OH255061   3.148   1.740   1.835 -0.0231  0.3694 -0.0165
10289TIP3    H155062   3.176   1.720   1.924 -1.6341 -0.7105  0.2938
10289TIP3    H255063   3.227   1.733   1.782  0.2387 -3.4398  0.6397
10290TIP3   OH255064   0.041   1.535   1.951  0.4390  0.0948 -0.1141
10290TIP3    H155065   0.074   1.464   1.897 -1.1200 -1.2167  0.5666
10290TIP3    H255066   0.083   1.522   2.036  0.7908  0.4946 -0.2259
10291TIP3   OH255067   5.256   6.122   3.362 -0.3762  0.2895  0.2985
10291TIP3    H155068   5.344   6.160   3.374 -0.4572  0.2551  1.0358
10291TIP3    H255069   5.224   6.163   3.281  1.0706 -1.1582 -1.0979
10292TIP3   OH255070   3.204   2.998   1.976  0.3621  0.3875 -0.1016
10292TIP3    H155071   3.113   3.007   1.948 -0.5781  0.1053  2.5374
10292TIP3    H255072   3.235   3.088   1.986  0.4991  0.4850 -1.3157
10293TIP3   OH255073   4.273   1.299   3.141  0.7112  0.2557  0.0736
10293TIP3    H155074   4.344   1.356   3.112  1.9558 -0.3499  1.8229
10293TIP3    H255075   4.202   1.359   3.164  1.3190  0.9803  0.0915
10294TIP3   OH255076   7.466   5.103   1.198  0.2355 -1.1155 -0.3723
10294TIP3    H155077   7.438   5.156   1.124 -1.8873 -0.3335  0.8841
10294TIP3    H255078   7.530   5.042   1.162  0.8881  0.6347 -2.3804
10295TIP3   OH255079   4.806   3.075   2.886 -0.5541  0.6133  0.1148
10295TIP3    H155080   4.760   2.992   2.895  0.3305  0.2793  2.2242
10295TIP3    H255081   4.757   3.136   2.941 -1.6763  1.7613 -2.0567
10296TIP3   OH255082   0.830   3.150   0.666  0.2844 -0.5210 -0.0853
10296TIP3    H155083   0.843   3.062   0.630  0.8467 -0.2616 -0.5247
10296TIP3    H255084   0.735   3.165   0.658  0.3769 -0.4942 -1.4360
10297TIP3   OH255085   1.536   0.768   3.513 -1.0077  0.0297  0.3463
10297TIP3    H155086   1.476   0.800   3.445 -0.5547 -0.8717 -0.5068
10297TIP3    H255087   1.495   0.689   3.547  0.3640 -1.4871 -1.3379
10298TIP3   OH255088   3.062   3.115   1.090  0.2346 -0.0056  1.0557
10298TIP3    H155089   3.141   3.163   1.114  0.8952 -0.7013  0.3132
10298TIP3    H255090   3.002   3.182   1.058  0.9415  0.3931  0.5415
10299TIP3   OH255091   0.711   6.009   0.688  0.8855  0.3418 -0.3022
10299TIP3    H155092   0.676   6.095   0.712  0.8552  0.1795  0.2693
10299TIP3    H255093   0.771   6.027   0.615  0.4069  0.7599 -0.5973
10300TIP3   OH255094   2.716   5.196   2.527 -0.3236 -0.1901 -0.2329
10300TIP3    H155095   2.724   5.267   2.591  3.8301  0.3380 -1.0393
10300TIP3    H255096   2.721   5.240   2.442  0.1117 -1.2635 -0.7839
10301TIP3   OH255097   2.152   3.583   3.352  0.1682  0.5849 -0.8482
10301TIP3    H155098   2.098   3.557   3.278 -0.5026  0.4524 -0.3251
10301TIP3    H255099   2.228   3.525   3.349 -0.0759  0.2842 -1.1707
10302TIP3   OH255100   0.768   7.224   2.128  0.2535 -0.1125  0.0013
10302TIP3    H155101   0.746   7.316   2.140  0.8618  0.2582 -1.4663
10302TIP3    H255102   0.863   7.224   2.113  0.0243 -0.7689 -1.6674
10303TIP3   OH255103   0.499   2.014   3.185 -0.3865  0.2714  0.8124
10303TIP3    H155104   0.557   1.976   3.252  1.3500 -0.6746 -1.1098
10303TIP3    H255105   0.558   2.065   3.129 -1.8028  1.1132  0.0355
10304TIP3   OH255106   4.292   2.478   2.950 -0.1547 -0.4102  0.5335
10304TIP3    H155107   4.328   2.523   3.026 -0.5630 -0.6610  0.8781
10304TIP3    H255108   4.258   2.395   2.983  1.2114 -1.3013 -0.2254
10305TIP3   OH255109   6.770   0.385   1.455 -0.2465 -0.0084 -0.6443
10305TIP3    H155110   6.725   0.411   1.535 -1.0487 -0.4986 -0.9222
10305TIP3    H255111   6.828   0.458   1.435  3.0892 -1.4373  2.5738
10306TIP3   OH255112   1.106   4.556   2.626 -0.3623 -0.2489  0.5956
10306TIP3    H155113   1.074   4.518   2.544  1.3436  1.3523 -0.9282
10306TIP3    H255114   1.068   4.644   2.628  1.4875  0.6163  0.2133
10307TIP3   OH255115   1.485   7.449   0.837 -1.1377 -0.0781  0.2438
10307TIP3    H155116   1.451   7.378   0.782 -1.1668  0.4125 -0.3698
10307TIP3    H255117   1.447   7.431   0.923 -2.5307  0.1506 -0.3022
10308TIP3   OH255118   4.387   3.467   1.628  0.1351  0.0634  0.5248
10308TIP3    H155119   4.405   3.385   1.674  0.2116  0.3967  1.1005
10308TIP3    H255120   4.366   3.440   1.538 -1.9541 -0.7674  1.2052
10309TIP3   OH255121   4.136   0.714   1.576  0.7547 -0.3927  0.2898
10309TIP3    H155122   4.208   0.721   1.638  0.3154  0.3204  0.7310
10309TIP3    H255123   4.178   0.698   1.492  1.3293 -2.0059  0.8546
10310TIP3   OH255124   5.351   4.732   1.753  0.0817 -0.2611 -0.6157
10310TIP3    H155125   5.272   4.679   1.738 -0.3614 -0.5512  2.1769
10310TIP3    H255126   5.421   4.684   1.708 -1.1553 -0.3945 -2.5123
10311TIP3   OH255127   6.937   0.328   2.688 -0.1838 -0.3688 -0.0811
10311TIP3    H155128   6.922   0.370   2.773  1.4859 -0.9706  0.5449
10311TIP3    H255129   6.921   0.398   2.624  0.7503  0.7403  0.8429
10312TIP3   OH255130   4.393   0.785   1.084  0.4104 -0.1269 -0.1750
10312TIP3    H155131   4.484   0.773   1.109  0.1481 -0.0240  0.8908
10312TIP3    H255132   4.375   0.878   1.103 -1.0026 -0.9851  3.5549
10313TIP3   OH255133   2.104   0.816   2.508 -0.2923  0.4423  0.2237
10313TIP3    H155134   2.092   0.776   2.594 -0.9509 -0.6402 -0.3444
10313TIP3    H255135   2.021   0.802   2.463  0.0207  1.0380 -0.5726
10314TIP3   OH255136   2.567   3.338   0.746  0.1251  0.3563 -0.1802
10314TIP3    H155137   2.491   3.393   0.765  0.3736  0.9284 -0.7829
10314TIP3    H255138   2.552   3.257   0.796 -0.6987  0.6056 -0.0107
10315TIP3   OH255139   5.451   2.216   2.693 -0.1049  0.6633 -0.1248
10315TIP3    H155140   5.502   2.224   2.612 -1.7159 -0.2712 -1.2940
10315TIP3    H255141   5.363   2.247   2.669 -1.0700 -1.2375  0.7528
10316TIP3   OH255142   0.591   4.065   1.989  0.0167  0.1695 -0.0069
10316TIP3    H155143   0.517   4.105   2.034 -1.5251 -2.2990 -0.1590
10316TIP3    H255144   0.564   4.065   1.896  1.1776  1.1585 -0.3624
10317TIP3   OH255145   6.271   6.285   2.232  0.8908  0.3744 -0.0512
10317TIP3    H155146   6.195   6.233   2.261 -1.0494  2.0762 -1.7624
10317TIP3    H255147   6.315   6.229   2.168  0.1794 -0.0507 -0.1799
10318TIP3   OH255148   1.562   4.277   2.384  0.6075  0.0327  0.1218
10318TIP3    H155149   1.653   4.277   2.416  1.2964 -0.9814 -1.7171
10318TIP3    H255150   1.552   4.361   2.340  0.7142  0.0820  0.1921
10319TIP3   OH255151   4.809   2.061   0.705  0.2259 -0.2781  0.1404
10319TIP3    H155152   4.800   2.033   0.796  1.0611  1.1891  0.7028
10319TIP3    H255153   4.794   1.981   0.654 -0.2415 -1.1266  1.5536
10320TIP3   OH255154   6.700   1.277   3.331 -0.0404 -0.0990  0.3540
10320TIP3    H155155   6.663   1.191   3.350  0.9945 -0.7054 -0.2862
10320TIP3    H255156   6.791   1.271   3.360 -0.1100  0.9698  0.8254
10321TIP3   OH255157   5.199   4.898   0.712 -0.3768 -0.4479  0.0979
10321TIP3    H155158   5.147   4.912   0.791 -1.5928  1.3125 -0.9363
10321TIP3    H255159   5.273   4.958   0.721 -0.8238  0.1770 -0.3406
10322TIP3   OH255160   4.655   2.822   2.949  0.1728  0.2317  0.7991
10322TIP3    H155161   4.585   2.780   2.999  0.5019  0.4928  1.5079
10322TIP3    H255162   4.731   2.817   3.007  0.7544 -0.0795  0.0268
10323TIP3   OH255163   3.559   3.307   2.516  0.3219  0.3198 -0.2164
10323TIP3    H155164   3.570   3.262   2.600 -2.4641  0.9395  0.5969
10323TIP3    H255165   3.643   3.352   2.502  0.8854  0.2258  2.2549
10324TIP3   OH255166   3.919   0.160   2.433  0.4807  0.2115 -0.4280
10324TIP3    H155167   3.905   0.147   2.339  0.1611  2.3413 -0.7195
10324TIP3    H255168   3.859   0.230   2.457  0.5020 -0.3348  1.4125
10325TIP3   OH255169   0.127   3.464   2.474  0.0614  0.0312 -0.0778
10325TIP3    H155170   0.081   3.501   2.549  1.2669  3.5462 -0.8692
10325TIP3    H255171   0.220   3.469   2.498  0.4789  1.4690 -1.8205
10326TIP3   OH255172   4.638   6.519   2.354 -0.2475  0.1759 -0.0554
10326TIP3    H155173   4.686   6.504   2.273 -1.0719  0.9254 -0.7028
10326TIP3    H255174   4.601   6.607   2.345  0.0891  0.5023  1.3685
10327TIP3   OH255175   2.805   3.648   2.523 -0.6531  0.3486 -0.1262
10327TIP3    H155176   2.892   3.677   2.494 -0.2593 -1.9512 -1.5660
10327TIP3    H255177   2.820   3.619   2.613  0.2696 -0.5763 -0.5447
10328TIP3   OH255178   1.726   0.498   1.643  0.0966 -0.3964 -0.2536
10328TIP3    H155179   1.661   0.566   1.658 -0.1439 -0.8921  1.0488
10328TIP3    H255180   1.679   0.429   1.597 -1.0562 -1.8503  2.8454
10329TIP3   OH255181   4.230   3.719   0.504  0.4834 -0.1665  0.5643
10329TIP3    H155182   4.233   3.705   0.599  0.8883 -2.6825  0.2542
10329TIP3    H255183   4.137   3.730   0.485 -0.0119 -2.8630  0.9604
10330TIP3   OH255184   5.680   1.373   3.220 -0.2496 -0.1457 -0.1361
10330TIP3    H155185   5.594   1.401   3.253 -0.3729 -0.5825 -0.0851
10330TIP3    H255186   5.705   1.300   3.277  0.0508 -0.1680 -0.2964
10331TIP3   OH255187   3.836   1.678   3.269 -0.3013  0.0630 -0.1654
10331TIP3    H155188   3.745   1.698   3.248  0.0966  0.5007 -1.5844
10331TIP3    H255189   3.832   1.633   3.354 -1.8159  0.1343 -0.1733
10332TIP3   OH255190   6.356   2.841   1.317  0.4716 -0.2323 -0.2106
10332TIP3    H155191   6.289   2.801   1.372  2.0851 -2.2204  0.4689
10332TIP3    H255192   6.421   2.875   1.379  2.4238 -2.6882 -0.7276
10333TIP3   OH255193   3.905   1.511   1.632  0.4361  0.1566  0.1060
10333TIP3    H155194   3.841   1.517   1.561 -0.2707 -1.8015  0.4901
10333TIP3    H255195   3.909   1.599   1.669 -0.0484  0.9289 -1.6215
10334TIP3   OH255196   5.211   0.662   3.759 -0.5333 -0.0898  0.2191
10334TIP3    H155197   5.304   0.667   3.739 -0.5633  1.8960  0.4044
10334TIP3    H255198   5.207   0.642   3.852 -0.2614  0.5417  0.3716
10335TIP3   OH255199   1.108   7.540   0.868  0.4575  0.4785 -0.1090
10335TIP3    H155200   1.133   7.462   0.818 -0.0099 -0.1326  0.5922
10335TIP3    H255201   1.102   7.609   0.803  1.9435  0.1904 -0.6030
10336TIP3   OH255202   4.939   6.057   0.697  0.0886 -0.0264 -0.2147
10336TIP3    H155203   4.884   6.105   0.759  0.7529  0.9675 -0.3715
10336TIP3    H255204   4.986   5.993   0.751  1.1007  1.2168  0.4299
10337TIP3   OH255205   2.853   0.002   2.400 -0.2146  0.2131  0.7534
10337TIP3    H155206   2.907  -0.059   2.349 -2.0324 -0.9344  0.0944
10337TIP3    H255207   2.868  -0.023   2.491 -0.0053 -0.4067  0.5581
10338TIP3   OH255208   6.800   1.893   0.835 -0.0787  0.3899 -0.8569
10338TIP3    H155209   6.855   1.856   0.766  0.9878  0.8520 -0.2799
10338TIP3    H255210   6.860   1.945   0.888 -0.5997 -0.9704  1.1693
10339TIP3   OH255211   7.475   3.819   1.370  0.3341  0.0238 -0.4718
10339TIP3    H155212   7.428   3.748   1.414  0.0728  0.2107 -0.4429
10339TIP3    H255213   7.545   3.776   1.322 -0.7415 -0.4279 -1.7039
10340TIP3   OH255214   5.488   5.806   2.765 -0.2580 -0.1859  0.1681
10340TIP3    H155215   5.505   5.825   2.672  0.5311  1.7326  0.6452
10340TIP3    H255216   5.576   5.797   2.803 -0.5455  0.2808  0.9510
10341TIP3   OH255217   5.090   0.710   1.016  0.8066 -0.5875  0.2418
10341TIP3    H155218   5.103   0.742   1.106  2.3432 -1.8752  0.5213
10341TIP3    H255219   5.102   0.616   1.023  0.7216 -0.7252 -1.3066
10342TIP3   OH255220   5.945   0.516   1.253 -1.0466 -0.1777 -0.1405
10342TIP3    H155221   5.978   0.520   1.163 -0.9213  1.5234 -0.0458
10342TIP3    H255222   6.001   0.577   1.301 -0.9886 -1.2141  1.1574
10343TIP3   OH255223   5.178   3.964   1.859  0.2666  0.2058  0.4650
10343TIP3    H155224   5.177   3.953   1.954  0.0389  1.1935  0.5882
10343TIP3    H255225   5.227   4.045   1.845  2.0891 -0.9718 -0.4012
10344TIP3   OH255226   2.776   6.799   1.492  0.1174  0.9575  0.4325
10344TIP3    H155227   2.801   6.888   1.467 -0.2508  0.6481 -1.1087
10344TIP3    H255228   2.711   6.773   1.427 -0.3725 -0.1662  1.3309
10345TIP3   OH255229   5.152   6.160   1.899 -0.0743 -0.3789  0.3043
10345TIP3    H155230   5.179   6.182   1.988 -0.2303  0.0228  0.2533
10345TIP3    H255231   5.189   6.228   1.844 -0.3383 -0.3847  0.1133
10346TIP3   OH255232   6.667   1.928   3.201 -0.3544 -0.2622 -1.0600
10346TIP3    H155233   6.702   1.881   3.277 -0.4794  3.4148  1.5213
10346TIP3    H255234   6.573   1.911   3.204 -0.4526  0.3655  0.0667
10347TIP3   OH255235   4.757   4.226   3.020 -0.6741  0.1031  0.7784
10347TIP3    H155236   4.776   4.135   2.999 -1.6985 -0.0707  0.5097
10347TIP3    H255237   4.661   4.229   3.026 -0.7877  1.5431 -1.0694
10348TIP3   OH255238   7.466   3.659   0.866 -0.0465 -0.5984 -0.2060
10348TIP3    H155239   7.440   3.738   0.913  2.1755  0.0469  0.0586
10348TIP3    H255240   7.479   3.594   0.935  0.8628 -0.3566 -0.1418
10349TIP3   OH255241   1.805   5.090   2.492  0.3686 -0.0380  0.6112
10349TIP3    H155242   1.783   5.159   2.429 -0.5064 -1.0975 -0.2897
10349TIP3    H255243   1.898   5.071   2.475 -0.2487 -1.4555 -1.5902
10350TIP3   OH255244   0.874   2.942   2.578  0.4140  0.7246 -0.1273
10350TIP3    H155245   0.829   3.013   2.533  0.8232  0.1512 -1.4615
10350TIP3    H255246   0.804   2.895   2.624 -0.2851  0.2321 -1.6416
10351TIP3   OH255247   6.514   1.105   1.759 -0.1486 -0.3855  0.4686
10351TIP3    H155248   6.549   1.165   1.824  0.4328 -0.6665  0.4218
10351TIP3    H255249   6.492   1.026   1.809 -1.7660  0.1671  0.6882
10352TIP3   OH255250   3.988   4.873   2.331  0.1386  0.6022 -0.4118
10352TIP3    H155251   3.985   4.959   2.374  1.5760  0.9904 -1.0329
10352TIP3    H255252   4.078   4.844   2.343 -0.5327 -1.2697  0.5787
10353TIP3   OH255253   5.422   1.139   2.509 -0.4713 -0.3582  0.0047
10353TIP3    H155254   5.497   1.195   2.494 -2.2981  1.7127 -2.0940
10353TIP3    H255255   5.451   1.077   2.576  2.5270  1.3514  0.4341
10354TIP3   OH255256   3.539   2.605   1.046  0.0398 -0.6113 -0.7905
10354TIP3    H155257   3.595   2.678   1.021 -2.6697  1.4386 -1.2980
10354TIP3    H255258   3.450   2.635   1.027 -1.2748 -3.7357 -0.1896
10355TIP3   OH255259   6.749   0.967   1.201  0.5124  0.7360 -0.0033
10355TIP3    H155260   6.698   0.886   1.201 -1.6428  2.0038  0.9412
10355TIP3    H255261   6.761   0.988   1.109  0.4533 -0.2586 -0.2485
10356TIP3   OH255262   3.351   3.499   0.996 -0.4808 -0.7127  0.4676
10356TIP3    H155263   3.431   3.529   1.040 -0.2503 -0.8384  0.1432
10356TIP3    H255264   3.287   3.489   1.067  0.2843 -2.2436  0.9797
10357TIP3   OH255265   0.165   5.725   1.244 -0.3867 -0.1403 -0.3945
10357TIP3    H155266   0.192   5.805   1.199  0.3670  0.4840  1.0920
10357TIP3    H255267   0.070   5.733   1.254 -0.4312  0.1511 -1.0187
10358TIP3   OH255268   0.039   2.535   0.901 -0.0639  0.3388  0.1088
10358TIP3    H155269  -0.033   2.541   0.837 -0.7927  1.1665  0.9867
10358TIP3    H255270   0.002   2.486   0.974 -0.0602  1.5709  0.9685
10359TIP3   OH255271   3.834   5.729   2.190 -0.1780  0.3839 -0.2835
10359TIP3    H155272   3.875   5.660   2.242 -0.4762 -0.3781 -1.0413
10359TIP3    H255273   3.744   5.699   2.177  0.0887  0.1843 -1.8645
10360TIP3   OH255274   1.865   0.464   2.522 -0.1301  0.0054  0.3542
10360TIP3    H155275   1.865   0.414   2.604 -2.4725 -3.1089 -1.3293
10360TIP3    H255276   1.934   0.423   2.469 -2.1239 -1.7183 -1.0735
10361TIP3   OH255277   0.454   7.668   1.008 -0.3712  0.1759 -0.5188
10361TIP3    H155278   0.423   7.722   1.081  2.5059  1.0669  0.1953
10361TIP3    H255279   0.501   7.730   0.952  0.1421 -1.0448 -1.4794
10362TIP3   OH255280   5.575   6.351   1.491 -0.1973  0.0321 -0.0626
10362TIP3    H155281   5.594   6.259   1.511 -0.2353  0.0162 -0.1024
10362TIP3    H255282   5.633   6.400   1.550  0.3640 -0.0183 -0.5562
10363TIP3   OH255283   1.592   6.340   2.702 -0.5641 -0.3511 -0.6461
10363TIP3    H155284   1.626   6.416   2.655 -2.0957 -1.0469 -3.0137
10363TIP3    H255285   1.660   6.273   2.693  1.5125  1.0375  2.7816
10364TIP3   OH255286   6.726   2.584   1.462  0.1261 -0.0630  0.1577
10364TIP3    H155287   6.642   2.629   1.470  0.5570  0.6002  1.1949
10364TIP3    H255288   6.712   2.518   1.395 -1.2389  0.0067  0.3508
10365TIP3   OH255289   6.064   7.016   3.603 -0.3294  0.0296  0.2048
10365TIP3    H155290   6.106   7.070   3.536 -1.4429  1.1930  0.4091
10365TIP3    H255291   5.972   7.012   3.577 -0.4696 -0.8774  0.7900
10366TIP3   OH255292   4.319   0.634   3.439 -0.4975 -0.4855 -0.4772
10366TIP3    H155293   4.392   0.673   3.487 -0.3314 -0.7044 -0.5502
10366TIP3    H255294   4.269   0.709   3.406 -0.8118 -0.3312  0.3323
10367TIP3   OH255295   6.680   6.517   1.084  0.1629  0.0367 -0.4741
10367TIP3    H155296   6.734   6.458   1.137 -1.4364 -0.6637  0.4526
10367TIP3    H255297   6.662   6.468   1.004  0.3138  0.0001 -0.4869
10368TIP3   OH255298   2.671   3.349   1.462 -0.1038  0.2460  0.1449
10368TIP3    H155299   2.760   3.325   1.435 -0.1861  0.9586 -0.8334
10368TIP3    H255300   2.644   3.417   1.399 -1.3237  0.0717  0.4415
10369TIP3   OH255301   3.035   5.093   2.402  0.0853 -0.2288 -0.5534
10369TIP3    H155302   3.009   5.155   2.333 -0.3267  0.9616  0.6309
10369TIP3    H255303   2.957   5.040   2.416  0.2140 -0.5669 -1.0920
10370TIP3   OH255304   0.962   1.731   3.245 -0.3142  0.5335  0.7628
10370TIP3    H155305   1.023   1.700   3.178 -2.0094 -0.4769 -0.4136
10370TIP3    H255306   0.984   1.823   3.257  1.0256  0.3487 -0.0563
10371TIP3   OH255307   5.444   7.450   2.659  0.4418 -0.6442 -0.0473
10371TIP3    H155308   5.382   7.448   2.586 -0.6638 -1.5169  0.8740
10371TIP3    H255309   5.390   7.434   2.737  1.4398  1.2197  1.0955
10372TIP3   OH255310   5.525   5.941   1.789  0.4796  0.0960  0.1780
10372TIP3    H155311   5.480   6.022   1.815  1.5456  0.3857  1.2365
10372TIP3    H255312   5.553   5.958   1.699  0.4992  0.8384  0.3119
10373TIP3   OH255313   0.560   2.298   1.630  0.1274  0.0281 -0.5297
10373TIP3    H155314   0.652   2.274   1.642  0.3136  0.8104 -0.3639
10373TIP3    H255315   0.543   2.280   1.538  0.7664  0.9224 -0.8393
10374TIP3   OH255316   2.317   0.144   0.972 -0.4827 -0.1815  0.2685
10374TIP3    H155317   2.284   0.234   0.967 -1.1724 -0.4566 -0.2967
10374TIP3    H255318   2.376   0.145   1.048  1.8920  1.4745 -1.4451
10375TIP3   OH255319   4.079   0.502   1.929  0.4283  0.1038  0.5148
10375TIP3    H155320   4.109   0.412   1.943 -1.2013 -0.7545 -1.0343
10375TIP3    H255321   4.072   0.510   1.834 -0.1523  1.6270  0.6561
10376TIP3   OH255322   4.703   6.281   1.839  0.0304  0.6315  0.5828
10376TIP3    H155323   4.739   6.261   1.753  0.8971  2.9702  0.3265
10376TIP3    H255324   4.608   6.273   1.829  0.2277 -2.2706  0.3375
10377TIP3   OH255325   6.797   0.950   0.451 -0.1033  0.2775  0.3831
10377TIP3    H155326   6.852   0.992   0.517  1.7121 -2.1672  0.5828
10377TIP3    H255327   6.842   0.966   0.368  0.6524 -1.1814  0.4686
10378TIP3   OH255328   0.557   1.704   0.820  0.2789 -0.4231  0.3108
10378TIP3    H155329   0.474   1.712   0.774 -0.6959  2.1093  2.3081
10378TIP3    H255330   0.618   1.758   0.770  0.1201 -0.4490  0.0902
10379TIP3   OH255331   0.006   6.911   0.753  0.9264  0.5765  0.5384
10379TIP3    H155332   0.011   6.816   0.755  1.7245  0.6147  0.4454
10379TIP3    H255333  -0.048   6.934   0.830 -0.5841 -0.0118 -0.2981
10380TIP3   OH255334   0.546   1.934   1.481  0.0265  0.4484 -0.0059
10380TIP3    H155335   0.556   1.874   1.407 -0.2059  0.1095  0.2352
10380TIP3    H255336   0.514   2.015   1.441 -2.6156 -0.4888 -0.0437
10381TIP3   OH255337   5.763   0.648   1.578 -0.5705  0.8021  0.0742
10381TIP3    H155338   5.727   0.732   1.608  0.1376  1.5430 -1.0778
10381TIP3    H255339   5.780   0.599   1.658  1.3790  2.7447  0.9592
10382TIP3   OH255340   2.573   5.441   0.764 -0.8094 -0.3938 -0.2058
10382TIP3    H155341   2.484   5.410   0.778 -0.9614 -0.4511 -1.2063
10382TIP3    H255342   2.577   5.525   0.811 -0.9816 -0.9884  0.9130
10383TIP3   OH255343   0.556   2.165   1.331 -0.2454 -0.4903 -0.6105
10383TIP3    H155344   0.528   2.205   1.248 -1.0769 -3.0355 -1.6748
10383TIP3    H255345   0.632   2.112   1.307  0.4224 -0.0959  0.5941
10384TIP3   OH255346   3.476   6.044   2.300 -0.0521 -0.0333  0.0340
10384TIP3    H155347   3.404   6.006   2.249  0.2289 -0.6379  0.0876
10384TIP3    H255348   3.470   6.138   2.283 -1.0448 -0.0409  0.2773
10385TIP3   OH255349   6.981   1.933   1.633 -0.2645  0.4945  0.1133
10385TIP3    H155350   6.945   2.022   1.631 -1.0517  0.1778 -1.7600
10385TIP3    H255351   6.951   1.897   1.717 -0.6985  1.6849  0.4849
10386TIP3   OH255352   0.870   4.693   2.562 -0.2828 -0.9796  0.0795
10386TIP3    H155353   0.795   4.634   2.557 -1.0127 -0.1318  0.8140
10386TIP3    H255354   0.903   4.696   2.472 -1.3537 -1.0682 -0.3282
10387TIP3   OH255355   4.125   2.871   2.789  0.1145 -0.1132  0.0759
10387TIP3    H155356   4.171   2.883   2.872  0.0164  0.1409  0.0945
10387TIP3    H255357   4.184   2.906   2.723 -0.5601  1.3782  0.2234
10388TIP3   OH255358   2.817   5.266   3.238 -0.8148  0.1724 -0.2285
10388TIP3    H155359   2.907   5.296   3.232 -0.0601 -2.1111 -2.5945
10388TIP3    H255360   2.769   5.319   3.174 -0.4352 -0.6569 -1.2253
10389TIP3   OH255361   2.225   3.435   2.164  0.2556 -0.5193 -0.2324
10389TIP3    H155362   2.295   3.481   2.211  0.3826 -1.6179  0.6931
10389TIP3    H255363   2.267   3.405   2.083  0.3847  0.2888 -0.4717
10390TIP3   OH255364   4.537   3.696   2.834 -0.6292 -0.0109  0.1168
10390TIP3    H155365   4.443   3.708   2.819 -0.4682 -0.1879 -1.1026
10390TIP3    H255366   4.541   3.640   2.912 -1.4987  1.0437  0.9568
10391TIP3   OH255367   2.662   2.796   1.579 -0.2980  0.6175 -0.1899
10391TIP3    H155368   2.569   2.804   1.555 -0.1722  0.9794 -0.5575
10391TIP3    H255369   2.702   2.750   1.505 -0.1836  0.4451 -0.0225
10392TIP3   OH255370   7.511   6.392   2.906 -0.1960 -0.1021 -0.0848
10392TIP3    H155371   7.568   6.353   2.971  2.2714  0.6043 -1.6920
10392TIP3    H255372   7.480   6.474   2.946 -1.0735 -1.0388  1.2330
10393TIP3   OH255373   2.167   4.958   0.619  0.3811  0.2019  0.2687
10393TIP3    H155374   2.099   4.993   0.562 -2.5271 -2.0118  2.0796
10393TIP3    H255375   2.202   5.034   0.666 -2.8781  1.2230  1.2570
10394TIP3   OH255376   1.260   1.678   2.270  0.2589 -0.1563  0.3749
10394TIP3    H155377   1.198   1.709   2.203  1.3316 -0.7910 -0.9590
10394TIP3    H255378   1.283   1.756   2.319 -0.1248  0.4398 -0.3640
10395TIP3   OH255379   6.838   6.657   1.902 -0.1906 -0.4854  0.1700
10395TIP3    H155380   6.913   6.598   1.891 -0.7250 -1.4156  1.2612
10395TIP3    H255381   6.773   6.604   1.949 -1.2296  0.5516 -0.0574
10396TIP3   OH255382   3.055   4.951   0.394 -0.3567 -0.1596  0.2962
10396TIP3    H155383   3.009   5.032   0.374 -0.2952 -0.4616 -1.1354
10396TIP3    H255384   2.987   4.893   0.429 -0.5230  0.2834  0.7184
10397TIP3   OH255385   6.653   6.388   0.857 -0.1877  0.0015 -0.0489
10397TIP3    H155386   6.712   6.315   0.838 -1.2937 -0.6015 -1.3614
10397TIP3    H255387   6.666   6.448   0.784 -0.0135  0.6426  0.5085
10398TIP3   OH255388   3.112   1.260   2.001 -0.8958  0.2859  0.4103
10398TIP3    H155389   3.203   1.277   1.977 -1.1901  0.1039 -0.9176
10398TIP3    H255390   3.116   1.233   2.093  0.4748 -0.3795  0.1795
10399TIP3   OH255391   7.507   1.656   2.181 -0.1372  0.5426  0.2732
10399TIP3    H155392   7.594   1.668   2.220 -0.1360  0.7963  0.1954
10399TIP3    H255393   7.524   1.611   2.098 -0.0197  1.1054 -0.0185
10400TIP3   OH255394   1.444   1.932   1.815 -0.0973 -0.0791  0.3091
10400TIP3    H155395   1.535   1.908   1.831 -0.2924 -0.4118  0.9407
10400TIP3    H255396   1.418   1.982   1.893 -0.3894  0.2108  0.0321
10401TIP3   OH255397   4.204   5.454   2.811  0.1614 -0.1132  0.0766
10401TIP3    H155398   4.264   5.529   2.818 -0.5226  0.3522  1.3204
10401TIP3    H255399   4.132   5.476   2.869 -0.9213 -0.9626 -0.8991
10402TIP3   OH255400   2.911   7.094   2.403 -0.7287  0.7697 -0.2243
10402TIP3    H155401   2.980   7.048   2.451 -0.0656  0.6869 -1.2049
10402TIP3    H255402   2.900   7.177   2.448 -2.1016 -0.3993  1.7243
10403TIP3   OH255403   0.077   2.760   1.944  0.3633 -0.0234  0.3757
10403TIP3    H155404   0.089   2.699   1.871  0.9124  1.3335 -0.7115
10403TIP3    H255405   0.164   2.772   1.979  0.0021 -1.2495  1.7953
10404TIP3   OH255406   1.880   5.242   3.505  0.0684  0.0549  0.5690
10404TIP3    H155407   1.786   5.258   3.507 -0.1759 -1.2034 -0.3341
10404TIP3    H255408   1.915   5.298   3.575 -1.3641  0.3204  1.0975
10405TIP3   OH255409   2.449   1.387   3.027  0.6875  0.6147  0.6940
10405TIP3    H155410   2.526   1.352   3.071  1.1721  1.5459  0.6213
10405TIP3    H255411   2.400   1.432   3.095  0.7857  0.9751  0.5291
10406TIP3   OH255412   3.051   4.451   1.480  0.6367 -0.1671 -0.0066
10406TIP3    H155413   3.085   4.373   1.524 -2.5033 -1.0787  1.1610
10406TIP3    H255414   2.970   4.470   1.528 -1.6553  0.4003 -3.7543
10407TIP3   OH255415   7.623   6.586   0.700 -0.1308 -0.0793 -0.7422
10407TIP3    H155416   7.634   6.579   0.606  2.3108 -3.7234 -0.3755
10407TIP3    H255417   7.552   6.526   0.721 -0.8588  0.9229 -0.2267
10408TIP3   OH255418   7.516   6.572   3.255 -0.1498  0.2570  0.1232
10408TIP3    H155419   7.503   6.478   3.245 -0.7182  0.4605 -1.2305
10408TIP3    H255420   7.428   6.609   3.256  0.0705  0.7688  0.6592
10409TIP3   OH255421   5.079   4.445   1.956  0.1470 -0.2461 -0.5059
10409TIP3    H155422   5.044   4.511   1.896 -1.0176 -0.9716 -0.6483
10409TIP3    H255423   5.002   4.411   2.001  0.9274 -0.2287  0.8867
10410TIP3   OH255424   0.955   2.198   1.404 -0.1470  0.1375  0.0371
10410TIP3    H155425   0.920   2.198   1.493  1.7593 -0.6620  0.8468
10410TIP3    H255426   0.889   2.152   1.352 -1.6481  1.2940  0.8506
10411TIP3   OH255427   6.916   7.272   2.327 -0.7482  0.0563 -0.4440
10411TIP3    H155428   6.846   7.227   2.375 -1.4076  0.4696 -0.9963
10411TIP3    H255429   6.884   7.362   2.317 -0.1270  0.2539 -0.6837
10412TIP3   OH255430   1.542   3.900   1.703 -0.7364  0.3755  0.3975
10412TIP3    H155431   1.489   3.939   1.633 -1.4707 -0.8423  0.2609
10412TIP3    H255432   1.485   3.835   1.744  0.2333 -0.0750  1.0747
10413TIP3   OH255433   4.167   2.459   2.444  0.0461  0.0301 -0.3260
10413TIP3    H155434   4.200   2.439   2.531  0.2215  0.1665 -0.3615
10413TIP3    H255435   4.079   2.420   2.442 -0.1051  0.3548  0.0385
10414TIP3   OH255436   3.058   7.372   2.034  0.0641 -0.3485 -0.2280
10414TIP3    H155437   3.028   7.369   1.944  0.7235 -0.1395 -0.4605
10414TIP3    H255438   3.139   7.322   2.035  0.2297 -0.0851  0.1763
10415TIP3   OH255439   4.491   4.205   3.029 -0.3368 -0.1897  0.1981
10415TIP3    H155440   4.463   4.138   2.966  0.5771 -0.1757 -0.2337
10415TIP3    H255441   4.450   4.285   2.998  0.0975 -0.1841 -0.3861
10416TIP3   OH255442   0.569   1.247   2.648  0.1757 -0.4315  0.5853
10416TIP3    H155443   0.609   1.320   2.600 -0.3211 -1.6249 -1.7848
10416TIP3    H255444   0.478   1.248   2.620  0.3071 -2.3393 -0.0193
10417TIP3   OH255445   3.535   7.490   0.862  0.0955 -0.4255 -0.2812
10417TIP3    H155446   3.444   7.461   0.866  0.4929 -1.6700  2.4121
10417TIP3    H255447   3.547   7.543   0.942  1.4357  0.7488 -1.2016
10418TIP3   OH255448   6.866   3.997   2.531 -0.0443  0.0937  0.0214
10418TIP3    H155449   6.804   3.946   2.582  1.1134 -0.0583  1.3387
10418TIP3    H255450   6.949   3.951   2.539 -0.1824 -1.2934 -4.0185
10419TIP3   OH255451   3.683   7.572   2.849  0.1366 -0.1339  0.1570
10419TIP3    H155452   3.658   7.571   2.942  0.1720  0.6309  0.1800
10419TIP3    H255453   3.775   7.597   2.850  0.3160 -0.7757 -0.0525
10420TIP3   OH255454   1.929   5.033   0.499 -0.0511  0.2439  0.1743
10420TIP3    H155455   1.925   5.127   0.485 -0.7314  0.1104 -0.5332
10420TIP3    H255456   1.867   4.995   0.436  1.2619 -0.7780 -0.5632
10421TIP3   OH255457   6.426   6.088   2.513 -0.0983 -0.4200  0.3689
10421TIP3    H155458   6.390   6.153   2.572  0.0676  1.3586 -1.3863
10421TIP3    H255459   6.349   6.047   2.473 -0.1937 -0.6905  0.8211
10422TIP3   OH255460   1.526   6.869   1.920  0.2051 -0.6058  0.0938
10422TIP3    H155461   1.515   6.786   1.967  1.0882 -0.4432  0.5936
10422TIP3    H255462   1.436   6.898   1.903 -0.1457 -0.6904  1.6356
10423TIP3   OH255463   6.637   6.182   1.592  0.2181  0.5590  0.2532
10423TIP3    H155464   6.547   6.199   1.620  0.4265  0.0591  1.2967
10423TIP3    H255465   6.661   6.101   1.638  1.0248  0.3999 -0.4278
10424TIP3   OH255466   4.210   6.606   2.621 -0.2522 -0.2486 -0.4803
10424TIP3    H155467   4.223   6.538   2.687 -1.7771 -1.0632 -0.9723
10424TIP3    H255468   4.250   6.570   2.541  0.6232  0.2672 -0.2855
10425TIP3   OH255469   7.178   2.605   2.829 -0.0841  0.6097  0.6671
10425TIP3    H155470   7.120   2.653   2.888 -0.0381  1.3352  0.1294
10425TIP3    H255471   7.266   2.622   2.864 -0.2055 -2.4668  2.9901
10426TIP3   OH255472   1.302   0.457   0.733 -0.3965  0.2762 -0.0024
10426TIP3    H155473   1.234   0.433   0.796  1.7910  1.9781  3.2802
10426TIP3    H255474   1.267   0.535   0.690 -2.9849 -2.2559 -3.0522
10427TIP3   OH255475   7.260   4.683   2.119  0.0636  0.6655  0.2365
10427TIP3    H155476   7.342   4.635   2.132 -1.3768 -2.7153 -1.7279
10427TIP3    H255477   7.271   4.726   2.034 -0.4157 -0.4188 -0.3906
10428TIP3   OH255478   3.646   6.907   1.178  0.1346  0.1562  0.5878
10428TIP3    H155479   3.567   6.893   1.230 -0.3084 -0.4143 -0.2252
10428TIP3    H255480   3.688   6.983   1.219 -0.5448  0.1302  1.3636
10429TIP3   OH255481   5.121   1.160   1.826  0.0017 -0.2362 -0.6061
10429TIP3    H155482   5.213   1.140   1.807  0.5499  2.2506 -0.9777
10429TIP3    H255483   5.117   1.164   1.921 -0.1019 -1.7670 -0.5199
10430TIP3   OH255484   6.352   7.672   1.816  0.7384  0.1038  0.3067
10430TIP3    H155485   6.353   7.591   1.867 -2.1745 -0.9206 -1.0104
10430TIP3    H255486   6.339   7.741   1.881  0.0193 -0.8437  1.2066
10431TIP3   OH255487   4.662   6.809   2.922 -0.1698  0.4479 -0.3522
10431TIP3    H155488   4.691   6.878   2.863  0.1989  0.3551 -0.2833
10431TIP3    H255489   4.689   6.838   3.009 -2.3087  1.4612  0.0431
10432TIP3   OH255490   1.209   0.144   2.169  0.2157  0.3552  0.5456
10432TIP3    H155491   1.275   0.186   2.224 -0.6269  1.0559  1.0638
10432TIP3    H255492   1.240   0.054   2.157  0.8902  0.4674  1.3705
10433TIP3   OH255493   1.893   1.221   0.572  0.1150  0.5559 -0.0005
10433TIP3    H155494   1.850   1.281   0.511 -1.6075  0.9622  1.5317
10433TIP3    H255495   1.945   1.279   0.629  0.4303  0.3481 -0.0791
10434TIP3   OH255496   3.653   3.512   3.185  0.2056 -0.1802  0.1044
10434TIP3    H155497   3.723   3.452   3.160  0.6508  1.1066 -2.1176
10434TIP3    H255498   3.572   3.466   3.163  0.4884 -0.5694 -0.1281
10435TIP3   OH255499   0.449   4.644   1.793  0.3753  0.7120  0.1167
10435TIP3    H155500   0.521   4.644   1.730  0.5398  1.5978  0.3049
10435TIP3    H255501   0.387   4.708   1.759 -0.4639 -0.2285 -0.1849
10436TIP3   OH255502   1.231   3.464   0.970  0.5125  0.2905 -0.2012
10436TIP3    H155503   1.322   3.446   0.946 -0.1909 -1.6343 -1.6769
10436TIP3    H255504   1.236   3.541   1.027  2.9877  0.6362 -0.7724
10437TIP3   OH255505   3.232   3.969   1.859 -0.2310 -0.2573 -0.3198
10437TIP3    H155506   3.323   3.999   1.853 -0.7759  1.3242 -1.7959
10437TIP3    H255507   3.188   4.037   1.909 -0.5297 -1.2776  0.8415
10438TIP3   OH255508   5.434   4.072   2.381  0.0108  0.2435 -0.3917
10438TIP3    H155509   5.389   4.148   2.418 -0.4946 -0.6497  0.9165
10438TIP3    H255510   5.511   4.109   2.337 -1.2534  1.6805 -1.5325
10439TIP3   OH255511   0.698   1.908   0.684 -0.2028 -0.0444 -0.0648
10439TIP3    H155512   0.617   1.958   0.681 -0.6693 -0.6164  1.6978
10439TIP3    H255513   0.768   1.973   0.675 -0.8303  0.6549  0.0608
   7.68049   7.68049  30.00000
