Title
55513
    1DOPE     N    1   1.394   2.780  17.162 -0.0590  0.4473  0.3247
    1DOPE   HN1    2   1.383   2.746  17.064 -4.4511 -0.0203  0.7844
    1DOPE   HN2    3   1.303   2.774  17.212 -0.0004  0.1513  0.3926
    1DOPE   HN3    4   1.432   2.877  17.156  1.1667 -0.0951 -2.1142
    1DOPE   C12    5   1.488   2.684  17.239 -0.3263  0.2956  0.2002
    1DOPE  H12A    6   1.450   2.582  17.216  1.5175 -0.6827  1.2996
    1DOPE  H12B    7   1.474   2.707  17.347 -0.7335 -0.8170  0.3954
    1DOPE   C11    8   1.633   2.709  17.190 -0.2000  0.0496  0.3212
    1DOPE  H11A    9   1.643   2.665  17.089 -1.1814  2.2682 -0.8084
    1DOPE  H11B   10   1.701   2.653  17.258  0.0283 -0.7365 -0.5439
    1DOPE     P   11   1.768   2.900  17.079 -0.4937  0.3817 -0.2345
    1DOPE   O13   12   1.887   2.815  17.079 -0.4129  0.9368 -0.0000
    1DOPE   O14   13   1.794   3.047  17.101 -0.4980  0.0328 -0.4353
    1DOPE   O11   14   1.696   2.883  16.944  0.0228 -0.2255  0.4983
    1DOPE   O12   15   1.666   2.846  17.191 -0.4441  0.3301 -0.7858
    1DOPE    C1   16   1.601   2.975  16.893 -0.0209  0.7691  0.3757
    1DOPE    HA   17   1.561   3.048  16.966 -1.3270 -1.1766  1.7052
    1DOPE    HB   18   1.511   2.917  16.863  1.3060 -2.0066  1.4045
    1DOPE    C2   19   1.646   3.042  16.755  0.3698  0.1475  0.3298
    1DOPE    HS   20   1.552   3.083  16.711  1.9734  1.7123 -1.8501
    1DOPE   O21   21   1.709   2.950  16.668  0.3993  0.7152  0.1235
    1DOPE   C21   22   1.624   2.854  16.609  0.3223 -0.2197  0.9453
    1DOPE   O22   23   1.501   2.859  16.610 -0.0503 -0.2391  0.1226
    1DOPE   C22   24   1.696   2.753  16.526 -0.7577  0.3190 -0.0251
    1DOPE   H2R   25   1.622   2.686  16.477 -0.1624 -0.3281 -0.0610
    1DOPE   H2S   26   1.746   2.670  16.580 -0.5344 -2.4631 -3.9893
    1DOPE    C3   27   1.742   3.158  16.783  0.0415 -0.0367 -0.0953
    1DOPE    HX   28   1.835   3.104  16.813  0.4087  0.3024 -0.6107
    1DOPE    HY   29   1.701   3.214  16.870  1.1372 -1.1086  1.1556
    1DOPE   O31   30   1.765   3.250  16.675  0.1645  0.1121 -0.5402
    1DOPE   C31   31   1.879   3.244  16.605 -0.5707 -0.3787  0.2904
    1DOPE   O32   32   1.979   3.181  16.640  0.8542 -0.7845 -0.4586
    1DOPE   C32   33   1.869   3.344  16.483 -0.4535 -0.2370  0.4993
    1DOPE   H2X   34   1.765   3.380  16.473 -0.7032 -1.5267 -3.0361
    1DOPE   H2Y   35   1.935   3.427  16.518 -2.1875  1.2274  0.4052
    1DOPE   C23   36   1.784   2.823  16.427  0.8030 -0.0940 -0.7743
    1DOPE   H3R   37   1.856   2.883  16.486  0.6093 -0.5551 -0.0515
    1DOPE   H3S   38   1.720   2.899  16.377  1.6501  0.4567 -1.0424
    1DOPE   C24   39   1.847   2.726  16.333 -0.1042  0.1607  0.0868
    1DOPE   H4R   40   1.771   2.650  16.303  0.1111 -0.4395  1.0283
    1DOPE   H4S   41   1.935   2.683  16.385 -0.7234 -0.8514  0.3504
    1DOPE   C25   42   1.896   2.803  16.210  0.2105 -0.2666  0.1406
    1DOPE   H5R   43   1.988   2.858  16.238  0.7686  0.3061 -2.5428
    1DOPE   H5S   44   1.820   2.881  16.192 -0.4656 -1.2903 -1.6873
    1DOPE   C26   45   1.916   2.728  16.081 -0.0817 -0.3618  0.4559
    1DOPE   H6R   46   1.868   2.796  16.007 -0.6842 -0.1312  1.0587
    1DOPE   H6S   47   1.860   2.632  16.083  1.3896 -1.4286 -2.7074
    1DOPE   C27   48   2.062   2.699  16.058 -0.6741  1.1087  0.2081
    1DOPE   H7R   49   2.091   2.638  16.146  1.9599  0.1807 -1.2134
    1DOPE   H7S   50   2.123   2.791  16.060 -0.6201  1.1135 -0.8580
    1DOPE   C28   51   2.084   2.637  15.923  0.6936 -0.4751  0.3788
    1DOPE   H8R   52   2.192   2.642  15.896  0.5574  3.1702 -0.0995
    1DOPE   H8S   53   2.036   2.703  15.848 -0.1098 -0.1355  1.1737
    1DOPE   C29   54   2.023   2.499  15.909 -0.2301  0.3199 -0.3063
    1DOPE   H9R   55   2.052   2.434  15.993  2.6040  0.8620 -0.7639
    1DOPE  C210   56   1.918   2.450  15.839 -0.5703 -0.3345 -0.0496
    1DOPE  H10R   57   1.885   2.346  15.849 -0.2143 -0.2817  2.4077
    1DOPE  C211   58   1.842   2.529  15.738 -0.7721 -0.5732 -0.1870
    1DOPE  H11R   59   1.884   2.627  15.708  0.3847 -1.1284 -0.4123
    1DOPE  H11S   60   1.741   2.553  15.778 -0.6272 -0.2452 -0.0228
    1DOPE  C212   61   1.831   2.451  15.604  0.2193  0.3583 -0.2131
    1DOPE  H12R   62   1.780   2.353  15.612 -0.9347  0.7820 -1.8237
    1DOPE  H12S   63   1.936   2.456  15.566  0.4451  1.0070  0.4611
    1DOPE  C213   64   1.743   2.539  15.506  0.3369  0.4653 -0.2769
    1DOPE  H13R   65   1.783   2.641  15.523  2.5242 -0.4063  0.1824
    1DOPE  H13S   66   1.634   2.533  15.530  0.3878 -0.4967 -0.2532
    1DOPE  C214   67   1.766   2.507  15.358 -0.1391  0.7648 -0.4512
    1DOPE  H14R   68   1.873   2.507  15.326 -0.3029  0.3284 -1.0205
    1DOPE  H14S   69   1.720   2.586  15.296 -1.2745 -0.2845 -0.9866
    1DOPE  C215   70   1.706   2.372  15.314  0.7179  0.1669 -0.3654
    1DOPE  H15R   71   1.596   2.388  15.315  0.5953 -0.3452 -2.1553
    1DOPE  H15S   72   1.743   2.296  15.386 -0.5185  0.4643  0.6284
    1DOPE  C216   73   1.751   2.320  15.175  0.3880 -0.0180  0.8020
    1DOPE  H16R   74   1.861   2.329  15.164  0.3673 -0.8327 -0.2582
    1DOPE  H16S   75   1.718   2.398  15.102 -0.4241 -0.8688  0.2455
    1DOPE  C217   76   1.704   2.179  15.155 -0.1713 -0.4245  0.3441
    1DOPE  H17R   77   1.595   2.174  15.133 -0.0139  2.6366 -1.9199
    1DOPE  H17S   78   1.726   2.108  15.237  0.8514 -0.2104  0.2696
    1DOPE  C218   79   1.776   2.134  15.030  0.1849  0.5633 -0.7890
    1DOPE  H18R   80   1.784   2.209  14.948 -0.1845  2.6341  0.9799
    1DOPE  H18S   81   1.727   2.044  14.988  0.4770 -0.7302  1.4770
    1DOPE  H18T   82   1.878   2.100  15.055 -0.7876 -2.4918 -0.5723
    1DOPE   C33   83   1.934   3.291  16.348  0.0977 -0.0409  0.2796
    1DOPE   H3X   84   1.858   3.233  16.292 -0.2501  0.1284  0.5745
    1DOPE   H3Y   85   2.017   3.223  16.376 -0.0120 -0.3460 -0.1311
    1DOPE   C34   86   2.008   3.404  16.274 -0.1787 -1.1392 -0.0972
    1DOPE   H4X   87   1.943   3.489  16.245  2.2107  0.9020  0.1713
    1DOPE   H4Y   88   2.078   3.446  16.350  0.3659 -1.2036 -0.5514
    1DOPE   C35   89   2.086   3.363  16.144  0.1956 -0.3131 -0.3286
    1DOPE   H5X   90   2.026   3.322  16.060 -1.0611 -1.3628  1.0250
    1DOPE   H5Y   91   2.160   3.283  16.168  3.1194  2.3029 -0.1008
    1DOPE   C36   92   2.177   3.478  16.092 -0.5447 -0.5468  0.4784
    1DOPE   H6X   93   2.250   3.507  16.171 -0.4725  0.6002  0.0112
    1DOPE   H6Y   94   2.115   3.566  16.065 -4.0551 -2.5096  1.4470
    1DOPE   C37   95   2.258   3.438  15.968 -0.4507 -0.2907  0.2553
    1DOPE   H7X   96   2.332   3.517  15.943 -0.2423 -0.5075  0.1806
    1DOPE   H7Y   97   2.320   3.349  15.993  0.9289  0.7230  0.5810
    1DOPE   C38   98   2.170   3.417  15.850 -0.0223  0.6062 -0.3615
    1DOPE   H8X   99   2.120   3.510  15.818  1.4817  1.3625 -0.6185
    1DOPE   H8Y  100   2.087   3.344  15.865  0.4331 -0.3987 -2.3483
    1DOPE   C39  101   2.251   3.348  15.742  0.1832 -1.0542  0.3555
    1DOPE   H9X  102   2.270   3.247  15.782 -0.6729 -1.7672 -0.9550
    1DOPE  C310  103   2.276   3.395  15.617  0.0394  0.8276  0.3759
    1DOPE  H10X  104   2.321   3.324  15.546 -1.4743 -0.3796  0.5597
    1DOPE  C311  105   2.244   3.530  15.562  0.5768 -0.5450  0.0908
    1DOPE  H11X  106   2.261   3.612  15.634  0.9870 -0.8073  0.2924
    1DOPE  H11Y  107   2.316   3.562  15.484 -1.3428  1.3867 -0.9725
    1DOPE  C312  108   2.105   3.543  15.490  0.1030 -0.5289 -0.0329
    1DOPE  H12X  109   2.084   3.640  15.441 -3.7497 -1.1943 -0.0385
    1DOPE  H12Y  110   2.029   3.524  15.569  1.2054  0.9069  1.4620
    1DOPE  C313  111   2.089   3.435  15.383 -0.0260 -0.2204 -0.4737
    1DOPE  H13X  112   2.116   3.337  15.429 -0.5495  0.6166  1.7515
    1DOPE  H13Y  113   1.982   3.435  15.353  0.0443 -0.6058 -0.7280
    1DOPE  C314  114   2.180   3.459  15.263 -0.0802  0.1881  0.5176
    1DOPE  H14X  115   2.284   3.480  15.299  0.0990  1.2757 -0.5980
    1DOPE  H14Y  116   2.156   3.555  15.213  0.9305  0.4763  0.5669
    1DOPE  C315  117   2.160   3.353  15.146 -0.4261  1.0370  0.2641
    1DOPE  H15X  118   2.180   3.250  15.184 -2.0171 -0.3463 -2.3295
    1DOPE  H15Y  119   2.235   3.363  15.065  1.3214 -0.1245  1.6609
    1DOPE  C316  120   2.023   3.342  15.087  0.9605 -0.3055 -0.6393
    1DOPE  H16X  121   2.002   3.444  15.050  2.6374  0.9368  1.5680
    1DOPE  H16Y  122   1.953   3.311  15.168 -0.8100  0.6159 -1.7594
    1DOPE  C317  123   2.001   3.235  14.985 -0.3903  0.1183  0.3206
    1DOPE  H17X  124   2.081   3.159  14.999  0.4235  1.1833  1.7424
    1DOPE  H17Y  125   1.901   3.188  14.991 -1.0039  1.3518 -0.0032
    1DOPE  C318  126   2.035   3.279  14.843 -0.1777  0.2355  0.4024
    1DOPE  H18X  127   2.140   3.315  14.848  0.2312 -1.0196  1.4158
    1DOPE  H18Y  128   2.033   3.187  14.780  1.2483  0.5410 -0.1035
    1DOPE  H18Z  129   1.979   3.365  14.800  2.2954  1.5072 -0.4326
    2DOPE     N  130   3.947   4.233  17.110  0.1469 -0.5170 -0.6068
    2DOPE   HN1  131   4.043   4.194  17.116 -0.8800 -3.1596  0.6006
    2DOPE   HN2  132   3.942   4.315  17.173 -1.7565  0.5925 -2.0901
    2DOPE   HN3  133   3.880   4.161  17.146  1.3415 -0.9042  0.9878
    2DOPE   C12  134   3.883   4.264  16.975 -0.6908  0.0619 -0.2455
    2DOPE  H12A  135   3.971   4.283  16.910 -0.2585 -0.5145  0.1576
    2DOPE  H12B  136   3.820   4.355  16.986 -0.1982  0.9131 -3.4607
    2DOPE   C11  137   3.809   4.145  16.927 -1.1601 -0.1701 -0.1869
    2DOPE  H11A  138   3.873   4.054  16.916  1.6264  1.5549  0.5806
    2DOPE  H11B  139   3.770   4.158  16.824 -1.1041 -1.5306 -0.3993
    2DOPE     P  140   3.567   4.035  16.995  0.2126  0.6287  0.2816
    2DOPE   O13  141   3.488   4.031  17.121  0.4905  0.1398 -0.1102
    2DOPE   O14  142   3.600   3.908  16.929  0.3157 -0.5474 -0.1547
    2DOPE   O11  143   3.492   4.136  16.901  0.2251 -0.3557  0.2821
    2DOPE   O12  144   3.706   4.108  17.018  0.1866 -0.4667  0.2332
    2DOPE    C1  145   3.367   4.103  16.845  0.1669  0.0307  0.7965
    2DOPE    HA  146   3.306   4.195  16.831 -1.1880 -0.9221  0.2412
    2DOPE    HB  147   3.309   4.040  16.916  0.1271 -0.7177  0.1054
    2DOPE    C2  148   3.378   4.044  16.706  0.0335 -0.1743 -0.1345
    2DOPE    HS  149   3.441   3.953  16.692 -0.7491 -0.5028 -1.7816
    2DOPE   O21  150   3.420   4.150  16.622  0.7758  0.4231  0.1976
    2DOPE   C21  151   3.528   4.126  16.549 -0.5694  0.4864 -0.0930
    2DOPE   O22  152   3.613   4.039  16.569 -0.7906  0.0781  0.1169
    2DOPE   C22  153   3.537   4.227  16.434 -0.8586  0.5708 -0.1457
    2DOPE   H2R  154   3.587   4.176  16.349 -1.7612 -3.0829  1.3478
    2DOPE   H2S  155   3.606   4.308  16.466  0.4968 -1.7753  3.3902
    2DOPE    C3  156   3.238   4.000  16.657  0.3697  0.0403  0.0181
    2DOPE    HX  157   3.173   4.089  16.648  1.0472  0.3855 -2.1292
    2DOPE    HY  158   3.204   3.921  16.728  0.1104  1.0185  0.9991
    2DOPE   O31  159   3.249   3.933  16.531 -0.0557 -0.5601  0.0634
    2DOPE   C31  160   3.146   3.858  16.496 -0.3424  0.2594  0.3069
    2DOPE   O32  161   3.046   3.839  16.563 -0.3439 -0.0727  0.0677
    2DOPE   C32  162   3.179   3.791  16.361  0.1358 -0.1488 -0.0466
    2DOPE   H2X  163   3.205   3.872  16.289 -4.0576 -0.2167 -1.9429
    2DOPE   H2Y  164   3.267   3.726  16.379  0.0402 -0.8624 -1.9589
    2DOPE   C23  165   3.408   4.296  16.386 -0.0523  0.3268  0.2479
    2DOPE   H3R  166   3.382   4.373  16.462  1.1130  1.3065 -0.3088
    2DOPE   H3S  167   3.333   4.216  16.369 -0.0398  0.5418 -0.8988
    2DOPE   C24  168   3.417   4.363  16.248 -0.6581 -0.2814  0.8879
    2DOPE   H4R  169   3.494   4.443  16.246 -2.1822  1.2214 -1.0511
    2DOPE   H4S  170   3.323   4.419  16.232 -0.2154 -0.1759 -1.7585
    2DOPE   C25  171   3.420   4.269  16.129  0.4870  0.0958 -0.6520
    2DOPE   H5R  172   3.335   4.198  16.131  0.5933 -0.1437 -2.7305
    2DOPE   H5S  173   3.510   4.204  16.129  0.1037 -0.4340 -0.9577
    2DOPE   C26  174   3.409   4.335  15.996 -0.7410  0.1461  0.5284
    2DOPE   H6R  175   3.487   4.413  15.984 -0.4001 -0.5456 -2.4224
    2DOPE   H6S  176   3.309   4.378  15.972 -1.3058 -1.3059  0.1271
    2DOPE   C27  177   3.448   4.228  15.883  0.2089  0.2123 -0.0632
    2DOPE   H7R  178   3.382   4.141  15.906  0.5751 -0.2197 -0.6119
    2DOPE   H7S  179   3.551   4.185  15.884 -0.5912 -1.8953 -0.8880
    2DOPE   C28  180   3.432   4.280  15.738 -0.5789  0.3406 -0.2962
    2DOPE   H8R  181   3.490   4.220  15.665  0.3741  0.0243  0.6925
    2DOPE   H8S  182   3.489   4.375  15.732  0.3333 -0.1216  0.8156
    2DOPE   C29  183   3.294   4.314  15.691 -0.2488  0.7617  0.7751
    2DOPE   H9R  184   3.260   4.415  15.715  0.8315  0.8096  2.2656
    2DOPE  C210  185   3.203   4.234  15.625 -0.5527  0.3126  0.2199
    2DOPE  H10R  186   3.118   4.284  15.578  0.6816  0.4374 -2.0590
    2DOPE  C211  187   3.219   4.087  15.577  0.3055 -0.5689  0.0206
    2DOPE  H11R  188   3.313   4.054  15.626  0.7826  0.0899 -0.4351
    2DOPE  H11S  189   3.244   4.078  15.469  1.5695 -1.5652  0.3769
    2DOPE  C212  190   3.102   3.995  15.615 -0.2921 -0.1561 -0.0065
    2DOPE  H12R  191   3.069   4.012  15.720 -1.3568 -0.6633 -0.2366
    2DOPE  H12S  192   3.119   3.887  15.597 -1.7632 -0.5155  0.5907
    2DOPE  C213  193   2.976   4.030  15.533 -0.3056  0.2106 -0.4924
    2DOPE  H13R  194   3.000   4.035  15.425  1.5356  0.5321 -0.0917
    2DOPE  H13S  195   2.942   4.130  15.567 -0.2301  0.9322 -2.4240
    2DOPE  C214  196   2.865   3.932  15.558 -0.5133  0.3184  0.3367
    2DOPE  H14R  197   2.860   3.909  15.666 -1.0207 -0.7691  0.0928
    2DOPE  H14S  198   2.896   3.841  15.503 -0.0839  0.6222  0.0637
    2DOPE  C215  199   2.729   3.983  15.521 -0.1078  0.6729  0.7246
    2DOPE  H15R  200   2.741   4.040  15.427 -1.2922 -0.2954 -0.0398
    2DOPE  H15S  201   2.690   4.055  15.597  1.1999  0.5610  1.5437
    2DOPE  C216  202   2.634   3.870  15.473  0.1523  0.0800  0.5356
    2DOPE  H16R  203   2.642   3.795  15.555 -0.3850  2.1766  2.5902
    2DOPE  H16S  204   2.666   3.821  15.378 -0.8086 -1.6473  1.0525
    2DOPE  C217  205   2.487   3.922  15.465  0.6764  0.1482  0.8088
    2DOPE  H17R  206   2.435   3.841  15.409  0.9063  0.5188  0.0525
    2DOPE  H17S  207   2.474   4.015  15.406 -0.6639  0.5647  1.7163
    2DOPE  C218  208   2.413   3.937  15.605 -1.0755 -0.1524  0.6415
    2DOPE  H18R  209   2.303   3.948  15.594 -1.2665  1.4796  3.1854
    2DOPE  H18S  210   2.461   4.025  15.654 -1.1954  0.8800 -0.9903
    2DOPE  H18T  211   2.423   3.841  15.661 -3.4281 -1.4315 -0.9723
    2DOPE   C33  212   3.058   3.706  16.305 -0.2572 -0.4984 -0.5756
    2DOPE   H3X  213   3.041   3.734  16.199 -1.4534  2.0032  0.1828
    2DOPE   H3Y  214   2.963   3.721  16.360 -0.3327 -1.2957 -0.4827
    2DOPE   C34  215   3.088   3.553  16.319 -0.4267 -0.0053  0.7196
    2DOPE   H4X  216   3.182   3.523  16.269 -0.1492  2.4238 -0.3322
    2DOPE   H4Y  217   3.082   3.537  16.429 -1.7049 -1.2133  0.4995
    2DOPE   C35  218   2.979   3.471  16.245 -0.7191  0.3188 -0.4011
    2DOPE   H5X  219   2.879   3.492  16.289 -0.6625 -1.7826  0.8634
    2DOPE   H5Y  220   3.012   3.366  16.261  1.5055  0.8880 -0.9797
    2DOPE   C36  221   2.978   3.483  16.094 -0.0626 -0.1038 -0.7730
    2DOPE   H6X  222   2.968   3.589  16.065 -1.1655  0.5130  1.5664
    2DOPE   H6Y  223   2.892   3.428  16.049 -1.7174  0.5007  1.4470
    2DOPE   C37  224   3.108   3.431  16.035 -0.7634 -0.0199 -0.3040
    2DOPE   H7X  225   3.199   3.489  16.061 -0.8028  1.0341 -2.3034
    2DOPE   H7Y  226   3.130   3.335  16.088  3.3206  1.3378  0.8363
    2DOPE   C38  227   3.095   3.390  15.887  1.0224 -0.0240 -0.1524
    2DOPE   H8X  228   3.079   3.482  15.827 -0.9371 -0.0630  0.2502
    2DOPE   H8Y  229   2.996   3.343  15.868  0.5358 -0.3008  2.5856
    2DOPE   C39  230   3.213   3.308  15.839  0.3131 -0.2128  0.2127
    2DOPE   H9X  231   3.206   3.202  15.867  0.3566 -0.0148  1.0087
    2DOPE  C310  232   3.309   3.341  15.750  0.4798 -0.2329 -0.5268
    2DOPE  H10X  233   3.384   3.264  15.725  0.7299  0.3814 -1.6910
    2DOPE  C311  234   3.313   3.474  15.685 -0.2173 -0.4219 -0.4101
    2DOPE  H11X  235   3.282   3.540  15.768 -1.3884  0.9482 -1.8704
    2DOPE  H11Y  236   3.417   3.506  15.665 -1.4285  2.9420 -2.0187
    2DOPE  C312  237   3.229   3.485  15.559  0.1134 -0.6820  0.3531
    2DOPE  H12X  238   3.126   3.458  15.589 -1.0330  2.1353 -0.6524
    2DOPE  H12Y  239   3.271   3.419  15.479  1.6450  0.8346 -0.1718
    2DOPE  C313  240   3.229   3.626  15.492  0.2906  0.2552 -0.0003
    2DOPE  H13X  241   3.232   3.706  15.570  1.7668  0.7124 -0.5085
    2DOPE  H13Y  242   3.308   3.629  15.415  0.8894 -1.0001  0.5433
    2DOPE  C314  243   3.100   3.665  15.409  0.4645  0.1617 -0.3569
    2DOPE  H14X  244   3.118   3.771  15.384  0.5369  0.4559  0.8629
    2DOPE  H14Y  245   3.008   3.642  15.467 -1.6499 -1.5672 -4.0148
    2DOPE  C315  246   3.096   3.582  15.279  0.4184 -0.1003 -0.3329
    2DOPE  H15X  247   3.101   3.473  15.301  0.9851  0.0081  0.1122
    2DOPE  H15Y  248   3.192   3.616  15.234  2.0595 -0.9910  2.2343
    2DOPE  C316  249   2.966   3.598  15.198  0.3459  0.0716 -0.2082
    2DOPE  H16X  250   2.964   3.697  15.147 -0.1938  1.3949  2.2199
    2DOPE  H16Y  251   2.875   3.600  15.263  1.2058 -1.3819  1.1172
    2DOPE  C317  252   2.948   3.484  15.094 -0.4207 -0.7263 -0.3246
    2DOPE  H17X  253   3.007   3.518  15.006 -0.3756 -1.9621 -0.7900
    2DOPE  H17Y  254   3.001   3.392  15.128  0.5972  0.3419  1.1385
    2DOPE  C318  255   2.806   3.465  15.059  0.1709 -0.3509 -0.8386
    2DOPE  H18X  256   2.789   3.389  14.980 -3.1973  1.2121 -1.8268
    2DOPE  H18Y  257   2.749   3.422  15.144  2.0044 -2.0691 -0.4371
    2DOPE  H18Z  258   2.766   3.567  15.038  0.8646 -0.0524 -0.7126
    3DOPE     N  259   1.997   3.199  17.049 -0.1130  0.1573 -0.1662
    3DOPE   HN1  260   1.908   3.145  17.055 -1.2320  1.6173 -2.1958
    3DOPE   HN2  261   1.974   3.278  16.985 -1.1016 -0.8940 -1.1775
    3DOPE   HN3  262   2.080   3.146  17.017  0.7963  0.4896  1.5082
    3DOPE   C12  263   2.014   3.246  17.196 -0.5684 -0.2409 -0.5244
    3DOPE  H12A  264   2.037   3.162  17.264 -1.3555 -1.3290 -1.5523
    3DOPE  H12B  265   1.920   3.295  17.231  0.2676  0.6010  0.6186
    3DOPE   C11  266   2.125   3.355  17.193  1.1210 -0.0344  0.0076
    3DOPE  H11A  267   2.141   3.395  17.295  0.4864 -3.0417  1.3957
    3DOPE  H11B  268   2.082   3.429  17.122  1.6684  0.4917  0.2190
    3DOPE     P  269   2.318   3.409  17.028 -0.2070  0.1961 -0.2132
    3DOPE   O13  270   2.451   3.348  16.990 -0.5892  0.1001  0.1381
    3DOPE   O14  271   2.321   3.542  17.095  0.1730 -0.5399  0.8380
    3DOPE   O11  272   2.215   3.414  16.907 -0.0442  0.0272 -0.1146
    3DOPE   O12  273   2.242   3.306  17.124 -0.5043 -0.1752 -0.2073
    3DOPE    C1  274   2.249   3.342  16.787 -1.0770  0.1011  0.4343
    3DOPE    HA  275   2.161   3.285  16.750 -2.3331  3.1792 -1.7503
    3DOPE    HB  276   2.320   3.258  16.800 -1.4344 -0.0856  1.2637
    3DOPE    C2  277   2.287   3.443  16.679  0.0656  0.3108  0.0746
    3DOPE    HS  278   2.390   3.477  16.704  0.7877 -0.5850 -1.5494
    3DOPE   O21  279   2.186   3.547  16.682 -0.3705 -0.2234  0.2190
    3DOPE   C21  280   2.229   3.671  16.671 -0.9819 -0.6798  0.1361
    3DOPE   O22  281   2.347   3.707  16.668  0.3390  0.3637  0.4326
    3DOPE   C22  282   2.109   3.763  16.652  0.3135 -0.2033  0.5086
    3DOPE   H2R  283   2.098   3.813  16.750 -1.4917 -1.6484  1.1070
    3DOPE   H2S  284   2.011   3.713  16.637 -1.2240  2.9021 -0.6585
    3DOPE    C3  285   2.293   3.385  16.531 -0.6016  0.3698 -0.2311
    3DOPE    HX  286   2.193   3.350  16.499 -1.3262  1.0248  1.2458
    3DOPE    HY  287   2.360   3.297  16.516 -2.2835 -0.9592 -0.2037
    3DOPE   O31  288   2.333   3.491  16.439  0.0946  0.0551 -0.1677
    3DOPE   C31  289   2.462   3.512  16.423  0.0633  0.2305 -0.0564
    3DOPE   O32  290   2.546   3.451  16.478 -0.5328  0.4963 -0.3401
    3DOPE   C32  291   2.492   3.628  16.334 -0.3224 -0.1381  0.6636
    3DOPE   H2X  292   2.425   3.618  16.246 -1.6332  1.4262  1.4235
    3DOPE   H2Y  293   2.461   3.714  16.397  1.6806  0.6657  0.6216
    3DOPE   C23  294   2.140   3.867  16.538 -0.4807  0.9542  0.0711
    3DOPE   H3R  295   2.239   3.918  16.542  1.4288 -2.5090  1.4760
    3DOPE   H3S  296   2.065   3.948  16.548 -0.3437  1.1284 -0.3096
    3DOPE   C24  297   2.117   3.804  16.399 -0.0004 -0.5544  0.1359
    3DOPE   H4R  298   2.018   3.755  16.402  0.4051 -1.4489 -0.5523
    3DOPE   H4S  299   2.195   3.731  16.370 -1.9556 -3.0317  0.8098
    3DOPE   C25  300   2.117   3.916  16.284  0.2143 -0.3803 -0.5037
    3DOPE   H5R  301   2.207   3.980  16.293 -0.9221  1.0505  1.8483
    3DOPE   H5S  302   2.025   3.974  16.309  0.4697  0.0750 -0.5990
    3DOPE   C26  303   2.102   3.856  16.144 -0.0737 -0.2220  0.1465
    3DOPE   H6R  304   2.016   3.787  16.130 -0.0876  0.0237 -1.0924
    3DOPE   H6S  305   2.189   3.793  16.117  1.6839  2.0054  0.3314
    3DOPE   C27  306   2.087   3.958  16.028 -0.2312  0.0089  0.1095
    3DOPE   H7R  307   2.160   4.042  16.033 -0.9777  0.7946 -1.5027
    3DOPE   H7S  308   1.988   4.008  16.026  0.7632  2.2905 -3.4084
    3DOPE   C28  309   2.103   3.879  15.890 -0.2718 -0.2931 -0.4511
    3DOPE   H8R  310   2.197   3.819  15.891 -0.7649 -1.0967  0.7663
    3DOPE   H8S  311   2.115   3.962  15.818 -0.9743 -2.1373 -2.8517
    3DOPE   C29  312   1.995   3.776  15.864 -0.2419 -1.0112  0.5906
    3DOPE   H9R  313   1.965   3.703  15.941 -1.2345  0.6937  1.9056
    3DOPE  C210  314   1.911   3.784  15.757  0.1785 -0.1276 -0.3039
    3DOPE  H10R  315   1.842   3.701  15.736 -0.0413 -0.2538  0.8905
    3DOPE  C211  316   1.917   3.893  15.647  0.4164  0.4468 -0.4775
    3DOPE  H11R  317   2.012   3.945  15.623 -0.4011  2.9279  1.1950
    3DOPE  H11S  318   1.844   3.971  15.679  0.6310  0.7764 -0.7930
    3DOPE  C212  319   1.874   3.850  15.507 -0.1278  0.5155 -0.9318
    3DOPE  H12R  320   1.930   3.759  15.479  1.0724  0.4450  1.4107
    3DOPE  H12S  321   1.915   3.931  15.443  0.6778  1.1297  0.3174
    3DOPE  C213  322   1.718   3.843  15.468  0.3359  0.3359 -0.1662
    3DOPE  H13R  323   1.688   3.941  15.425 -0.2192  0.3920  0.3459
    3DOPE  H13S  324   1.660   3.838  15.563 -1.2173  3.5397 -0.7987
    3DOPE  C214  325   1.681   3.726  15.382 -0.6362 -0.4117 -0.0639
    3DOPE  H14R  326   1.583   3.737  15.331 -1.0215  1.3532  0.9936
    3DOPE  H14S  327   1.684   3.633  15.444  0.3687 -1.7773 -2.0338
    3DOPE  C215  328   1.773   3.708  15.248  0.1247 -0.1867 -0.1537
    3DOPE  H15R  329   1.768   3.600  15.223 -1.6433 -0.2653  0.4140
    3DOPE  H15S  330   1.877   3.735  15.275  0.9726 -1.6650 -1.7649
    3DOPE  C216  331   1.749   3.801  15.129 -0.3968 -0.2310 -0.1081
    3DOPE  H16R  332   1.731   3.902  15.171  0.8185 -1.1860  2.9569
    3DOPE  H16S  333   1.655   3.766  15.082  0.0014 -0.9400 -0.3993
    3DOPE  C217  334   1.852   3.807  15.017 -0.2653  0.3124  0.1323
    3DOPE  H17R  335   1.839   3.716  14.955 -0.3861 -0.9073  1.8648
    3DOPE  H17S  336   1.957   3.808  15.054 -0.6115 -3.7616  1.7172
    3DOPE  C218  337   1.815   3.928  14.932 -0.0960 -0.1956  0.5115
    3DOPE  H18R  338   1.854   4.018  14.985 -0.1101 -1.2271  2.3703
    3DOPE  H18S  339   1.707   3.945  14.911  0.1514  3.6324  1.5982
    3DOPE  H18T  340   1.870   3.929  14.836 -1.0233  0.6026 -0.0289
    3DOPE   C33  341   2.642   3.643  16.293  0.1844 -0.3015 -0.3627
    3DOPE   H3X  342   2.683   3.550  16.250 -0.9720 -1.0147  0.0164
    3DOPE   H3Y  343   2.693   3.655  16.391 -1.7926  4.0234  0.3903
    3DOPE   C34  344   2.683   3.773  16.219 -0.0516 -0.3749  0.5538
    3DOPE   H4X  345   2.682   3.863  16.284  1.3865 -1.0359  1.5622
    3DOPE   H4Y  346   2.792   3.776  16.201 -0.0945 -0.6119  0.2428
    3DOPE   C35  347   2.618   3.793  16.083  0.2715  0.3643 -0.4447
    3DOPE   H5X  348   2.662   3.884  16.036  0.2630  0.3872 -0.4086
    3DOPE   H5Y  349   2.509   3.809  16.084  0.0117 -1.0137 -2.1708
    3DOPE   C36  350   2.652   3.682  15.979 -0.1160  0.2893 -0.4628
    3DOPE   H6X  351   2.605   3.589  16.019 -1.5984  0.6729 -1.2258
    3DOPE   H6Y  352   2.761   3.664  15.985  0.0141  1.3834  1.0673
    3DOPE   C37  353   2.597   3.714  15.844  0.7424  0.4787  0.1838
    3DOPE   H7X  354   2.490   3.742  15.860  0.0959 -1.2975 -0.7792
    3DOPE   H7Y  355   2.651   3.802  15.803  1.8973 -0.7855 -1.0738
    3DOPE   C38  356   2.601   3.593  15.746 -0.5309  0.3854  0.2380
    3DOPE   H8X  357   2.547   3.640  15.661  1.3351 -0.6463 -1.6099
    3DOPE   H8Y  358   2.539   3.508  15.783  0.3845 -0.7119 -0.6886
    3DOPE   C39  359   2.733   3.541  15.707 -0.0831 -0.3862  0.2346
    3DOPE   H9X  360   2.823   3.564  15.765  0.4635 -1.7079 -0.0586
    3DOPE  C310  361   2.753   3.487  15.588 -0.0999 -0.1672  0.5102
    3DOPE  H10X  362   2.860   3.476  15.562 -0.0158  1.2539  0.2014
    3DOPE  C311  363   2.658   3.455  15.478 -0.3156  0.8859 -0.2295
    3DOPE  H11X  364   2.561   3.508  15.482 -2.8320 -3.3317 -0.0928
    3DOPE  H11Y  365   2.709   3.481  15.383 -0.0634 -3.1766 -1.3990
    3DOPE  C312  366   2.617   3.302  15.467 -0.1785 -0.1442  0.6848
    3DOPE  H12X  367   2.564   3.270  15.559 -0.1244  2.3875  1.6901
    3DOPE  H12Y  368   2.717   3.253  15.466 -0.9669 -1.8635 -1.5076
    3DOPE  C313  369   2.543   3.267  15.335  0.4606  0.6041  0.2613
    3DOPE  H13X  370   2.468   3.348  15.327  2.2842  2.4615  0.8891
    3DOPE  H13Y  371   2.603   3.268  15.241  0.3774 -2.0331  0.1075
    3DOPE  C314  372   2.480   3.124  15.352  0.2600  0.0969  0.5293
    3DOPE  H14X  373   2.411   3.102  15.268 -0.3601  1.2663  0.7083
    3DOPE  H14Y  374   2.426   3.118  15.448 -0.4063 -2.9153  0.0661
    3DOPE  C315  375   2.575   2.999  15.340 -0.9316 -0.3122  0.1339
    3DOPE  H15X  376   2.656   3.015  15.414  0.6043  0.6285 -1.6544
    3DOPE  H15Y  377   2.632   3.002  15.244  0.0427  0.4480  0.7193
    3DOPE  C316  378   2.517   2.860  15.360 -0.4647 -0.5118 -0.4775
    3DOPE  H16X  379   2.437   2.846  15.284  0.0186  0.0379 -1.0954
    3DOPE  H16Y  380   2.482   2.851  15.465  1.3663  0.2217  0.2217
    3DOPE  C317  381   2.633   2.754  15.333  0.1909  0.1715 -0.9103
    3DOPE  H17X  382   2.698   2.782  15.246  2.8182  2.1454  1.4745
    3DOPE  H17Y  383   2.695   2.742  15.424 -1.5270  0.7301  0.3699
    3DOPE  C318  384   2.572   2.615  15.303 -0.0834 -0.1364 -0.1751
    3DOPE  H18X  385   2.498   2.626  15.220  0.3500  3.2737 -0.2115
    3DOPE  H18Y  386   2.662   2.555  15.279  1.0477  2.3794 -2.8424
    3DOPE  H18Z  387   2.516   2.584  15.394  0.5476 -3.6188 -0.7979
    4DOPE     N  388   3.173   0.864  16.913  0.6081 -0.0324 -0.6008
    4DOPE   HN1  389   3.186   0.809  17.000 -0.5845  1.9170  0.8873
    4DOPE   HN2  390   3.260   0.919  16.900 -1.0594  2.6269 -1.4211
    4DOPE   HN3  391   3.094   0.929  16.931 -0.2740 -0.9720 -0.9919
    4DOPE   C12  392   3.154   0.765  16.803  0.5697 -0.3121 -1.1361
    4DOPE  H12A  393   3.243   0.764  16.737  0.9906  0.8651 -0.6206
    4DOPE  H12B  394   3.070   0.806  16.741 -0.0561  0.7552  0.3545
    4DOPE   C11  395   3.113   0.633  16.866  0.0353 -0.0873  0.5673
    4DOPE  H11A  396   3.205   0.578  16.896  1.0213  1.1760  0.0015
    4DOPE  H11B  397   3.075   0.554  16.798  1.4065 -1.6044  1.4758
    4DOPE     P  398   2.872   0.673  16.978  0.1687  0.0547 -0.1774
    4DOPE   O13  399   2.851   0.765  17.088  0.3499  0.0921  0.2262
    4DOPE   O14  400   2.799   0.541  16.991 -0.1646  0.2080 -0.5609
    4DOPE   O11  401   2.843   0.748  16.844 -0.1738  0.0820  0.5595
    4DOPE   O12  402   3.028   0.650  16.976 -0.2996 -0.2107  0.9644
    4DOPE    C1  403   2.740   0.695  16.758  0.4552 -0.0086  0.1187
    4DOPE    HA  404   2.673   0.775  16.720 -3.3457 -1.8272  2.4374
    4DOPE    HB  405   2.665   0.633  16.811  2.3826 -2.2822  0.3813
    4DOPE    C2  406   2.792   0.618  16.639 -0.3884  0.4473 -0.5603
    4DOPE    HS  407   2.860   0.538  16.676  0.9130  0.9860 -1.6880
    4DOPE   O21  408   2.857   0.703  16.538 -0.2249  0.2769 -0.1798
    4DOPE   C21  409   2.957   0.634  16.484 -0.0209 -0.3136  0.1403
    4DOPE   O22  410   3.006   0.537  16.524 -0.1869  0.0996  0.1736
    4DOPE   C22  411   2.983   0.706  16.357  0.0877 -0.8365 -0.1457
    4DOPE   H2R  412   3.002   0.810  16.389 -1.2869 -0.6686  0.1759
    4DOPE   H2S  413   2.895   0.714  16.289  1.2007 -0.5820 -1.6218
    4DOPE    C3  414   2.670   0.541  16.571 -0.1336 -0.7912  0.1439
    4DOPE    HX  415   2.591   0.608  16.531 -0.5147 -0.7902  0.8726
    4DOPE    HY  416   2.617   0.489  16.654  1.0202 -0.7915  0.8962
    4DOPE   O31  417   2.720   0.453  16.460  0.2315  0.2169 -0.3669
    4DOPE   C31  418   2.773   0.337  16.498 -0.7567  0.7699 -0.0926
    4DOPE   O32  419   2.768   0.289  16.609 -0.3474 -0.1175 -0.0788
    4DOPE   C32  420   2.825   0.267  16.374  0.1515  0.1965  0.0823
    4DOPE   H2X  421   2.741   0.231  16.310 -0.2802 -1.0046  1.2737
    4DOPE   H2Y  422   2.886   0.338  16.314  1.4296 -3.0031 -2.7529
    4DOPE   C23  423   3.104   0.648  16.287 -0.3348 -0.5616  0.3945
    4DOPE   H3R  424   3.075   0.558  16.230 -0.0240 -0.3319 -0.1301
    4DOPE   H3S  425   3.180   0.613  16.361 -0.2636  3.2501  2.4249
    4DOPE   C24  426   3.177   0.743  16.194  0.4607  0.3459  0.1804
    4DOPE   H4R  427   3.274   0.699  16.162 -0.7650 -1.2521 -1.5401
    4DOPE   H4S  428   3.200   0.839  16.245  2.3725 -0.6028  1.1936
    4DOPE   C25  429   3.101   0.761  16.063 -0.0854  0.2512  0.7867
    4DOPE   H5R  430   3.155   0.835  16.001  0.7879 -1.8053 -1.0485
    4DOPE   H5S  431   3.001   0.804  16.080 -0.8975 -2.4432  3.8771
    4DOPE   C26  432   3.074   0.634  15.982  0.2155  0.0345  0.0783
    4DOPE   H6R  433   3.041   0.546  16.041  1.6122  0.1597  1.0836
    4DOPE   H6S  434   3.175   0.606  15.944 -0.2021 -1.9745  0.3799
    4DOPE   C27  435   2.982   0.654  15.861 -0.6809 -0.1548 -0.5090
    4DOPE   H7R  436   3.013   0.746  15.806  1.0837  0.0217  0.6928
    4DOPE   H7S  437   2.878   0.672  15.894 -1.0338  0.8788 -2.0505
    4DOPE   C28  438   2.983   0.541  15.766 -0.4464 -0.0229 -0.5720
    4DOPE   H8R  439   3.089   0.527  15.734 -0.4782  0.2653 -0.8177
    4DOPE   H8S  440   2.931   0.583  15.677 -0.4519  2.3590  0.4625
    4DOPE   C29  441   2.911   0.418  15.814 -0.0799 -0.4862 -0.1682
    4DOPE   H9R  442   2.943   0.385  15.914  0.7415 -0.4849 -0.4209
    4DOPE  C210  443   2.813   0.348  15.754 -0.4366  0.1557 -0.1558
    4DOPE  H10R  444   2.772   0.255  15.795 -0.7593 -1.0007 -2.9187
    4DOPE  C211  445   2.762   0.372  15.616  0.2624  0.1430  0.4000
    4DOPE  H11R  446   2.779   0.475  15.578 -0.0102  0.1361  0.2583
    4DOPE  H11S  447   2.651   0.367  15.616  0.2205  0.9118  0.6333
    4DOPE  C212  448   2.813   0.266  15.524  0.0970  0.3000 -0.0654
    4DOPE  H12R  449   2.766   0.280  15.425  1.9457  0.1850 -0.9933
    4DOPE  H12S  450   2.805   0.162  15.565  0.4851 -0.3181 -1.4942
    4DOPE  C213  451   2.964   0.278  15.485  0.0054  0.1909  0.5806
    4DOPE  H13R  452   3.024   0.273  15.579  0.3418 -3.3708  0.3139
    4DOPE  H13S  453   2.981   0.375  15.434  0.9222  0.8892  2.1292
    4DOPE  C214  454   3.014   0.173  15.382  0.0526 -0.6581  0.1732
    4DOPE  H14R  455   3.036   0.083  15.444  3.3788 -0.2776 -0.2606
    4DOPE  H14S  456   3.113   0.209  15.346  0.6676  0.0784  2.4483
    4DOPE  C215  457   2.914   0.145  15.264 -0.3227  0.4067 -0.3396
    4DOPE  H15R  458   2.886   0.241  15.215 -2.7809 -0.3744 -0.6111
    4DOPE  H15S  459   2.819   0.099  15.296  1.6182 -1.8543  2.7004
    4DOPE  C216  460   2.966   0.057  15.157 -0.0579  0.4433 -0.6701
    4DOPE  H16R  461   2.987  -0.037  15.211 -0.0333  0.0930 -1.2740
    4DOPE  H16S  462   3.062   0.094  15.114  0.6438  0.3899  0.7958
    4DOPE  C217  463   2.866   0.033  15.043 -0.2823  0.2839  0.0170
    4DOPE  H17R  464   2.893   0.105  14.963 -1.4223 -0.3144 -0.9310
    4DOPE  H17S  465   2.763   0.063  15.072 -0.8023 -2.0897  0.8490
    4DOPE  C218  466   2.879  -0.109  14.990 -0.6081  0.0344  0.2010
    4DOPE  H18R  467   2.981  -0.152  14.986 -1.2949 -1.5958 -0.4245
    4DOPE  H18S  468   2.825  -0.119  14.894  1.1355 -2.2623 -0.6104
    4DOPE  H18T  469   2.828  -0.161  15.075 -0.3881 -0.0220  0.2996
    4DOPE   C33  470   2.915   0.142  16.409  1.2063  0.0293  0.3005
    4DOPE   H3X  471   2.847   0.070  16.458  3.0625 -0.6296  1.9946
    4DOPE   H3Y  472   2.990   0.153  16.490  0.7797 -1.6111  0.9459
    4DOPE   C34  473   2.975   0.080  16.282 -0.0462  0.5414 -0.1734
    4DOPE   H4X  474   2.898   0.054  16.206  0.9467  2.5432 -1.9771
    4DOPE   H4Y  475   3.042   0.156  16.237  0.5100  2.0933  2.9850
    4DOPE   C35  476   3.048  -0.060  16.299  0.5846 -0.1550  0.4086
    4DOPE   H5X  477   2.989  -0.130  16.364  1.5645  2.1481  4.1091
    4DOPE   H5Y  478   3.141  -0.036  16.355 -0.7002  2.3009  1.6546
    4DOPE   C36  479   3.078  -0.119  16.159 -0.3323  0.0822 -0.1439
    4DOPE   H6X  480   3.068  -0.037  16.086  0.8859  0.2607 -0.1276
    4DOPE   H6Y  481   2.999  -0.192  16.131 -0.1976 -0.1383  0.0453
    4DOPE   C37  482   3.208  -0.198  16.146 -0.6260  0.4963  0.0450
    4DOPE   H7X  483   3.297  -0.133  16.160 -0.3500  1.1020 -3.5672
    4DOPE   H7Y  484   3.204  -0.269  16.231 -1.9997  0.9455  0.3821
    4DOPE   C38  485   3.216  -0.272  16.015 -0.0721 -0.2308  0.0386
    4DOPE   H8X  486   3.114  -0.280  15.973 -0.3106 -0.0550  0.5797
    4DOPE   H8Y  487   3.258  -0.373  16.036 -1.6356 -1.0362 -0.5777
    4DOPE   C39  488   3.309  -0.216  15.915  0.0886 -0.1660  0.0090
    4DOPE   H9X  489   3.402  -0.168  15.949  0.7345 -1.8279  0.7029
    4DOPE  C310  490   3.296  -0.207  15.782  0.5059  0.7415 -0.4261
    4DOPE  H10X  491   3.370  -0.151  15.722 -0.4673  0.1831 -2.2393
    4DOPE  C311  492   3.180  -0.261  15.703 -0.1107 -0.4762 -0.8249
    4DOPE  H11X  493   3.199  -0.370  15.694  0.1332 -0.3439 -2.0273
    4DOPE  H11Y  494   3.090  -0.259  15.768  1.5975  0.2734  1.6558
    4DOPE  C312  495   3.162  -0.191  15.575  0.1655 -1.2073  0.2041
    4DOPE  H12X  496   3.140  -0.083  15.583 -2.4290 -1.6973  0.7545
    4DOPE  H12Y  497   3.064  -0.233  15.541 -0.4908 -0.9885  1.7307
    4DOPE  C313  498   3.270  -0.210  15.467 -0.2256  0.3037 -0.8623
    4DOPE  H13X  499   3.370  -0.168  15.492 -0.3745  0.1447  0.0222
    4DOPE  H13Y  500   3.294  -0.318  15.464  0.2861  0.4401 -2.2373
    4DOPE  C314  501   3.228  -0.169  15.331 -0.4625 -0.3973  0.1919
    4DOPE  H14X  502   3.192  -0.064  15.324 -0.3678 -0.4017 -0.3857
    4DOPE  H14Y  503   3.140  -0.229  15.300 -0.5307  0.0074 -0.4216
    4DOPE  C315  504   3.342  -0.178  15.223 -0.1983  0.3101  0.1481
    4DOPE  H15X  505   3.361  -0.285  15.204 -2.5455 -0.0981 -0.1424
    4DOPE  H15Y  506   3.431  -0.125  15.263  0.2560 -0.5069  0.2327
    4DOPE  C316  507   3.316  -0.119  15.087 -0.5981 -0.1355 -0.1936
    4DOPE  H16X  508   3.289  -0.012  15.102 -0.3842 -0.1625  0.4236
    4DOPE  H16Y  509   3.227  -0.162  15.036 -0.5122 -3.3261  2.0737
    4DOPE  C317  510   3.432  -0.137  14.984 -0.1671 -0.5870 -0.0750
    4DOPE  H17X  511   3.527  -0.090  15.019 -0.2874 -0.3375 -0.0841
    4DOPE  H17Y  512   3.448  -0.246  14.969 -1.6563 -0.9187  0.5220
    4DOPE  C318  513   3.392  -0.072  14.848 -0.1885 -0.0796 -0.7752
    4DOPE  H18X  514   3.478  -0.075  14.778  0.2818  2.1263 -0.3743
    4DOPE  H18Y  515   3.310  -0.128  14.799 -0.5351 -0.0774 -0.2030
    4DOPE  H18Z  516   3.370   0.035  14.869  2.2377 -0.2284  3.9277
    5DOPE     N  517   1.438   4.321  17.495  0.1204  0.5824 -0.0760
    5DOPE   HN1  518   1.412   4.421  17.487  0.0590  0.4109 -3.1955
    5DOPE   HN2  519   1.369   4.291  17.566  0.7932  1.6265  1.0513
    5DOPE   HN3  520   1.534   4.328  17.534  0.7875 -0.7054 -1.3709
    5DOPE   C12  521   1.428   4.241  17.363  0.7682 -0.5676  0.5353
    5DOPE  H12A  522   1.329   4.257  17.315  1.2835  0.7206 -0.1565
    5DOPE  H12B  523   1.438   4.131  17.375  0.0925 -0.8244 -0.9997
    5DOPE   C11  524   1.548   4.291  17.282 -0.1161 -0.0259  0.3743
    5DOPE  H11A  525   1.554   4.243  17.182  1.7647 -0.3921  0.6152
    5DOPE  H11B  526   1.645   4.258  17.324  1.1111  0.5411 -1.8287
    5DOPE     P  527   1.641   4.521  17.183 -0.0613  0.2385  0.2645
    5DOPE   O13  528   1.775   4.500  17.242  0.4422  0.0615 -0.1385
    5DOPE   O14  529   1.589   4.658  17.175 -0.0294  0.0174  0.0151
    5DOPE   O11  530   1.634   4.441  17.040  0.2938 -0.1917  0.9165
    5DOPE   O12  531   1.545   4.436  17.268  0.2042 -0.1066  0.1476
    5DOPE    C1  532   1.515   4.410  16.966  0.5053 -0.3061 -0.1843
    5DOPE    HA  533   1.431   4.438  17.033  0.6580  3.1431 -1.2595
    5DOPE    HB  534   1.511   4.300  16.950  1.5327 -0.6951  1.8763
    5DOPE    C2  535   1.498   4.481  16.830  0.4282  0.1555  0.7938
    5DOPE    HS  536   1.403   4.441  16.786 -0.2717  1.3868  1.1562
    5DOPE   O21  537   1.612   4.446  16.749  0.1043  1.0829  0.4855
    5DOPE   C21  538   1.618   4.321  16.704 -0.1453  0.4032 -0.0674
    5DOPE   O22  539   1.524   4.244  16.710  0.3792 -0.5350  0.3717
    5DOPE   C22  540   1.750   4.292  16.646  0.1705  0.3067  0.6496
    5DOPE   H2R  541   1.782   4.190  16.677 -2.7894 -0.9065  0.0444
    5DOPE   H2S  542   1.827   4.364  16.681 -1.8488  3.3554 -0.7979
    5DOPE    C3  543   1.470   4.638  16.844  0.1308  0.3928 -0.1100
    5DOPE    HX  544   1.549   4.687  16.905  1.8212 -0.7363 -1.3146
    5DOPE    HY  545   1.375   4.658  16.899 -0.6162  1.5619 -1.7111
    5DOPE   O31  546   1.470   4.702  16.713 -0.3968 -0.0785  0.5737
    5DOPE   C31  547   1.465   4.832  16.718 -0.2827 -0.5385  0.3801
    5DOPE   O32  548   1.450   4.897  16.820  0.6066  0.7622  0.1742
    5DOPE   C32  549   1.478   4.898  16.581 -0.9784  0.3724 -0.1573
    5DOPE   H2X  550   1.436   4.828  16.506 -1.8796  0.0042  0.6753
    5DOPE   H2Y  551   1.428   4.997  16.590  1.2854  1.6433 -0.8263
    5DOPE   C23  552   1.763   4.294  16.489  0.0986 -0.2464 -0.0548
    5DOPE   H3R  553   1.724   4.392  16.455 -4.4000 -1.2263  1.6149
    5DOPE   H3S  554   1.692   4.216  16.454 -1.6030  0.2046  2.1710
    5DOPE   C24  555   1.904   4.267  16.442  0.0148 -0.4348  0.6995
    5DOPE   H4R  556   1.930   4.158  16.443 -0.9698 -0.6907 -0.1787
    5DOPE   H4S  557   1.971   4.319  16.514 -0.2262  0.8184  0.0427
    5DOPE   C25  558   1.922   4.330  16.302  0.1768  0.0657 -0.4329
    5DOPE   H5R  559   2.028   4.363  16.304  0.4128 -0.6751  0.8546
    5DOPE   H5S  560   1.850   4.412  16.284 -1.8961 -1.7319 -0.6503
    5DOPE   C26  561   1.898   4.244  16.169  0.2625  0.2521 -0.2952
    5DOPE   H6R  562   1.809   4.181  16.187 -0.0754  1.1215  1.1772
    5DOPE   H6S  563   1.985   4.179  16.147  0.2651 -0.0289  0.5268
    5DOPE   C27  564   1.858   4.325  16.042 -0.8979 -0.4410 -0.6891
    5DOPE   H7R  565   1.767   4.387  16.060 -2.0785 -2.0565 -0.8687
    5DOPE   H7S  566   1.814   4.257  15.966 -3.4662 -0.3267  0.5752
    5DOPE   C28  567   1.976   4.414  15.982  0.2328  0.6361  0.4042
    5DOPE   H8R  568   2.033   4.468  16.061  0.7850  0.6013  0.0325
    5DOPE   H8S  569   1.936   4.493  15.916  0.6283 -0.8941 -1.7832
    5DOPE   C29  570   2.091   4.323  15.928 -0.0380 -0.2136 -0.4113
    5DOPE   H9R  571   2.163   4.280  15.999  1.3135 -0.1976 -1.7343
    5DOPE  C210  572   2.122   4.319  15.800 -0.4628  0.0566  0.3019
    5DOPE  H10R  573   2.201   4.249  15.771 -1.0344 -0.5260  0.1309
    5DOPE  C211  574   2.032   4.377  15.690 -0.5420  0.6005 -0.0408
    5DOPE  H11R  575   2.088   4.389  15.595  2.6538 -1.1866  1.4500
    5DOPE  H11S  576   1.991   4.472  15.729 -2.8703 -0.2503 -0.2412
    5DOPE  C212  577   1.922   4.279  15.654  0.5813  0.2313 -0.0356
    5DOPE  H12R  578   1.861   4.254  15.744  1.1435  1.2016  0.6337
    5DOPE  H12S  579   1.975   4.188  15.618 -1.2258 -1.1968  0.7259
    5DOPE  C213  580   1.836   4.328  15.537  0.0053 -0.3465 -0.5152
    5DOPE  H13R  581   1.899   4.369  15.455 -1.4460 -0.0547 -1.5230
    5DOPE  H13S  582   1.776   4.414  15.575  0.2343  1.1285 -3.2277
    5DOPE  C214  583   1.750   4.220  15.476  0.0415  0.2603 -0.1828
    5DOPE  H14R  584   1.678   4.176  15.548  0.1186  0.4043 -0.0157
    5DOPE  H14S  585   1.803   4.127  15.447  0.2173  0.5109 -0.6795
    5DOPE  C215  586   1.670   4.270  15.357  0.3627 -0.2744 -0.2651
    5DOPE  H15R  587   1.643   4.377  15.372 -3.5693 -1.3077  0.9705
    5DOPE  H15S  588   1.567   4.229  15.352  0.7150 -1.1450 -0.4546
    5DOPE  C216  589   1.730   4.235  15.211 -0.1061 -0.7871 -0.3104
    5DOPE  H16R  590   1.755   4.127  15.205 -0.5745 -0.8830 -0.6053
    5DOPE  H16S  591   1.824   4.290  15.193 -0.8434  0.0528 -1.7411
    5DOPE  C217  592   1.641   4.258  15.082  0.1120 -0.0261 -0.1178
    5DOPE  H17R  593   1.707   4.248  14.993  0.3441  2.0732 -0.2345
    5DOPE  H17S  594   1.610   4.365  15.087 -0.7510 -0.1996 -1.3451
    5DOPE  C218  595   1.524   4.171  15.077  0.0094  0.5821 -0.0094
    5DOPE  H18R  596   1.454   4.199  15.158  0.1575  1.9149 -0.3221
    5DOPE  H18S  597   1.544   4.061  15.073  0.8015  0.7295 -0.3394
    5DOPE  H18T  598   1.472   4.190  14.981 -0.5099  0.2258  0.1967
    5DOPE   C33  599   1.625   4.933  16.530  0.0332 -0.9020 -0.1832
    5DOPE   H3X  600   1.666   5.001  16.608 -2.9989 -1.9473  2.5758
    5DOPE   H3Y  601   1.619   4.988  16.434  1.5726  2.4484  1.4473
    5DOPE   C34  602   1.725   4.819  16.508 -0.4801  0.7347 -0.2895
    5DOPE   H4X  603   1.700   4.742  16.584 -0.0940  0.0846 -0.8138
    5DOPE   H4Y  604   1.714   4.770  16.409 -0.1955 -0.0331  0.0464
    5DOPE   C35  605   1.870   4.864  16.529  0.2100  0.3275  0.2066
    5DOPE   H5X  606   1.865   4.945  16.605  0.0860  1.8478 -1.3548
    5DOPE   H5Y  607   1.900   4.907  16.431 -0.8089  0.2620 -0.1411
    5DOPE   C36  608   1.968   4.751  16.575 -0.3516 -0.5669  0.6990
    5DOPE   H6X  609   1.930   4.696  16.664  1.4846 -1.7439  0.8038
    5DOPE   H6Y  610   2.054   4.810  16.612 -2.0225  0.7730  2.6790
    5DOPE   C37  611   2.001   4.658  16.459 -0.2485 -0.0750  0.2250
    5DOPE   H7X  612   2.081   4.588  16.491  0.8321  1.8082  1.7940
    5DOPE   H7Y  613   1.917   4.587  16.440 -0.2653 -0.1744  0.6681
    5DOPE   C38  614   2.019   4.723  16.315  0.1449 -0.7041 -0.1084
    5DOPE   H8X  615   1.931   4.774  16.270  1.7531  2.4551  0.0816
    5DOPE   H8Y  616   2.038   4.641  16.241  0.2868 -2.0806  1.3955
    5DOPE   C39  617   2.140   4.822  16.336  0.3646  0.6924 -0.3244
    5DOPE   H9X  618   2.210   4.801  16.418  2.0966 -2.2800 -2.3514
    5DOPE  C310  619   2.183   4.918  16.257 -0.0928  0.0031  0.8783
    5DOPE  H10X  620   2.268   4.981  16.286  1.6513 -1.3482 -1.0335
    5DOPE  C311  621   2.136   4.953  16.116 -0.0345  0.0878  0.2280
    5DOPE  H11X  622   2.026   4.942  16.108 -0.2333  1.1765  1.1573
    5DOPE  H11Y  623   2.153   5.063  16.106  1.5258 -0.0234  1.2088
    5DOPE  C312  624   2.190   4.865  16.000 -0.1755 -0.2259  0.4140
    5DOPE  H12X  625   2.174   4.759  16.030  1.5136 -1.0925 -1.4478
    5DOPE  H12Y  626   2.299   4.871  15.981 -0.0186 -1.0660  0.9936
    5DOPE  C313  627   2.117   4.898  15.865 -0.2267 -0.5413  0.1701
    5DOPE  H13X  628   2.007   4.880  15.870 -0.3642  0.1077 -0.3119
    5DOPE  H13Y  629   2.148   5.002  15.840  1.5072 -0.5446  2.0226
    5DOPE  C314  630   2.165   4.811  15.746  0.0533  0.1030  0.0822
    5DOPE  H14X  631   2.178   4.704  15.774  1.1287  0.7600  2.3099
    5DOPE  H14Y  632   2.270   4.835  15.720 -0.0564 -1.1421 -1.7107
    5DOPE  C315  633   2.084   4.829  15.611  0.3105  0.1365 -0.3304
    5DOPE  H15X  634   2.094   4.930  15.565 -1.2975  0.2250 -0.5556
    5DOPE  H15Y  635   1.978   4.813  15.639  0.7619 -2.2412  0.1846
    5DOPE  C316  636   2.113   4.724  15.502  0.4321  0.3104  0.1577
    5DOPE  H16X  637   2.092   4.620  15.535 -3.7604  1.6337  2.4755
    5DOPE  H16Y  638   2.219   4.742  15.475  0.0308 -0.3847 -2.1607
    5DOPE  C317  639   2.032   4.750  15.374  0.2052 -0.2239  0.0885
    5DOPE  H17X  640   1.926   4.750  15.406 -0.0718  0.9095 -0.7847
    5DOPE  H17Y  641   2.043   4.847  15.320 -0.1842 -0.5767 -0.6534
    5DOPE  C318  642   2.036   4.633  15.270 -0.0095  0.1930  0.2942
    5DOPE  H18X  643   2.143   4.626  15.241 -0.3100 -1.6548 -0.4775
    5DOPE  H18Y  644   1.999   4.538  15.314 -1.0649  0.3748 -0.1860
    5DOPE  H18Z  645   1.980   4.646  15.175 -0.7113  1.6345  0.8705
    6DOPE     N  646   1.328   5.086  17.015  0.1136  0.1107 -0.0753
    6DOPE   HN1  647   1.266   5.158  16.973  0.3697  0.0998 -0.4760
    6DOPE   HN2  648   1.422   5.103  16.975  1.8248 -3.0458  2.1154
    6DOPE   HN3  649   1.286   4.999  16.976  2.8089  0.0021 -3.0633
    6DOPE   C12  650   1.335   5.085  17.166  0.4896 -0.1054 -0.5340
    6DOPE  H12A  651   1.405   5.168  17.191 -2.0948  2.6393 -1.8744
    6DOPE  H12B  652   1.371   4.990  17.212  0.5177  0.0009 -0.3330
    6DOPE   C11  653   1.200   5.124  17.227 -0.3731  0.2579  0.3056
    6DOPE  H11A  654   1.223   5.141  17.335  2.1860  0.2316 -0.1551
    6DOPE  H11B  655   1.126   5.041  17.220  1.0686 -1.2212  1.5794
    6DOPE     P  656   1.136   5.379  17.242 -0.3766  0.0424 -0.0994
    6DOPE   O13  657   1.267   5.431  17.294 -0.2746  0.7615  0.5215
    6DOPE   O14  658   1.026   5.367  17.340 -0.3542  0.2429  0.1799
    6DOPE   O11  659   1.092   5.473  17.128  0.0099 -0.3383 -0.1568
    6DOPE   O12  660   1.144   5.243  17.166  0.1835  0.3203  0.2188
    6DOPE    C1  661   0.967   5.480  17.060  0.0603 -0.0616 -0.1231
    6DOPE    HA  662   0.956   5.587  17.031 -1.2188 -0.1720 -0.1020
    6DOPE    HB  663   0.882   5.461  17.130  1.8327 -0.3389  2.0668
    6DOPE    C2  664   0.963   5.377  16.942  0.4536 -0.1086 -0.7661
    6DOPE    HS  665   0.997   5.278  16.979  2.5290  0.7449 -0.2096
    6DOPE   O21  666   1.038   5.442  16.829  0.1229  0.1343 -0.2251
    6DOPE   C21  667   1.141   5.374  16.797  0.0386 -0.1477 -0.0459
    6DOPE   O22  668   1.188   5.271  16.840 -0.0515 -0.0038 -0.4579
    6DOPE   C22  669   1.212   5.453  16.686 -0.5802  0.4255 -0.0271
    6DOPE   H2R  670   1.261   5.534  16.745  0.8319 -0.4392  0.0304
    6DOPE   H2S  671   1.135   5.499  16.620 -1.0760  1.1227  0.9993
    6DOPE    C3  672   0.814   5.355  16.893 -0.1953  0.0623 -0.2685
    6DOPE    HX  673   0.786   5.461  16.874  0.3513  0.7871  2.4570
    6DOPE    HY  674   0.765   5.322  16.987  0.0156  1.6712  0.4427
    6DOPE   O31  675   0.797   5.265  16.778  0.2481  0.1375 -0.2661
    6DOPE   C31  676   0.794   5.137  16.805 -0.1028  0.9414  0.2624
    6DOPE   O32  677   0.788   5.085  16.915 -0.3039  0.4204  0.0429
    6DOPE   C32  678   0.789   5.056  16.669 -0.1006 -0.3107 -0.8904
    6DOPE   H2X  679   0.813   4.953  16.703 -0.5080  0.2511  1.3106
    6DOPE   H2Y  680   0.687   5.066  16.626  0.4211  0.4226 -2.0111
    6DOPE   C23  681   1.312   5.378  16.596 -0.2099  0.1589 -0.3856
    6DOPE   H3R  682   1.399   5.337  16.652  0.8590  1.6518 -0.8942
    6DOPE   H3S  683   1.359   5.451  16.527 -2.7307  3.6979  1.3306
    6DOPE   C24  684   1.253   5.276  16.497 -0.0438  0.1537  0.1732
    6DOPE   H4R  685   1.173   5.331  16.444 -0.9367 -1.1021  0.1980
    6DOPE   H4S  686   1.208   5.189  16.548 -0.6577  0.2156 -0.2657
    6DOPE   C25  687   1.354   5.228  16.405  0.5369  0.2071  0.1465
    6DOPE   H5R  688   1.428   5.166  16.460 -0.3225 -0.4237  0.6215
    6DOPE   H5S  689   1.392   5.318  16.353  0.1284  0.8962  1.0125
    6DOPE   C26  690   1.296   5.132  16.308  0.9345 -0.4667  0.5885
    6DOPE   H6R  691   1.196   5.168  16.276  0.8567 -1.2475 -0.0950
    6DOPE   H6S  692   1.285   5.032  16.354 -0.7945 -0.0246  1.1920
    6DOPE   C27  693   1.398   5.109  16.206  0.0472  0.1703  0.5406
    6DOPE   H7R  694   1.486   5.061  16.253 -1.6701 -2.6650  1.0700
    6DOPE   H7S  695   1.430   5.203  16.155  1.3345  0.2350  1.4120
    6DOPE   C28  696   1.352   5.017  16.094  0.1733  0.5781 -0.3220
    6DOPE   H8R  697   1.349   4.914  16.136 -0.2399  0.2467 -1.1392
    6DOPE   H8S  698   1.435   5.016  16.021  0.1468  0.9332 -0.3550
    6DOPE   C29  699   1.223   5.051  16.030  0.2414  0.5645 -0.6075
    6DOPE   H9R  700   1.145   5.063  16.106  0.0601 -0.9491 -0.5291
    6DOPE  C210  701   1.195   5.077  15.903 -0.3286  0.1275 -0.6173
    6DOPE  H10R  702   1.092   5.101  15.872 -1.0167  0.6013  1.8323
    6DOPE  C211  703   1.300   5.067  15.787 -0.0354 -0.3170 -0.6332
    6DOPE  H11R  704   1.399   5.045  15.831  0.1208 -0.6112 -1.1227
    6DOPE  H11S  705   1.315   5.167  15.740  0.5423  0.9214  2.0183
    6DOPE  C212  706   1.265   4.958  15.688  0.2984 -0.4622 -0.0891
    6DOPE  H12R  707   1.245   4.857  15.730  0.4999  0.0310  1.2436
    6DOPE  H12S  708   1.353   4.955  15.621  0.1134 -0.1468 -0.3462
    6DOPE  C213  709   1.141   4.983  15.599 -0.0418 -0.3287 -0.1365
    6DOPE  H13R  710   1.141   5.088  15.563 -0.5403  0.4727  2.0385
    6DOPE  H13S  711   1.041   4.977  15.647 -0.1670 -1.5857 -0.5202
    6DOPE  C214  712   1.149   4.901  15.473 -0.2189  0.1599 -0.2785
    6DOPE  H14R  713   1.137   4.794  15.500 -0.3869 -0.2377 -1.8028
    6DOPE  H14S  714   1.244   4.920  15.418  0.0798  3.0619  1.0724
    6DOPE  C215  715   1.039   4.939  15.368 -0.3978  0.5305  0.1057
    6DOPE  H15R  716   1.045   5.049  15.357  0.4446  0.4421 -0.3819
    6DOPE  H15S  717   0.937   4.913  15.406 -0.0826 -0.7887  0.1066
    6DOPE  C216  718   1.067   4.865  15.237 -0.0420  0.6752  0.1768
    6DOPE  H16R  719   1.072   4.757  15.260 -0.3713  0.1176 -2.1005
    6DOPE  H16S  720   1.169   4.889  15.199  0.4941 -0.2557  0.9859
    6DOPE  C217  721   0.958   4.897  15.125  0.5490 -0.0928  0.2671
    6DOPE  H17R  722   0.951   5.007  15.111  0.9070 -0.1275 -0.1810
    6DOPE  H17S  723   0.854   4.868  15.154  0.9311 -0.0511  1.7440
    6DOPE  C218  724   0.984   4.839  14.984 -1.0549  0.3006 -0.8603
    6DOPE  H18R  725   0.986   4.728  14.993 -1.6709  0.4598  2.7247
    6DOPE  H18S  726   1.082   4.875  14.947  0.9294 -1.7038  2.0267
    6DOPE  H18T  727   0.902   4.857  14.911  0.8940  0.6588 -3.0939
    6DOPE   C33  728   0.902   5.101  16.574  0.2829 -1.0896 -0.7364
    6DOPE   H3X  729   0.992   5.080  16.635 -0.8251 -1.7088  0.7622
    6DOPE   H3Y  730   0.907   5.211  16.563  2.5419 -1.2999 -2.4336
    6DOPE   C34  731   0.914   5.032  16.436  0.7158 -0.2807 -0.3190
    6DOPE   H4X  732   0.823   5.054  16.375  1.1114  0.0290 -0.8065
    6DOPE   H4Y  733   0.989   5.085  16.374 -2.0642  1.2321 -2.6481
    6DOPE   C35  734   0.937   4.882  16.440 -0.6488 -0.0210  0.6051
    6DOPE   H5X  735   0.867   4.821  16.501  1.8461 -3.1602  0.5936
    6DOPE   H5Y  736   1.039   4.868  16.481 -1.2700  0.4649  2.4043
    6DOPE   C36  737   0.926   4.825  16.294  0.0878 -0.0985  0.7160
    6DOPE   H6X  738   0.989   4.734  16.288  1.8921  1.1012  0.7268
    6DOPE   H6Y  739   0.970   4.898  16.223 -1.0493 -0.4069 -0.3401
    6DOPE   C37  740   0.779   4.792  16.248  0.2200 -0.0584 -0.6875
    6DOPE   H7X  741   0.734   4.720  16.319 -0.4020  1.4344  0.4743
    6DOPE   H7Y  742   0.714   4.883  16.250 -1.1117 -0.9942  0.1983
    6DOPE   C38  743   0.773   4.742  16.102 -0.0734  0.0167 -0.2906
    6DOPE   H8X  744   0.685   4.673  16.097 -0.3209  0.1792  1.3199
    6DOPE   H8Y  745   0.855   4.668  16.098  1.3572  1.3870  1.6933
    6DOPE   C39  746   0.777   4.841  15.994 -0.5579  0.0424 -0.4740
    6DOPE   H9X  747   0.818   4.939  16.023 -1.1977  0.0424  0.4662
    6DOPE  C310  748   0.747   4.814  15.865 -0.1695  0.1029  0.6028
    6DOPE  H10X  749   0.744   4.899  15.795 -0.1821  0.1654  0.6782
    6DOPE  C311  750   0.704   4.685  15.808  0.9810  0.2922 -0.3783
    6DOPE  H11X  751   0.737   4.609  15.882  2.5714  2.2000  0.9863
    6DOPE  H11Y  752   0.595   4.667  15.800  0.8134  1.0606  0.1101
    6DOPE  C312  753   0.771   4.636  15.676 -1.1002 -0.8771  0.3123
    6DOPE  H12X  754   0.791   4.527  15.683 -0.7339 -0.7777  0.9112
    6DOPE  H12Y  755   0.871   4.685  15.671 -0.5069 -1.8751  1.6342
    6DOPE  C313  756   0.682   4.668  15.551 -0.1942 -0.2566  0.1878
    6DOPE  H13X  757   0.587   4.612  15.547 -0.4634  0.2882 -2.1386
    6DOPE  H13Y  758   0.661   4.777  15.554  2.5458  0.4219  4.3625
    6DOPE  C314  759   0.750   4.626  15.421 -0.7789  0.1835 -0.3230
    6DOPE  H14X  760   0.765   4.519  15.445 -1.1556 -0.3831 -2.4372
    6DOPE  H14Y  761   0.852   4.672  15.423 -0.6813  0.2279  4.0989
    6DOPE  C315  762   0.666   4.641  15.290  0.2951  0.0565 -0.8726
    6DOPE  H15X  763   0.629   4.745  15.278 -0.2603  0.1134  0.9876
    6DOPE  H15Y  764   0.569   4.590  15.307 -0.4447  1.6708 -0.0058
    6DOPE  C316  765   0.743   4.593  15.163  0.0841 -0.4146  0.3496
    6DOPE  H16X  766   0.813   4.508  15.177 -0.1235 -0.6473 -0.0184
    6DOPE  H16Y  767   0.813   4.678  15.146  2.2286 -1.7461  1.9146
    6DOPE  C317  768   0.638   4.563  15.047 -0.0201  0.1986  0.1834
    6DOPE  H17X  769   0.575   4.486  15.097  1.1893 -0.0973  1.3032
    6DOPE  H17Y  770   0.568   4.648  15.033  1.2680  0.8633 -3.2279
    6DOPE  C318  771   0.707   4.541  14.914 -0.2479 -0.6605  0.1205
    6DOPE  H18X  772   0.639   4.506  14.834 -0.3056  0.6258 -0.4158
    6DOPE  H18Y  773   0.744   4.634  14.868 -0.5825 -2.0564 -3.2570
    6DOPE  H18Z  774   0.792   4.470  14.929  2.2970  1.9377 -1.0339
    7DOPE     N  775   3.992   5.133  17.283  0.2816 -0.3289  0.2375
    7DOPE   HN1  776   3.939   5.210  17.329  0.3515 -1.5722  2.6009
    7DOPE   HN2  777   3.912   5.084  17.239 -1.7657  1.0065  2.2546
    7DOPE   HN3  778   4.029   5.077  17.363 -2.1348 -0.4874  1.3451
    7DOPE   C12  779   4.101   5.188  17.196  0.2195  0.7276 -0.0882
    7DOPE  H12A  780   4.121   5.286  17.244 -0.7711  0.8732  0.0606
    7DOPE  H12B  781   4.068   5.187  17.090  2.2845  0.3446 -0.7556
    7DOPE   C11  782   4.232   5.105  17.207 -0.1796 -0.5398 -0.7226
    7DOPE  H11A  783   4.276   5.124  17.308  2.1265 -1.5222 -1.4745
    7DOPE  H11B  784   4.298   5.150  17.129 -1.5671  0.1134 -1.5579
    7DOPE     P  785   4.318   4.872  17.118  0.2063  0.0737  0.0137
    7DOPE   O13  786   4.258   4.740  17.122 -0.1081  0.0574 -0.1051
    7DOPE   O14  787   4.451   4.883  17.185  0.3126 -0.4901 -0.1687
    7DOPE   O11  788   4.323   4.917  16.970 -0.8482 -0.3555 -0.6065
    7DOPE   O12  789   4.219   4.966  17.183  0.5936 -0.5479  0.6204
    7DOPE    C1  790   4.215   4.960  16.887 -0.2183  0.1276 -0.1867
    7DOPE    HA  791   4.157   5.040  16.937 -0.2504  0.8076 -1.2873
    7DOPE    HB  792   4.141   4.878  16.871 -0.7032  0.9597 -2.4199
    7DOPE    C2  793   4.266   5.016  16.747  0.0824  0.0600 -0.0238
    7DOPE    HS  794   4.180   5.071  16.704 -1.5331 -3.0909 -1.1345
    7DOPE   O21  795   4.326   4.914  16.667  0.6084 -0.1677 -0.6811
    7DOPE   C21  796   4.242   4.832  16.605 -0.4457  0.6261 -0.3094
    7DOPE   O22  797   4.123   4.844  16.595  0.4656 -0.1700  0.6252
    7DOPE   C22  798   4.320   4.715  16.558 -0.3684  0.5277 -0.5101
    7DOPE   H2R  799   4.257   4.624  16.569  0.4425  0.0225  0.1272
    7DOPE   H2S  800   4.404   4.689  16.628 -2.1328  0.5359  1.7315
    7DOPE    C3  801   4.369   5.124  16.776 -0.0168  0.3840 -0.3481
    7DOPE    HX  802   4.434   5.093  16.861 -0.6180  0.4178  0.1392
    7DOPE    HY  803   4.306   5.204  16.822  1.9090  1.7273  0.0569
    7DOPE   O31  804   4.441   5.169  16.662  0.5170 -0.2094 -0.1556
    7DOPE   C31  805   4.558   5.102  16.639 -0.2269 -0.3276  0.3317
    7DOPE   O32  806   4.611   5.022  16.710  0.0282  0.9292 -0.5622
    7DOPE   C32  807   4.611   5.173  16.512 -0.1027 -0.8319  0.1103
    7DOPE   H2X  808   4.565   5.272  16.491  0.1853 -0.4327  1.2831
    7DOPE   H2Y  809   4.722   5.175  16.524 -0.2241  2.0670  1.5741
    7DOPE   C23  810   4.356   4.719  16.410  0.0020  0.2788 -0.0763
    7DOPE   H3R  811   4.408   4.624  16.383  1.4208  0.0701  2.8877
    7DOPE   H3S  812   4.432   4.799  16.401 -0.8802  1.0417 -0.9368
    7DOPE   C24  813   4.239   4.755  16.317 -0.0414 -0.0896  0.1699
    7DOPE   H4R  814   4.188   4.841  16.365 -0.6683 -1.0805  1.3335
    7DOPE   H4S  815   4.174   4.665  16.325  1.3888 -0.9846  2.3178
    7DOPE   C25  816   4.282   4.775  16.166  0.2675  0.3199 -0.9466
    7DOPE   H5R  817   4.187   4.783  16.109 -0.2163  0.1492 -0.1773
    7DOPE   H5S  818   4.324   4.679  16.127  0.1732 -1.3619  2.7252
    7DOPE   C26  819   4.372   4.899  16.159 -0.2675 -0.3994 -0.1436
    7DOPE   H6R  820   4.472   4.884  16.203 -0.8494 -0.9664  1.0262
    7DOPE   H6S  821   4.329   4.981  16.220 -2.3623 -0.4586 -1.4259
    7DOPE   C27  822   4.382   4.951  16.013  0.1161  0.0351 -0.4942
    7DOPE   H7R  823   4.444   5.043  16.015  1.8510 -1.0913  1.4242
    7DOPE   H7S  824   4.279   4.976  15.982 -0.5076 -2.2187 -0.3904
    7DOPE   C28  825   4.445   4.842  15.918 -0.0145  0.2668  0.4793
    7DOPE   H8R  826   4.394   4.744  15.932  0.2400 -0.0840 -0.9067
    7DOPE   H8S  827   4.549   4.820  15.950  0.2775 -0.3638 -0.8207
    7DOPE   C29  828   4.430   4.880  15.771 -0.4782 -0.0811 -0.2439
    7DOPE   H9R  829   4.354   4.820  15.718  0.0101 -0.7356 -0.2213
    7DOPE  C210  830   4.518   4.958  15.697  0.5972  0.7975 -0.3108
    7DOPE  H10R  831   4.507   4.965  15.588  3.6074  1.8612 -0.6226
    7DOPE  C211  832   4.618   5.044  15.770 -0.6957 -0.1358  0.1750
    7DOPE  H11R  833   4.641   5.009  15.873 -0.7256 -3.3936 -0.8170
    7DOPE  H11S  834   4.582   5.149  15.769  0.7878  0.3959 -0.0963
    7DOPE  C212  835   4.757   5.043  15.693 -0.2362 -0.9338  0.6639
    7DOPE  H12R  836   4.817   5.126  15.737 -0.2842 -0.5918  0.0944
    7DOPE  H12S  837   4.746   5.066  15.585  0.5936 -0.8949  0.5842
    7DOPE  C213  838   4.837   4.918  15.718  0.4946 -0.5144 -0.2792
    7DOPE  H13R  839   4.921   4.925  15.646  0.2595  2.2186 -0.4033
    7DOPE  H13S  840   4.767   4.835  15.696 -2.5858  1.6594  0.5664
    7DOPE  C214  841   4.905   4.925  15.855 -0.1052  0.4304 -0.2364
    7DOPE  H14R  842   4.828   4.929  15.934 -0.0915 -2.6784  0.0860
    7DOPE  H14S  843   4.960   5.021  15.858 -0.1181  0.4335 -0.0946
    7DOPE  C215  844   5.009   4.814  15.871  0.6788  0.0147  0.1620
    7DOPE  H15R  845   5.065   4.789  15.778 -3.0076  0.1519 -2.3039
    7DOPE  H15S  846   4.945   4.728  15.900 -1.3374  0.6207 -2.2208
    7DOPE  C216  847   5.098   4.866  15.982  0.2832 -0.3917  0.0584
    7DOPE  H16R  848   5.037   4.859  16.075  1.4775  1.6949  1.0757
    7DOPE  H16S  849   5.133   4.970  15.965 -2.0837  0.3645 -0.5441
    7DOPE  C217  850   5.218   4.777  16.017 -0.5427  0.0308  0.5104
    7DOPE  H17R  851   5.184   4.672  16.023 -1.4555  0.3148  0.4360
    7DOPE  H17S  852   5.253   4.784  16.122 -0.6844  0.0361  0.5587
    7DOPE  C218  853   5.341   4.808  15.924 -0.5626 -0.1280 -0.1546
    7DOPE  H18R  854   5.366   4.915  15.935  1.0799 -0.5621  0.6759
    7DOPE  H18S  855   5.319   4.785  15.817  0.4686  2.0617 -0.9112
    7DOPE  H18T  856   5.415   4.739  15.970 -0.8537 -2.0027 -2.2905
    7DOPE   C33  857   4.588   5.084  16.383 -0.7650 -0.7103  0.2587
    7DOPE   H3X  858   4.479   5.066  16.378 -0.9492  0.3803  0.2567
    7DOPE   H3Y  859   4.633   4.983  16.395  0.8726  0.2041  2.6573
    7DOPE   C34  860   4.648   5.152  16.260 -0.4299 -0.1922 -0.1790
    7DOPE   H4X  861   4.592   5.121  16.169 -0.1837  0.6566 -0.6321
    7DOPE   H4Y  862   4.624   5.259  16.277 -0.1056 -0.0574 -0.5317
    7DOPE   C35  863   4.798   5.140  16.244 -0.7281 -0.0730 -0.0462
    7DOPE   H5X  864   4.818   5.031  16.254  1.4972  0.4501  2.2454
    7DOPE   H5Y  865   4.844   5.196  16.328 -1.5038  1.1409 -0.3970
    7DOPE   C36  866   4.854   5.202  16.114  0.2343  0.3724 -0.5175
    7DOPE   H6X  867   4.818   5.305  16.095  3.7811  1.5053 -1.9204
    7DOPE   H6Y  868   4.822   5.134  16.032 -0.5012 -0.9911  0.8463
    7DOPE   C37  869   5.006   5.207  16.101 -0.3656  0.1523  0.3714
    7DOPE   H7X  870   5.048   5.262  16.187  1.3571  0.7373 -0.7928
    7DOPE   H7Y  871   5.040   5.101  16.106 -1.1236 -0.0848  0.5738
    7DOPE   C38  872   5.047   5.273  15.971 -0.0155 -0.2630  0.2660
    7DOPE   H8X  873   5.011   5.377  15.960  2.0889  0.4516 -0.5004
    7DOPE   H8Y  874   5.020   5.213  15.881 -0.6606  0.7511 -0.2312
    7DOPE   C39  875   5.194   5.297  15.939 -0.1898  0.1020 -1.3080
    7DOPE   H9X  876   5.257   5.315  16.027 -0.1020 -2.2416 -0.8246
    7DOPE  C310  877   5.269   5.254  15.837 -0.5575  0.4479  0.0705
    7DOPE  H10X  878   5.378   5.258  15.847 -0.4622 -0.9726 -0.1114
    7DOPE  C311  879   5.220   5.178  15.719 -0.7485  0.4413  0.4022
    7DOPE  H11X  880   5.306   5.127  15.671 -1.8594 -0.4703 -0.6779
    7DOPE  H11Y  881   5.163   5.086  15.744  0.8089 -0.9084 -0.8178
    7DOPE  C312  882   5.154   5.260  15.615  0.5442  0.1894  0.2670
    7DOPE  H12X  883   5.085   5.337  15.656  0.8270 -0.4597  2.0470
    7DOPE  H12Y  884   5.091   5.191  15.554  1.9260 -1.2580  0.4001
    7DOPE  C313  885   5.246   5.337  15.515  0.2445  0.5119  0.6337
    7DOPE  H13X  886   5.338   5.381  15.557  1.3360  1.8847 -2.7809
    7DOPE  H13Y  887   5.289   5.258  15.450  2.6704  1.1051  1.4376
    7DOPE  C314  888   5.170   5.436  15.421 -0.1105 -0.3641  0.6913
    7DOPE  H14X  889   5.095   5.500  15.472 -2.3028 -2.8551  0.8639
    7DOPE  H14Y  890   5.117   5.363  15.356  0.1522 -0.5159  0.6439
    7DOPE  C315  891   5.264   5.524  15.329  0.6946 -0.0428 -0.0752
    7DOPE  H15X  892   5.325   5.577  15.405  0.8832  1.4317 -1.2189
    7DOPE  H15Y  893   5.212   5.606  15.275  0.4957 -0.2845 -0.2532
    7DOPE  C316  894   5.351   5.440  15.242 -0.1018 -0.1872 -0.4102
    7DOPE  H16X  895   5.291   5.384  15.168 -0.4008  0.5842 -0.7663
    7DOPE  H16Y  896   5.416   5.368  15.296  1.2476  2.6909  2.1680
    7DOPE  C317  897   5.455   5.519  15.160  0.2235 -0.1605 -0.2837
    7DOPE  H17X  898   5.406   5.587  15.088 -0.9063  1.0791  1.5545
    7DOPE  H17Y  899   5.500   5.592  15.230 -1.1836  0.7432 -0.2796
    7DOPE  C318  900   5.563   5.429  15.104  0.1451  0.5417  0.0943
    7DOPE  H18X  901   5.590   5.351  15.178 -1.0741 -0.2139 -0.2166
    7DOPE  H18Y  902   5.528   5.377  15.012 -0.7261 -1.7768  1.6413
    7DOPE  H18Z  903   5.641   5.502  15.074 -2.2999  2.8623 -1.0084
    8DOPE     N  904   3.717   5.998  17.044 -0.1957  0.3828 -0.6596
    8DOPE   HN1  905   3.748   5.913  17.094 -0.7142 -0.6685 -2.0697
    8DOPE   HN2  906   3.659   6.052  17.112  1.4557  1.7709 -0.2634
    8DOPE   HN3  907   3.650   5.961  16.974 -1.2078  1.1352 -0.1218
    8DOPE   C12  908   3.826   6.086  16.980 -0.1405  0.6691 -0.2595
    8DOPE  H12A  909   3.791   6.191  16.963 -0.0612  0.3092 -3.1008
    8DOPE  H12B  910   3.857   6.048  16.880  2.6522  2.7405 -0.3311
    8DOPE   C11  911   3.951   6.085  17.080  0.2722 -0.1973  0.1868
    8DOPE  H11A  912   3.914   6.120  17.179 -3.0271  1.5602 -1.4864
    8DOPE  H11B  913   4.020   6.160  17.037  1.4053 -1.1661  0.2631
    8DOPE     P  914   4.145   5.919  17.020 -0.5221  0.0934  0.0077
    8DOPE   O13  915   4.177   5.778  17.044 -0.3263 -0.0536 -0.0829
    8DOPE   O14  916   4.247   6.012  17.073  0.4006  0.4635 -0.0315
    8DOPE   O11  917   4.127   5.940  16.870  0.5535  0.0092 -0.2608
    8DOPE   O12  918   4.006   5.949  17.085 -0.1459 -0.4970  0.3780
    8DOPE    C1  919   4.044   5.857  16.785 -0.1754 -0.3672 -0.0286
    8DOPE    HA  920   3.948   5.842  16.838 -0.5303  0.6480 -0.3546
    8DOPE    HB  921   4.097   5.763  16.759 -0.7329 -0.5850 -0.4031
    8DOPE    C2  922   4.006   5.919  16.649 -0.0948 -0.9290 -0.2162
    8DOPE    HS  923   3.947   6.010  16.672 -1.1887 -1.3184 -1.3684
    8DOPE   O21  924   3.937   5.823  16.569 -0.4696 -0.5590 -0.7881
    8DOPE   C21  925   3.848   5.877  16.491 -0.8062  0.6936  0.5861
    8DOPE   O22  926   3.820   5.993  16.477 -0.0457  0.1874  0.0540
    8DOPE   C22  927   3.779   5.759  16.424 -0.3513  0.4400 -0.2491
    8DOPE   H2R  928   3.679   5.786  16.382 -0.2246  1.4253  0.0576
    8DOPE   H2S  929   3.759   5.676  16.495 -1.1306  1.3514  0.6242
    8DOPE    C3  930   4.133   5.966  16.570  0.2118 -0.2309  0.7806
    8DOPE    HX  931   4.195   6.030  16.636  0.2523  1.0070 -0.4242
    8DOPE    HY  932   4.104   6.031  16.485 -0.0493  0.9449  1.7505
    8DOPE   O31  933   4.216   5.852  16.526  0.4695  0.1723 -0.0462
    8DOPE   C31  934   4.330   5.834  16.578  0.5782 -0.3626  0.2668
    8DOPE   O32  935   4.394   5.913  16.647  0.1764  0.8340 -0.2269
    8DOPE   C32  936   4.393   5.716  16.509  0.8154  0.4596 -0.0996
    8DOPE   H2X  937   4.504   5.711  16.513  0.8854 -5.1680 -0.4440
    8DOPE   H2Y  938   4.360   5.629  16.569 -1.3334  1.5843  0.4251
    8DOPE   C23  939   3.867   5.720  16.302  0.2717  0.3338  0.3996
    8DOPE   H3R  940   3.838   5.616  16.273 -1.2342  0.6821  0.5522
    8DOPE   H3S  941   3.975   5.724  16.327  0.0547  1.4464  1.2274
    8DOPE   C24  942   3.833   5.800  16.176  0.4664  0.8822 -0.3773
    8DOPE   H4R  943   3.795   5.893  16.223  0.4539 -0.1527  1.7873
    8DOPE   H4S  944   3.753   5.746  16.121 -0.4112  1.3603  0.3924
    8DOPE   C25  945   3.955   5.800  16.086  0.2568 -0.4586  0.6824
    8DOPE   H5R  946   3.977   5.696  16.054  1.8218  0.1799 -0.4251
    8DOPE   H5S  947   4.030   5.837  16.160  0.8523  0.6581 -0.4428
    8DOPE   C26  948   3.942   5.892  15.962 -0.2355  0.2690 -0.3547
    8DOPE   H6R  949   3.929   5.999  15.987 -1.4283 -0.1783  1.0819
    8DOPE   H6S  950   3.848   5.860  15.911 -1.1121  1.6791  0.3030
    8DOPE   C27  951   4.051   5.879  15.853  0.0363  0.5840  0.2045
    8DOPE   H7R  952   4.015   5.921  15.757 -0.9848  0.3810  0.4859
    8DOPE   H7S  953   4.056   5.769  15.834 -2.1787  0.4845 -0.0850
    8DOPE   C28  954   4.194   5.907  15.902  0.3989  0.5944 -0.0852
    8DOPE   H8R  955   4.265   5.857  15.832 -0.6106 -1.2745  0.1537
    8DOPE   H8S  956   4.204   5.855  16.000 -0.7040  2.8037  1.2848
    8DOPE   C29  957   4.226   6.051  15.917  0.7657  0.1317  0.4518
    8DOPE   H9R  958   4.229   6.104  15.821 -2.4544 -0.9708 -0.3757
    8DOPE  C210  959   4.265   6.113  16.030 -0.1226  0.1193 -0.0440
    8DOPE  H10R  960   4.283   6.221  16.025 -1.3519  0.2648 -3.1063
    8DOPE  C211  961   4.275   6.050  16.169 -0.3019  0.3135  0.2256
    8DOPE  H11R  962   4.264   5.940  16.161  0.1974  0.2020  0.9878
    8DOPE  H11S  963   4.193   6.077  16.239 -0.9630  0.7962 -0.7229
    8DOPE  C212  964   4.411   6.074  16.247 -0.1055  0.8217 -0.1853
    8DOPE  H12R  965   4.409   6.023  16.346  0.6406 -2.1466 -1.5853
    8DOPE  H12S  966   4.413   6.183  16.266 -1.2347  1.1902 -1.9647
    8DOPE  C213  967   4.536   6.019  16.178  0.4936  0.3846  0.0498
    8DOPE  H13R  968   4.554   6.073  16.083 -0.8103 -0.6248 -0.8063
    8DOPE  H13S  969   4.520   5.912  16.150 -3.1285  0.3854  1.5469
    8DOPE  C214  970   4.660   6.034  16.267 -0.4655  0.5608  0.0737
    8DOPE  H14R  971   4.665   6.137  16.309  0.6822  1.3087 -1.7591
    8DOPE  H14S  972   4.748   6.035  16.199 -0.4674  3.0877 -0.0045
    8DOPE  C215  973   4.672   5.921  16.375  0.1955  0.3537 -0.7667
    8DOPE  H15R  974   4.646   5.824  16.327  1.7797 -0.7132  0.4255
    8DOPE  H15S  975   4.596   5.937  16.455  1.5523 -1.9786  1.1223
    8DOPE  C216  976   4.814   5.938  16.442 -0.4932  0.0009 -0.1018
    8DOPE  H16R  977   4.893   5.916  16.367 -1.2570 -1.9684 -0.3968
    8DOPE  H16S  978   4.827   5.859  16.519  0.1318  1.2116  1.0634
    8DOPE  C217  979   4.846   6.075  16.504 -0.4418  0.2818  0.9079
    8DOPE  H17R  980   4.775   6.090  16.588 -1.0220 -0.8492  0.6400
    8DOPE  H17S  981   4.827   6.158  16.432 -0.5514 -0.0776  0.5193
    8DOPE  C218  982   4.990   6.081  16.559 -0.8573 -0.2247  0.3754
    8DOPE  H18R  983   5.001   6.039  16.661  0.0697 -2.7578 -0.6964
    8DOPE  H18S  984   5.021   6.188  16.553 -0.2291 -0.4671 -1.4399
    8DOPE  H18T  985   5.064   6.033  16.492  1.0114  1.7445  0.9128
    8DOPE   C33  986   4.343   5.701  16.365 -0.9512  0.2755 -0.4674
    8DOPE   H3X  987   4.376   5.790  16.307  0.1961 -0.2897 -0.7246
    8DOPE   H3Y  988   4.234   5.687  16.350 -0.8060 -0.3046 -1.0390
    8DOPE   C34  989   4.414   5.584  16.303 -0.6134 -0.3152 -0.1145
    8DOPE   H4X  990   4.521   5.610  16.299 -0.6438 -0.1829 -0.0820
    8DOPE   H4Y  991   4.401   5.486  16.354 -0.0997 -0.5160 -0.3675
    8DOPE   C35  992   4.390   5.568  16.151  0.1914 -0.1093 -0.3109
    8DOPE   H5X  993   4.424   5.656  16.093 -1.2029  1.6374  1.3753
    8DOPE   H5Y  994   4.282   5.552  16.133  0.2204  1.5492 -2.2501
    8DOPE   C36  995   4.461   5.438  16.096 -0.3393  0.0889  0.7261
    8DOPE   H6X  996   4.406   5.354  16.143 -0.9810  0.3964  0.5378
    8DOPE   H6Y  997   4.569   5.447  16.120 -0.3134 -0.1640  0.7023
    8DOPE   C37  998   4.445   5.423  15.940 -0.0510 -0.9369 -0.4848
    8DOPE   H7X  999   4.443   5.525  15.895  0.8835 -0.8545 -0.3750
    8DOPE   H7Y 1000   4.528   5.364  15.897 -1.5075 -1.7429 -2.2962
    8DOPE   C38 1001   4.311   5.363  15.901  0.2292 -0.1785  0.3414
    8DOPE   H8X 1002   4.225   5.423  15.939  1.6409  2.3723 -0.2265
    8DOPE   H8Y 1003   4.308   5.257  15.935 -2.3834  0.0406  0.9888
    8DOPE   C39 1004   4.296   5.351  15.755  0.0357  0.9569  0.4680
    8DOPE   H9X 1005   4.302   5.249  15.714  0.3645  1.4339 -0.7155
    8DOPE  C310 1006   4.290   5.459  15.673 -0.2868  0.8857 -0.5055
    8DOPE  H10X 1007   4.297   5.434  15.566  0.9286 -0.8700 -0.0619
    8DOPE  C311 1008   4.287   5.599  15.700 -0.3673 -0.0744  0.3113
    8DOPE  H11X 1009   4.215   5.613  15.783  0.1913 -0.8942  0.9568
    8DOPE  H11Y 1010   4.385   5.644  15.728 -0.2825  0.8442 -1.3113
    8DOPE  C312 1011   4.240   5.686  15.584  0.7727  0.1035  0.4902
    8DOPE  H12X 1012   4.312   5.670  15.501 -0.1622 -0.4432 -0.2466
    8DOPE  H12Y 1013   4.239   5.791  15.619 -0.5277  0.5216 -0.7010
    8DOPE  C313 1014   4.102   5.652  15.522 -0.6039 -0.8002 -0.3921
    8DOPE  H13X 1015   4.080   5.544  15.505 -4.0343 -0.4735  1.0453
    8DOPE  H13Y 1016   4.023   5.692  15.589 -1.2082 -2.0405 -0.3262
    8DOPE  C314 1017   4.074   5.713  15.384 -0.4071  0.1591  0.5920
    8DOPE  H14X 1018   4.141   5.667  15.308 -0.3359  1.3657 -0.0982
    8DOPE  H14Y 1019   4.090   5.822  15.402 -1.4395  0.3771  0.2268
    8DOPE  C315 1020   3.934   5.688  15.336 -0.5593  0.1857  0.2153
    8DOPE  H15X 1021   3.922   5.732  15.234  0.8235  2.8373  1.0948
    8DOPE  H15Y 1022   3.856   5.726  15.406  1.2327 -0.6748  2.8149
    8DOPE  C316 1023   3.901   5.538  15.329  0.4071  0.0435 -0.0792
    8DOPE  H16X 1024   3.879   5.500  15.431 -1.3634 -0.5863 -0.6630
    8DOPE  H16Y 1025   3.993   5.485  15.294 -0.1556 -0.4340 -0.8595
    8DOPE  C317 1026   3.789   5.507  15.232  0.1071 -0.2539  0.2089
    8DOPE  H17X 1027   3.802   5.564  15.138  1.8150  0.7145  0.9939
    8DOPE  H17Y 1028   3.794   5.399  15.208 -0.7800  0.3724 -3.5023
    8DOPE  C318 1029   3.652   5.536  15.291  0.4006 -0.3289 -0.5485
    8DOPE  H18X 1030   3.626   5.644  15.285  1.7505 -0.0193 -1.2146
    8DOPE  H18Y 1031   3.640   5.497  15.395 -0.4749  1.0746 -0.0867
    8DOPE  H18Z 1032   3.577   5.484  15.227  0.0779 -0.2587 -0.2289
    9DOPE     N 1033   0.355   4.408  16.993 -0.3594  0.0076 -0.2211
    9DOPE   HN1 1034   0.382   4.496  16.944 -1.2948  1.4078  1.6821
    9DOPE   HN2 1035   0.412   4.337  16.943 -1.3470  0.6081 -2.3533
    9DOPE   HN3 1036   0.257   4.392  16.962 -0.5603 -2.6720  1.4683
    9DOPE   C12 1037   0.382   4.428  17.137 -0.6989  0.5090  0.0255
    9DOPE  H12A 1038   0.335   4.358  17.210  0.5131  0.6515  0.9737
    9DOPE  H12B 1039   0.343   4.531  17.154 -1.9689  0.2065 -0.8711
    9DOPE   C11 1040   0.537   4.439  17.153  0.2408  0.1374  0.0786
    9DOPE  H11A 1041   0.559   4.431  17.262  1.5237 -1.7275 -0.2547
    9DOPE  H11B 1042   0.559   4.544  17.126 -0.8876  0.5255  0.6303
    9DOPE     P 1043   0.770   4.378  17.056  0.1441  0.0833  0.4929
    9DOPE   O13 1044   0.830   4.261  16.993 -0.6539 -0.4150 -0.7430
    9DOPE   O14 1045   0.818   4.417  17.186  0.2743  0.7330 -0.0179
    9DOPE   O11 1046   0.781   4.493  16.949 -0.0826  0.4095 -0.3961
    9DOPE   O12 1047   0.614   4.353  17.068  0.1880  0.3316 -0.0876
    9DOPE    C1 1048   0.705   4.509  16.826 -0.1758  1.0722 -0.6415
    9DOPE    HA 1049   0.686   4.615  16.798 -0.6725  1.6182  1.5506
    9DOPE    HB 1050   0.605   4.467  16.852  0.2009  1.5688  1.8145
    9DOPE    C2 1051   0.769   4.444  16.702  0.1506 -0.2003 -0.0348
    9DOPE    HS 1052   0.770   4.333  16.716 -0.2454 -0.1964  0.0420
    9DOPE   O21 1053   0.901   4.504  16.674 -0.2437 -0.1606 -0.2242
    9DOPE   C21 1054   0.987   4.426  16.625  0.3989  0.0162  0.6632
    9DOPE   O22 1055   0.974   4.314  16.581 -0.7209  0.2550 -0.4094
    9DOPE   C22 1056   1.122   4.511  16.618  0.0027 -0.0657 -0.3740
    9DOPE   H2R 1057   1.172   4.510  16.717  0.3900 -0.3456 -0.5706
    9DOPE   H2S 1058   1.090   4.616  16.601 -0.5338  0.0756  1.3626
    9DOPE    C3 1059   0.677   4.479  16.577  0.5809 -0.7363 -0.0423
    9DOPE    HX 1060   0.714   4.420  16.490  2.7579  3.8072 -2.5626
    9DOPE    HY 1061   0.688   4.587  16.550 -3.1543 -0.3184 -0.5253
    9DOPE   O31 1062   0.541   4.442  16.596 -0.6433  0.2220  0.0939
    9DOPE   C31 1063   0.456   4.530  16.555  0.6069 -0.1535  0.2755
    9DOPE   O32 1064   0.472   4.646  16.524  0.1244 -0.3964 -0.1493
    9DOPE   C32 1065   0.314   4.473  16.589  0.0130 -1.1055 -0.6018
    9DOPE   H2X 1066   0.319   4.362  16.589 -1.1691 -1.1971  1.3299
    9DOPE   H2Y 1067   0.302   4.504  16.695  1.3612 -1.3566 -0.3575
    9DOPE   C23 1068   1.227   4.469  16.507 -0.5098  0.1171 -0.3056
    9DOPE   H3R 1069   1.179   4.389  16.447  0.4954 -1.2834  0.7040
    9DOPE   H3S 1070   1.321   4.427  16.546  0.8406  0.7463 -2.6653
    9DOPE   C24 1071   1.267   4.584  16.412  0.3335 -0.0657 -0.5017
    9DOPE   H4R 1072   1.287   4.666  16.485  1.0476 -0.4536 -0.2498
    9DOPE   H4S 1073   1.176   4.623  16.361 -0.6536  1.1196  1.9823
    9DOPE   C25 1074   1.387   4.552  16.319  0.0097  0.4302  0.4880
    9DOPE   H5R 1075   1.360   4.454  16.274  3.0799 -0.3368  0.1194
    9DOPE   H5S 1076   1.473   4.526  16.384  0.6274 -0.4411 -0.6374
    9DOPE   C26 1077   1.429   4.668  16.226 -0.7695 -0.5774  0.5398
    9DOPE   H6R 1078   1.458   4.747  16.298 -0.1120 -1.3190  1.0998
    9DOPE   H6S 1079   1.345   4.695  16.157  0.4413  1.1603 -0.3230
    9DOPE   C27 1080   1.559   4.626  16.152  0.0996  0.0112 -0.0209
    9DOPE   H7R 1081   1.551   4.527  16.102  0.1298  0.5045 -1.0265
    9DOPE   H7S 1082   1.647   4.618  16.220 -0.2350 -0.9906  0.3052
    9DOPE   C28 1083   1.596   4.735  16.042  0.0327 -0.0244  0.4175
    9DOPE   H8R 1084   1.603   4.841  16.077  2.0473  0.4530 -1.2417
    9DOPE   H8S 1085   1.505   4.739  15.978  0.9828  0.6706 -0.9327
    9DOPE   C29 1086   1.707   4.702  15.957 -0.4842 -0.1587  0.6709
    9DOPE   H9R 1087   1.798   4.760  15.977 -0.2470 -0.2605 -0.0627
    9DOPE  C210 1088   1.715   4.627  15.845  0.3687  0.2789  1.1867
    9DOPE  H10R 1089   1.805   4.636  15.783 -0.1156 -0.8441  0.2686
    9DOPE  C211 1090   1.598   4.554  15.780  0.1590  0.5400  0.1687
    9DOPE  H11R 1091   1.525   4.526  15.859  0.7493 -1.5733  0.0411
    9DOPE  H11S 1092   1.618   4.458  15.727 -0.5322  0.5648 -0.1391
    9DOPE  C212 1093   1.538   4.657  15.685  0.6374  0.0095  0.4330
    9DOPE  H12R 1094   1.539   4.758  15.730 -0.8169 -0.1461  0.8686
    9DOPE  H12S 1095   1.438   4.609  15.672  0.3350  0.8899 -0.7236
    9DOPE  C213 1096   1.608   4.646  15.548  0.5074  0.3447  0.4228
    9DOPE  H13R 1097   1.605   4.540  15.518  0.9926 -0.1336  1.9608
    9DOPE  H13S 1098   1.716   4.670  15.564  0.4943  3.0351 -2.5263
    9DOPE  C214 1099   1.523   4.732  15.456 -0.3544 -0.1406  0.6160
    9DOPE  H14R 1100   1.519   4.833  15.503  0.6924  0.7322 -1.0385
    9DOPE  H14S 1101   1.419   4.697  15.465 -1.0306  1.5426 -0.2417
    9DOPE  C215 1102   1.557   4.724  15.305  0.8127 -0.2839 -0.3998
    9DOPE  H15R 1103   1.541   4.627  15.254  1.9788  0.6524 -2.6672
    9DOPE  H15S 1104   1.663   4.739  15.274  0.1994 -0.2079 -2.6617
    9DOPE  C216 1105   1.464   4.812  15.215 -0.5418 -0.8268  0.1455
    9DOPE  H16R 1106   1.469   4.921  15.238 -2.5032 -0.6292 -0.1719
    9DOPE  H16S 1107   1.358   4.786  15.235 -0.7036  0.2973  0.8308
    9DOPE  C217 1108   1.487   4.781  15.068  0.0802  0.0720  0.0318
    9DOPE  H17R 1109   1.467   4.678  15.031 -1.8455  1.4098 -3.0584
    9DOPE  H17S 1110   1.597   4.791  15.051  0.0232  0.5059 -0.0941
    9DOPE  C218 1111   1.414   4.872  14.968 -0.1073 -0.9331 -0.2154
    9DOPE  H18R 1112   1.442   4.850  14.863 -0.7656 -0.9086 -0.3987
    9DOPE  H18S 1113   1.438   4.979  14.986  0.8496 -0.8568 -1.7596
    9DOPE  H18T 1114   1.304   4.860  14.976 -0.0694 -0.4062  1.3521
    9DOPE   C33 1115   0.194   4.529  16.504 -0.3340 -0.9264 -0.8651
    9DOPE   H3X 1116   0.203   4.633  16.467 -2.0007 -0.1884  0.6730
    9DOPE   H3Y 1117   0.112   4.539  16.578 -0.4866  1.9019 -1.3279
    9DOPE   C34 1118   0.152   4.434  16.386  0.4972  0.0147  0.5293
    9DOPE   H4X 1119   0.129   4.336  16.434  0.2024  0.9875  2.5011
    9DOPE   H4Y 1120   0.059   4.473  16.340 -0.6014 -1.2987  1.5413
    9DOPE   C35 1121   0.257   4.406  16.273  0.0817 -0.8472  0.1884
    9DOPE   H5X 1122   0.341   4.341  16.306  2.4106  0.9406 -1.7984
    9DOPE   H5Y 1123   0.289   4.505  16.234  1.1032 -1.6163 -1.0267
    9DOPE   C36 1124   0.189   4.337  16.148 -0.2715  0.0432 -0.3397
    9DOPE   H6X 1125   0.109   4.401  16.105 -1.5261 -0.7047  0.8239
    9DOPE   H6Y 1126   0.135   4.246  16.180 -0.5248  0.3488  0.1142
    9DOPE   C37 1127   0.301   4.282  16.057 -0.5272 -0.2264  0.2979
    9DOPE   H7X 1128   0.382   4.242  16.121  0.9664  1.5803 -0.3854
    9DOPE   H7Y 1129   0.262   4.196  15.997  1.1171 -1.0128  0.3161
    9DOPE   C38 1130   0.358   4.392  15.964  0.7712 -0.0946 -0.3371
    9DOPE   H8X 1131   0.417   4.463  16.026 -0.1833  0.9775 -0.6251
    9DOPE   H8Y 1132   0.273   4.452  15.926 -0.0705 -0.9292  0.1965
    9DOPE   C39 1133   0.438   4.320  15.859 -0.2668  0.1362 -0.0324
    9DOPE   H9X 1134   0.545   4.306  15.883 -0.0531  1.8282  0.1100
    9DOPE  C310 1135   0.383   4.265  15.744  0.3472 -0.9042 -0.1754
    9DOPE  H10X 1136   0.435   4.200  15.673 -1.0181  1.2324 -3.3242
    9DOPE  C311 1137   0.242   4.274  15.708  0.9894 -0.6897  0.5781
    9DOPE  H11X 1138   0.210   4.178  15.663  2.4094 -1.1170  0.4454
    9DOPE  H11Y 1139   0.177   4.295  15.796 -1.7668 -0.7022 -1.3433
    9DOPE  C312 1140   0.208   4.378  15.596  0.4591 -0.4906  0.0840
    9DOPE  H12X 1141   0.229   4.480  15.636 -3.5892  1.4495 -2.0635
    9DOPE  H12Y 1142   0.101   4.376  15.566  0.4039 -0.5302  0.2815
    9DOPE  C313 1143   0.301   4.378  15.473 -0.0777 -0.5949 -0.9699
    9DOPE  H13X 1144   0.340   4.480  15.451 -1.5202  0.7423  2.1302
    9DOPE  H13Y 1145   0.393   4.317  15.477  0.2257 -0.1224 -0.6700
    9DOPE  C314 1146   0.222   4.348  15.343 -0.1268 -0.3231  0.1216
    9DOPE  H14X 1147   0.297   4.364  15.262 -1.9552  1.9042 -1.2632
    9DOPE  H14Y 1148   0.151   4.433  15.330  0.9473  0.8883  1.7797
    9DOPE  C315 1149   0.160   4.214  15.343  0.8198  0.0711  0.0042
    9DOPE  H15X 1150   0.072   4.203  15.411 -0.2333 -0.4066 -1.4020
    9DOPE  H15Y 1151   0.239   4.147  15.382  1.9682  2.1896  1.5663
    9DOPE  C316 1152   0.124   4.164  15.206 -0.7399 -0.9469 -0.0126
    9DOPE  H16X 1153   0.221   4.133  15.161  0.3842  1.3067  0.6646
    9DOPE  H16Y 1154   0.081   4.240  15.138  1.4873  0.0099 -0.4617
    9DOPE  C317 1155   0.050   4.032  15.203 -0.4384  0.3052 -0.8781
    9DOPE  H17X 1156   0.051   4.001  15.097  0.4933  1.2517 -1.1618
    9DOPE  H17Y 1157   0.106   3.956  15.262 -1.9374  1.0205  1.6432
    9DOPE  C318 1158  -0.090   4.034  15.264  0.9333 -0.1436 -0.4615
    9DOPE  H18X 1159  -0.092   4.053  15.373 -1.0022 -0.0203 -0.4789
    9DOPE  H18Y 1160  -0.163   4.106  15.220  0.2138  0.5325  1.6972
    9DOPE  H18Z 1161  -0.132   3.935  15.235  0.3706  0.5553 -2.1831
   10DOPE     N 1162   7.358   6.049  16.839  0.8731  0.5211  0.3117
   10DOPE   HN1 1163   7.287   6.117  16.805  0.1099 -0.2613  0.2969
   10DOPE   HN2 1164   7.310   5.959  16.860 -0.8931  1.1894 -0.6696
   10DOPE   HN3 1165   7.405   6.080  16.927 -1.7306  1.7899  1.3721
   10DOPE   C12 1166   7.460   6.024  16.735  0.2775  0.2526  0.4804
   10DOPE  H12A 1167   7.532   6.108  16.740  0.8219 -0.2415  1.1531
   10DOPE  H12B 1168   7.404   6.023  16.639 -0.6524 -0.6561  1.0110
   10DOPE   C11 1169   7.545   5.892  16.752 -0.4052 -0.6970  0.0420
   10DOPE  H11A 1170   7.587   5.891  16.855  0.8929  1.3359 -0.4174
   10DOPE  H11B 1171   7.623   5.909  16.674  0.6389  2.5399  1.6271
   10DOPE     P 1172   7.488   5.644  16.817 -0.0217 -0.1310 -0.0547
   10DOPE   O13 1173   7.395   5.540  16.762 -0.3477  0.0935 -0.2342
   10DOPE   O14 1174   7.485   5.692  16.960 -0.3932 -0.2068  0.0818
   10DOPE   O11 1175   7.636   5.602  16.783 -0.0777  0.2072  0.2057
   10DOPE   O12 1176   7.469   5.772  16.731  0.2892  0.0343  0.0430
   10DOPE    C1 1177   7.688   5.613  16.646  0.1422 -0.2718  0.0403
   10DOPE    HA 1178   7.746   5.708  16.642  0.3987 -0.4429 -0.3902
   10DOPE    HB 1179   7.604   5.604  16.574 -0.1833  0.3212  0.3335
   10DOPE    C2 1180   7.782   5.494  16.611  0.6381  1.1782 -0.9927
   10DOPE    HS 1181   7.724   5.400  16.630  1.8531  0.2046 -1.8861
   10DOPE   O21 1182   7.886   5.498  16.707 -0.2019 -0.1094  0.3100
   10DOPE   C21 1183   7.997   5.425  16.689  0.2026  1.2470 -0.4947
   10DOPE   O22 1184   8.015   5.338  16.608  0.4937 -0.4866  0.2644
   10DOPE   C22 1185   8.114   5.471  16.784  0.1770 -0.5214 -0.2623
   10DOPE   H2R 1186   8.178   5.387  16.816 -1.2143 -1.4986  0.0341
   10DOPE   H2S 1187   8.068   5.519  16.873 -0.2928 -2.5975  0.6755
   10DOPE    C3 1188   7.820   5.504  16.460  0.2597  0.8110  0.6978
   10DOPE    HX 1189   7.899   5.434  16.423 -1.9899 -0.9932 -1.0901
   10DOPE    HY 1190   7.882   5.596  16.458  1.3210  0.1179 -0.1158
   10DOPE   O31 1191   7.709   5.506  16.364  0.0814  0.3154 -0.1565
   10DOPE   C31 1192   7.679   5.388  16.305 -0.1959 -0.1135  0.3898
   10DOPE   O32 1193   7.729   5.280  16.333 -0.2883 -0.2332 -0.0247
   10DOPE   C32 1194   7.565   5.397  16.206 -0.4121  0.0411 -0.4831
   10DOPE   H2X 1195   7.467   5.408  16.258 -0.9815 -0.1507 -1.4976
   10DOPE   H2Y 1196   7.570   5.495  16.153  1.3930 -0.8844 -2.1033
   10DOPE   C23 1197   8.205   5.578  16.718 -0.0196  0.4154  0.1685
   10DOPE   H3R 1198   8.279   5.609  16.794 -1.8797 -0.6782  2.5720
   10DOPE   H3S 1199   8.147   5.661  16.674 -2.8660 -0.0253  2.7508
   10DOPE   C24 1200   8.276   5.518  16.592  0.2708 -0.0572 -0.6081
   10DOPE   H4R 1201   8.207   5.519  16.505  2.4148  1.1216 -2.3864
   10DOPE   H4S 1202   8.319   5.418  16.617  0.5938  0.6708  2.0476
   10DOPE   C25 1203   8.399   5.601  16.543  0.4076 -1.1295 -0.1182
   10DOPE   H5R 1204   8.470   5.602  16.629 -0.4391 -2.3433  0.6301
   10DOPE   H5S 1205   8.351   5.700  16.530 -1.0332 -1.7164  0.5538
   10DOPE   C26 1206   8.461   5.546  16.422  1.0175 -0.2804  0.6683
   10DOPE   H6R 1207   8.386   5.552  16.340 -3.3206 -2.4411  4.0584
   10DOPE   H6S 1208   8.484   5.438  16.436 -0.7093 -1.1986 -2.6121
   10DOPE   C27 1209   8.589   5.625  16.388  0.0487  0.5931  0.8420
   10DOPE   H7R 1210   8.660   5.606  16.471  0.9230  0.5376  0.1033
   10DOPE   H7S 1211   8.576   5.735  16.374 -0.6655  0.6920  2.1369
   10DOPE   C28 1212   8.646   5.568  16.246  0.3989 -0.0554 -0.0904
   10DOPE   H8R 1213   8.592   5.623  16.166 -0.6675 -0.0257  0.6249
   10DOPE   H8S 1214   8.617   5.462  16.231 -0.3834  0.4765 -2.7737
   10DOPE   C29 1215   8.792   5.574  16.235  0.9139 -0.1565  0.0172
   10DOPE   H9R 1216   8.849   5.547  16.325 -2.9669 -1.5847  2.2704
   10DOPE  C210 1217   8.870   5.579  16.126 -0.2727 -0.2287 -0.0614
   10DOPE  H10R 1218   8.974   5.614  16.134 -0.6595  1.1394 -0.7213
   10DOPE  C211 1219   8.809   5.588  15.989  0.1194 -0.3409 -0.5301
   10DOPE  H11R 1220   8.714   5.646  15.987 -0.7352 -1.6962 -0.5346
   10DOPE  H11S 1221   8.782   5.486  15.955  0.9563 -1.2297  1.3400
   10DOPE  C212 1222   8.896   5.665  15.887 -0.5736  0.5108 -0.3827
   10DOPE  H12R 1223   9.004   5.638  15.893 -0.7751 -0.2554 -0.0491
   10DOPE  H12S 1224   8.905   5.774  15.906  2.5991  0.4592 -1.0907
   10DOPE  C213 1225   8.858   5.635  15.739 -0.3069  0.0490 -1.0496
   10DOPE  H13R 1226   8.880   5.726  15.680 -1.6081  0.2959 -1.1767
   10DOPE  H13S 1227   8.749   5.617  15.739 -0.9332  2.9641  1.4308
   10DOPE  C214 1228   8.931   5.507  15.680  0.0767  0.0723 -0.2778
   10DOPE  H14R 1229   8.917   5.414  15.739  1.9120  0.1733  0.3692
   10DOPE  H14S 1230   9.040   5.528  15.680 -0.0706  0.9589 -1.7682
   10DOPE  C215 1231   8.895   5.475  15.540 -0.2064  0.5707  0.4018
   10DOPE  H15R 1232   8.922   5.571  15.491 -3.1763  1.0173 -0.5372
   10DOPE  H15S 1233   8.791   5.445  15.516  0.2262  0.3387 -1.3374
   10DOPE  C216 1234   8.989   5.363  15.486 -0.5609  0.5414  0.9183
   10DOPE  H16R 1235   8.990   5.275  15.553 -0.1729 -0.5515 -0.4537
   10DOPE  H16S 1236   9.095   5.397  15.479 -1.2562  2.5748 -0.7135
   10DOPE  C217 1237   8.954   5.326  15.338 -0.5295  0.3146 -0.8219
   10DOPE  H17R 1238   8.845   5.305  15.347 -0.7214  1.9605  2.0866
   10DOPE  H17S 1239   9.012   5.236  15.309 -2.7575 -0.7880 -2.0796
   10DOPE  C218 1240   8.971   5.442  15.236  0.1050 -0.0642  0.4867
   10DOPE  H18R 1241   8.891   5.517  15.253 -0.6585 -0.7352 -0.0893
   10DOPE  H18S 1242   8.957   5.395  15.136  0.4364 -0.2931  0.5466
   10DOPE  H18T 1243   9.071   5.492  15.240  0.1609 -0.2341  1.4296
   10DOPE   C33 1244   7.564   5.279  16.106  0.2359 -0.2221  0.0183
   10DOPE   H3X 1245   7.547   5.184  16.160  0.7193  0.7112  1.9190
   10DOPE   H3Y 1246   7.663   5.273  16.055  1.1398  0.7567  1.5812
   10DOPE   C34 1247   7.455   5.294  16.005  0.3083  0.0678  0.0076
   10DOPE   H4X 1248   7.362   5.315  16.063  0.1088  0.6027 -0.4927
   10DOPE   H4Y 1249   7.481   5.387  15.950 -2.4020  1.2274  0.5098
   10DOPE   C35 1250   7.439   5.176  15.906 -0.1771 -1.1523  1.0297
   10DOPE   H5X 1251   7.342   5.189  15.853  0.4035 -1.0936 -0.0379
   10DOPE   H5Y 1252   7.444   5.084  15.969  0.1339 -0.8462  1.4622
   10DOPE   C36 1253   7.559   5.178  15.816 -0.0146  0.6562  0.0120
   10DOPE   H6X 1254   7.649   5.150  15.875 -0.3977 -1.0706 -0.1593
   10DOPE   H6Y 1255   7.571   5.279  15.772 -0.7828  0.1060 -1.5313
   10DOPE   C37 1256   7.558   5.083  15.693  0.7286  0.0648 -0.0295
   10DOPE   H7X 1257   7.648   5.050  15.636  0.9013  2.4846 -1.2638
   10DOPE   H7Y 1258   7.496   4.993  15.715 -0.1368  0.5761 -0.3460
   10DOPE   C38 1259   7.480   5.151  15.577  0.0558  1.1638 -0.1284
   10DOPE   H8X 1260   7.397   5.208  15.625  0.2933 -0.0130  1.7817
   10DOPE   H8Y 1261   7.437   5.076  15.508 -0.4888  1.3450  0.0036
   10DOPE   C39 1262   7.562   5.247  15.497 -0.3365 -0.4005  0.2971
   10DOPE   H9X 1263   7.626   5.318  15.553  0.3338  1.6688 -2.8295
   10DOPE  C310 1264   7.561   5.263  15.364  0.1035 -0.3482  0.2217
   10DOPE  H10X 1265   7.622   5.343  15.319  1.2414 -0.2577  1.8701
   10DOPE  C311 1266   7.477   5.195  15.265 -0.1513 -0.1125  0.1572
   10DOPE  H11X 1267   7.522   5.102  15.223 -1.4898  0.5502 -3.0444
   10DOPE  H11Y 1268   7.378   5.164  15.304 -1.8402  0.8915 -2.9850
   10DOPE  C312 1269   7.449   5.294  15.142 -0.0988  0.2682  0.1763
   10DOPE  H12X 1270   7.534   5.365  15.133  0.3011 -0.4346 -2.3626
   10DOPE  H12Y 1271   7.357   5.350  15.169 -0.2776 -0.7441  1.8732
   10DOPE  C313 1272   7.419   5.219  15.015 -0.4215 -1.0968 -0.1186
   10DOPE  H13X 1273   7.504   5.149  15.000 -0.0906 -1.1029  1.6391
   10DOPE  H13Y 1274   7.328   5.158  15.035 -0.3786 -0.6220  1.6719
   10DOPE  C314 1275   7.384   5.308  14.893 -0.5612  0.3144  0.0892
   10DOPE  H14X 1276   7.449   5.398  14.889  1.0320 -0.8180 -0.4072
   10DOPE  H14Y 1277   7.282   5.348  14.912 -1.1755 -1.7592  1.4674
   10DOPE  C315 1278   7.402   5.225  14.768 -1.5399  0.3570  0.4004
   10DOPE  H15X 1279   7.329   5.142  14.775 -0.9778 -0.1074  0.7897
   10DOPE  H15Y 1280   7.503   5.191  14.737 -2.0646 -1.7664  0.8729
   10DOPE  C316 1281   7.363   5.303  14.637 -0.1480 -0.5594  0.2885
   10DOPE  H16X 1282   7.441   5.377  14.609 -0.5469 -0.1528  0.2423
   10DOPE  H16Y 1283   7.275   5.365  14.665 -0.6843 -0.5352 -1.3006
   10DOPE  C317 1284   7.337   5.218  14.510 -0.1465 -0.0406  0.3382
   10DOPE  H17X 1285   7.368   5.286  14.428 -1.5385  1.6730  1.1765
   10DOPE  H17Y 1286   7.412   5.136  14.503  0.3050  0.2188  1.7058
   10DOPE  C318 1287   7.196   5.178  14.483  0.3661  0.2780  0.5798
   10DOPE  H18X 1288   7.120   5.258  14.496 -1.0318 -0.5005 -1.9727
   10DOPE  H18Y 1289   7.182   5.163  14.374  1.6368  3.9239 -0.2176
   10DOPE  H18Z 1290   7.176   5.084  14.538  1.2161 -0.7932 -0.8801
   11DOPE     N 1291   0.015   3.557  16.892 -0.0659  0.0430 -0.1378
   11DOPE   HN1 1292  -0.056   3.630  16.912  0.6426  0.4541  1.0075
   11DOPE   HN2 1293   0.040   3.515  16.984 -0.9310  0.4834  0.3165
   11DOPE   HN3 1294   0.101   3.608  16.864  1.4534 -2.4351 -0.2834
   11DOPE   C12 1295  -0.036   3.456  16.800  0.0417  0.0731  0.4264
   11DOPE  H12A 1296  -0.125   3.408  16.847 -0.8937  1.6289  0.3149
   11DOPE  H12B 1297   0.047   3.384  16.785  0.1022 -0.1742  1.8627
   11DOPE   C11 1298  -0.092   3.529  16.677 -0.2574  0.1666  0.6884
   11DOPE  H11A 1299  -0.020   3.603  16.636  0.9778 -1.1382  0.3797
   11DOPE  H11B 1300  -0.180   3.588  16.707  0.4773  0.7919  1.6905
   11DOPE     P 1301  -0.261   3.361  16.571  0.1578  0.1387  0.0260
   11DOPE   O13 1302  -0.347   3.438  16.476 -0.0323  0.2325 -0.2099
   11DOPE   O14 1303  -0.312   3.327  16.700 -0.2027 -0.2842 -0.4607
   11DOPE   O11 1304  -0.226   3.227  16.497  0.0300  0.4098 -0.1228
   11DOPE   O12 1305  -0.124   3.432  16.579  0.2599  0.0419 -0.3953
   11DOPE    C1 1306  -0.123   3.238  16.393  0.0424  0.0782  0.6315
   11DOPE    HA 1307  -0.125   3.333  16.335 -0.9758 -0.0945  0.3799
   11DOPE    HB 1308  -0.147   3.161  16.317 -1.5869  0.0524  1.1400
   11DOPE    C2 1309   0.015   3.203  16.449 -0.0811  0.2998  0.0100
   11DOPE    HS 1310   0.060   3.287  16.507 -0.4024 -0.0209  0.7374
   11DOPE   O21 1311   0.098   3.173  16.335 -0.1963 -0.4761  0.7634
   11DOPE   C21 1312   0.233   3.187  16.352  1.0482 -0.2221 -0.1206
   11DOPE   O22 1313   0.283   3.185  16.460 -0.0032 -0.5587  0.4854
   11DOPE   C22 1314   0.296   3.196  16.220 -0.5997 -0.1832  1.0138
   11DOPE   H2R 1315   0.309   3.304  16.198  1.0088 -0.1818  1.7726
   11DOPE   H2S 1316   0.227   3.160  16.141  2.4337 -0.2577 -1.7907
   11DOPE    C3 1317   0.014   3.074  16.543 -0.4237 -0.5305  0.4900
   11DOPE    HX 1318  -0.058   3.100  16.624 -0.6092 -2.6531  1.0644
   11DOPE    HY 1319   0.111   3.073  16.595  0.3211 -0.2118 -0.8311
   11DOPE   O31 1320  -0.038   2.954  16.472 -0.0926 -0.1529  0.3695
   11DOPE   C31 1321   0.058   2.882  16.424 -0.7392 -0.3624 -0.6229
   11DOPE   O32 1322   0.178   2.886  16.455  0.5104 -0.0612  0.4163
   11DOPE   C32 1323  -0.002   2.776  16.330  0.6912 -0.2505  0.5066
   11DOPE   H2X 1324  -0.031   2.694  16.399 -1.1101 -1.3096 -1.4218
   11DOPE   H2Y 1325  -0.093   2.814  16.279 -0.2874 -0.3938  2.0915
   11DOPE   C23 1326   0.424   3.108  16.197  0.6728  0.0103 -0.3662
   11DOPE   H3R 1327   0.419   3.013  16.254 -1.1896  0.5284  0.4031
   11DOPE   H3S 1328   0.514   3.165  16.229 -0.8560  1.3219  1.9027
   11DOPE   C24 1329   0.449   3.062  16.053 -0.0932 -0.3586 -0.5390
   11DOPE   H4R 1330   0.552   3.021  16.042 -0.2310 -0.7623 -0.3721
   11DOPE   H4S 1331   0.440   3.156  15.995  1.3925  0.9446  1.1863
   11DOPE   C25 1332   0.352   2.963  15.990 -0.2476 -0.3779 -0.0336
   11DOPE   H5R 1333   0.250   3.006  15.987  0.6080  1.8821  1.0677
   11DOPE   H5S 1334   0.344   2.882  16.065 -2.5701  0.2820  0.4976
   11DOPE   C26 1335   0.407   2.918  15.852 -1.0495  0.3262 -0.2239
   11DOPE   H6R 1336   0.513   2.883  15.852 -0.8057  1.0116  0.9336
   11DOPE   H6S 1337   0.405   2.999  15.776  0.6839  2.0509  1.4498
   11DOPE   C27 1338   0.342   2.792  15.800  0.4486  0.2170  0.1563
   11DOPE   H7R 1339   0.233   2.806  15.788  0.4515 -1.1012 -1.9964
   11DOPE   H7S 1340   0.359   2.708  15.871 -0.8516 -3.3167 -3.3196
   11DOPE   C28 1341   0.402   2.738  15.665  0.4961 -0.1005  0.0967
   11DOPE   H8R 1342   0.429   2.813  15.588  0.4279  2.7590  2.6646
   11DOPE   H8S 1343   0.322   2.674  15.621  0.4240  0.9297 -1.3294
   11DOPE   C29 1344   0.525   2.652  15.691  0.5681 -0.0272 -0.1311
   11DOPE   H9R 1345   0.516   2.582  15.776 -2.4932 -0.1425 -0.4434
   11DOPE  C210 1346   0.629   2.626  15.608  0.0142  0.1237 -0.3425
   11DOPE  H10R 1347   0.707   2.552  15.633  0.4452  0.1154 -1.6674
   11DOPE  C211 1348   0.650   2.680  15.466 -0.2760 -0.0184  0.4483
   11DOPE  H11R 1349   0.632   2.788  15.450  1.0499  0.0938 -0.4739
   11DOPE  H11S 1350   0.593   2.621  15.391 -0.5501  0.4723  0.2670
   11DOPE  C212 1351   0.799   2.675  15.424  0.3856  0.9177 -0.0113
   11DOPE  H12R 1352   0.835   2.571  15.405 -1.5893  0.2257 -0.2080
   11DOPE  H12S 1353   0.856   2.710  15.513 -1.3004 -1.2597  2.0469
   11DOPE  C213 1354   0.829   2.769  15.304 -0.2076  0.0497  0.8392
   11DOPE  H13R 1355   0.786   2.870  15.323 -0.8355  0.0193 -0.2946
   11DOPE  H13S 1356   0.773   2.727  15.218  1.0681 -0.4986  0.2563
   11DOPE  C214 1357   0.978   2.782  15.270  0.0494 -0.5746  0.1047
   11DOPE  H14R 1358   1.014   2.832  15.362  0.2940  0.7252 -0.6689
   11DOPE  H14S 1359   0.990   2.839  15.175 -1.1109  0.7528  0.7421
   11DOPE  C215 1360   1.044   2.643  15.252 -0.0958 -0.0034 -0.1073
   11DOPE  H15R 1361   1.008   2.592  15.159 -2.0762 -1.0245  1.1579
   11DOPE  H15S 1362   1.024   2.577  15.339  0.6527  1.4488  1.2020
   11DOPE  C216 1363   1.194   2.659  15.255  0.0312 -0.1580 -0.1946
   11DOPE  H16R 1364   1.225   2.719  15.343  1.7386  0.9394 -1.4643
   11DOPE  H16S 1365   1.226   2.708  15.160 -2.2053  0.7127 -0.5653
   11DOPE  C217 1366   1.266   2.522  15.285 -0.6870  0.2527 -0.3909
   11DOPE  H17R 1367   1.215   2.454  15.356  1.0001  0.7482  1.3718
   11DOPE  H17S 1368   1.365   2.552  15.324  0.0507 -0.5902 -1.5502
   11DOPE  C218 1369   1.306   2.447  15.160  0.1243 -0.1776  0.4307
   11DOPE  H18R 1370   1.218   2.399  15.112  0.4807 -2.5195  1.9191
   11DOPE  H18S 1371   1.378   2.368  15.192  1.5521  1.5087  1.5769
   11DOPE  H18T 1372   1.352   2.516  15.086  3.6559  1.5971  3.8877
   11DOPE   C33 1373   0.108   2.718  16.239  1.2418  0.2959  0.0664
   11DOPE   H3X 1374   0.204   2.697  16.289  0.3975 -3.0787  0.5091
   11DOPE   H3Y 1375   0.138   2.780  16.151  0.1900 -1.5782 -1.7187
   11DOPE   C34 1376   0.073   2.584  16.175  0.1322 -0.6959 -0.2277
   11DOPE   H4X 1377   0.071   2.502  16.251  0.1752  1.0107  1.7135
   11DOPE   H4Y 1378  -0.020   2.586  16.115  0.0526  1.4528 -0.0890
   11DOPE   C35 1379   0.189   2.543  16.074 -0.3360 -0.3385  0.3289
   11DOPE   H5X 1380   0.289   2.513  16.114  0.4201 -2.1989 -2.6372
   11DOPE   H5Y 1381   0.212   2.636  16.018  0.7309 -1.2934 -0.8999
   11DOPE   C36 1382   0.135   2.425  15.991 -0.0682 -0.1363 -0.1871
   11DOPE   H6X 1383   0.024   2.420  15.994 -0.0313 -3.6100  2.5866
   11DOPE   H6Y 1384   0.176   2.328  16.028  0.5787 -0.3684 -1.4685
   11DOPE   C37 1385   0.178   2.435  15.841  0.4992  0.4212 -1.0832
   11DOPE   H7X 1386   0.122   2.521  15.799  1.2036  1.6985  0.4905
   11DOPE   H7Y 1387   0.281   2.473  15.859  0.7159 -1.1802  1.5967
   11DOPE   C38 1388   0.172   2.310  15.751  0.0835 -0.1298  0.2074
   11DOPE   H8X 1389   0.080   2.317  15.689  0.2882 -0.9874 -0.2161
   11DOPE   H8Y 1390   0.168   2.213  15.805 -0.2685 -1.5262 -2.1629
   11DOPE   C39 1391   0.280   2.311  15.644  0.1685 -0.5532  0.1969
   11DOPE   H9X 1392   0.376   2.326  15.697 -0.8138  0.9608  1.6549
   11DOPE  C310 1393   0.273   2.302  15.511 -0.0620 -0.2955 -0.7137
   11DOPE  H10X 1394   0.362   2.299  15.447  0.7711 -1.7499  0.4606
   11DOPE  C311 1395   0.151   2.284  15.437 -0.2065  0.5990 -0.2004
   11DOPE  H11X 1396   0.069   2.244  15.500  0.8106  0.4172  1.0370
   11DOPE  H11Y 1397   0.118   2.387  15.411 -1.7326  0.3148  0.5236
   11DOPE  C312 1398   0.169   2.206  15.310  0.0624  0.7903 -0.2949
   11DOPE  H12X 1399   0.214   2.109  15.341 -0.2422  0.1936 -1.6611
   11DOPE  H12Y 1400   0.237   2.250  15.235  0.0218  0.9966 -0.2115
   11DOPE  C313 1401   0.031   2.190  15.243  0.4892 -0.7864  0.1288
   11DOPE  H13X 1402   0.050   2.141  15.145  0.4654  1.8679 -1.2934
   11DOPE  H13Y 1403  -0.048   2.135  15.299  0.2112 -1.9987 -1.3786
   11DOPE  C314 1404  -0.038   2.325  15.206 -0.4505 -0.6034  0.2617
   11DOPE  H14X 1405   0.042   2.397  15.176 -0.8023 -0.6448 -0.8412
   11DOPE  H14Y 1406  -0.073   2.367  15.302 -0.2717  1.4352 -0.5066
   11DOPE  C315 1407  -0.154   2.337  15.106 -0.3002 -0.3915 -0.0596
   11DOPE  H15X 1408  -0.232   2.259  15.122  0.4760 -1.7556 -2.4422
   11DOPE  H15Y 1409  -0.112   2.321  15.005  2.4389  0.7289  0.8022
   11DOPE  C316 1410  -0.219   2.476  15.107  0.4281 -0.3100  0.3769
   11DOPE  H16X 1411  -0.131   2.545  15.115 -0.4059  1.1462 -1.8928
   11DOPE  H16Y 1412  -0.292   2.484  15.190 -2.2791  0.1620 -1.9031
   11DOPE  C317 1413  -0.294   2.515  14.978 -0.7092  0.5105 -0.4421
   11DOPE  H17X 1414  -0.369   2.434  14.969  1.6047 -2.0528  1.4165
   11DOPE  H17Y 1415  -0.344   2.611  15.004 -0.5103  0.1449  1.4322
   11DOPE  C318 1416  -0.215   2.533  14.849 -0.5255  0.7316 -0.3745
   11DOPE  H18X 1417  -0.141   2.616  14.855  2.2417 -1.6256  0.4859
   11DOPE  H18Y 1418  -0.166   2.435  14.827 -0.7269  0.4705  0.3040
   11DOPE  H18Z 1419  -0.286   2.567  14.771  0.6245  3.3410 -0.3982
   12DOPE     N 1420   1.301   5.936  17.044  0.0550  0.3360  0.4144
   12DOPE   HN1 1421   1.200   5.913  17.037  0.0192  0.3336  0.9178
   12DOPE   HN2 1422   1.354   5.870  16.983 -2.8909 -2.2474  0.3966
   12DOPE   HN3 1423   1.330   5.919  17.142 -1.5877 -0.7775  0.7571
   12DOPE   C12 1424   1.337   6.077  17.011  0.5391  0.1158  0.0754
   12DOPE  H12A 1425   1.273   6.155  17.058  1.0944  0.9823 -0.5911
   12DOPE  H12B 1426   1.335   6.089  16.900 -1.5876 -1.3049 -0.0989
   12DOPE   C11 1427   1.482   6.112  17.072  0.0972  0.6254  0.6573
   12DOPE  H11A 1428   1.501   6.216  17.037 -1.0847  1.2120  1.6616
   12DOPE  H11B 1429   1.559   6.046  17.027 -2.5340 -1.2680 -1.4961
   12DOPE     P 1430   1.521   5.988  17.305 -0.7508 -0.0050  0.3172
   12DOPE   O13 1431   1.422   5.878  17.283 -0.8679 -0.4964  0.0368
   12DOPE   O14 1432   1.550   6.033  17.447 -0.2187  0.0762  0.2105
   12DOPE   O11 1433   1.664   5.938  17.238  0.1056 -0.4357  0.1882
   12DOPE   O12 1434   1.482   6.112  17.212 -0.1794 -0.2948 -0.1290
   12DOPE    C1 1435   1.687   5.804  17.206  0.0215 -0.3779  0.1993
   12DOPE    HA 1436   1.601   5.766  17.147 -0.0321 -0.4986  0.3535
   12DOPE    HB 1437   1.678   5.745  17.300  0.5760  1.1263  1.2253
   12DOPE    C2 1438   1.825   5.789  17.144 -0.6397  0.4094  0.7848
   12DOPE    HS 1439   1.898   5.833  17.215  2.8676 -1.6718 -1.2574
   12DOPE   O21 1440   1.818   5.868  17.020  0.6472  0.2954  0.1016
   12DOPE   C21 1441   1.884   5.985  17.031 -0.9660 -0.3015  0.1296
   12DOPE   O22 1442   1.980   6.000  17.103 -0.2952 -0.3024 -0.2820
   12DOPE   C22 1443   1.831   6.084  16.924 -0.7812 -1.1436 -0.4695
   12DOPE   H2R 1444   1.731   6.129  16.945 -0.5527 -0.0567 -1.5976
   12DOPE   H2S 1445   1.823   6.031  16.827 -0.2900 -0.6177 -0.8023
   12DOPE    C3 1446   1.873   5.644  17.107 -0.1968 -0.5065  0.3143
   12DOPE    HX 1447   1.801   5.606  17.031  0.2847  1.5465 -1.2300
   12DOPE    HY 1448   1.869   5.579  17.197  0.5060  0.8057  1.3302
   12DOPE   O31 1449   2.012   5.649  17.064  0.1429 -0.3372 -0.5974
   12DOPE   C31 1450   2.031   5.687  16.944  0.5646 -1.1592  0.3740
   12DOPE   O32 1451   1.949   5.699  16.850 -0.3461  0.4327  0.2265
   12DOPE   C32 1452   2.181   5.696  16.919  0.0422  0.0124  0.4107
   12DOPE   H2X 1453   2.226   5.689  17.021 -1.4301 -2.5538  0.9662
   12DOPE   H2Y 1454   2.198   5.598  16.870 -0.4465  0.7204 -1.2340
   12DOPE   C23 1455   1.932   6.196  16.907  0.4232 -0.0856 -0.2782
   12DOPE   H3R 1456   1.963   6.252  16.998  0.3322 -2.3166  1.2301
   12DOPE   H3S 1457   1.871   6.272  16.854 -0.5534  1.2032  2.4733
   12DOPE   C24 1458   2.061   6.164  16.825 -0.2201 -0.1535 -0.4049
   12DOPE   H4R 1459   2.059   6.064  16.775 -1.2282  0.5910 -1.9208
   12DOPE   H4S 1460   2.142   6.166  16.902 -1.9423  0.9622  1.4651
   12DOPE   C25 1461   2.097   6.266  16.712  0.0348  0.4870 -0.7473
   12DOPE   H5R 1462   2.200   6.250  16.674  0.5921 -1.2108  1.2568
   12DOPE   H5S 1463   2.096   6.371  16.748 -1.7116  0.2643 -0.0096
   12DOPE   C26 1464   1.994   6.262  16.589 -0.6074 -0.1789  0.1293
   12DOPE   H6R 1465   1.894   6.256  16.635 -1.4459  1.3101 -1.4239
   12DOPE   H6S 1466   1.997   6.170  16.527 -1.3783 -0.9664  1.2206
   12DOPE   C27 1467   1.984   6.389  16.499 -0.1082  0.7021 -0.3077
   12DOPE   H7R 1468   1.983   6.479  16.564  0.4900  0.4475  0.0605
   12DOPE   H7S 1469   1.879   6.394  16.462 -0.8203 -2.7405  0.8668
   12DOPE   C28 1470   2.096   6.394  16.395 -0.5987 -0.2001  0.3550
   12DOPE   H8R 1471   2.196   6.397  16.443  0.4946  3.9512 -1.6983
   12DOPE   H8S 1472   2.089   6.488  16.336  1.4619 -0.3967 -0.2720
   12DOPE   C29 1473   2.086   6.277  16.303 -0.2038  0.2380  0.7517
   12DOPE   H9R 1474   2.156   6.196  16.327  0.7811  0.5414 -0.8867
   12DOPE  C210 1475   2.026   6.263  16.183 -0.5470 -0.1974  0.0413
   12DOPE  H10R 1476   2.068   6.182  16.122  1.2872 -2.0255  3.4155
   12DOPE  C211 1477   1.939   6.359  16.119 -1.2240 -0.6540 -0.5980
   12DOPE  H11R 1478   2.002   6.431  16.062 -0.9202  0.9360  1.6069
   12DOPE  H11S 1479   1.882   6.423  16.190  1.2063 -1.3403  2.1410
   12DOPE  C212 1480   1.834   6.289  16.038  0.3115 -0.0235 -0.1998
   12DOPE  H12R 1481   1.759   6.365  16.006  1.5866  1.0562 -0.7380
   12DOPE  H12S 1482   1.777   6.215  16.099 -1.1437  1.8585  0.8600
   12DOPE  C213 1483   1.896   6.234  15.914  0.3053 -0.3428  0.1847
   12DOPE  H13R 1484   1.923   6.130  15.941  0.7343 -0.0373  0.9275
   12DOPE  H13S 1485   1.989   6.290  15.894 -0.0726 -0.1236 -1.1161
   12DOPE  C214 1486   1.806   6.238  15.787 -0.2886  0.5508 -0.3098
   12DOPE  H14R 1487   1.779   6.345  15.773 -0.1554  0.6090 -0.1284
   12DOPE  H14S 1488   1.713   6.178  15.796  0.5615 -0.7826 -0.0851
   12DOPE  C215 1489   1.888   6.201  15.662 -0.6215  0.1835  0.5577
   12DOPE  H15R 1490   1.897   6.091  15.649 -1.0452  0.3355 -1.4031
   12DOPE  H15S 1491   1.987   6.246  15.685  0.0449 -0.5986 -0.6396
   12DOPE  C216 1492   1.831   6.255  15.532  0.0896  0.5075  0.7391
   12DOPE  H16R 1493   1.862   6.360  15.517  0.5726  0.2632 -0.0762
   12DOPE  H16S 1494   1.721   6.240  15.531 -0.0875  1.7228  0.0818
   12DOPE  C217 1495   1.894   6.184  15.413  0.3083 -0.2712 -0.4876
   12DOPE  H17R 1496   1.842   6.086  15.401  1.1641 -0.5051 -2.7802
   12DOPE  H17S 1497   2.001   6.165  15.436  1.0892  1.8815 -2.0633
   12DOPE  C218 1498   1.882   6.262  15.283 -0.0886  0.8556 -0.2097
   12DOPE  H18R 1499   1.777   6.296  15.270 -0.9392 -0.7352  1.8849
   12DOPE  H18S 1500   1.916   6.190  15.205  1.8461  2.2078 -0.6717
   12DOPE  H18T 1501   1.959   6.341  15.282 -0.4324  1.2264  1.0220
   12DOPE   C33 1502   2.234   5.808  16.834 -0.8666 -0.5965  0.4242
   12DOPE   H3X 1503   2.342   5.821  16.857 -0.8918  1.3034 -0.3567
   12DOPE   H3Y 1504   2.190   5.907  16.859 -0.5107 -0.2167 -0.4250
   12DOPE   C34 1505   2.223   5.788  16.678 -0.2153 -0.2316  0.0299
   12DOPE   H4X 1506   2.280   5.698  16.646  1.6855  1.2287 -0.9414
   12DOPE   H4Y 1507   2.115   5.771  16.660 -0.4445  0.4584  0.7396
   12DOPE   C35 1508   2.267   5.910  16.599  0.1806  0.0814  0.3883
   12DOPE   H5X 1509   2.372   5.933  16.627  0.1214  1.2266 -0.2773
   12DOPE   H5Y 1510   2.210   5.999  16.635  0.7318 -0.1634  1.9580
   12DOPE   C36 1511   2.242   5.876  16.450  0.1027  0.2026  0.0501
   12DOPE   H6X 1512   2.135   5.903  16.435  0.5039  1.8409 -0.0232
   12DOPE   H6Y 1513   2.257   5.766  16.442 -0.6755  0.1445 -0.7683
   12DOPE   C37 1514   2.333   5.951  16.349 -0.1586 -0.0741  0.9772
   12DOPE   H7X 1515   2.325   6.061  16.361  1.0887  0.0205  1.0969
   12DOPE   H7Y 1516   2.439   5.930  16.375  0.7572  2.4104 -0.4072
   12DOPE   C38 1517   2.314   5.925  16.194  0.7208  0.0941 -0.1987
   12DOPE   H8X 1518   2.206   5.947  16.176  0.9478  1.3896 -0.0557
   12DOPE   H8Y 1519   2.336   5.819  16.166  0.8341  0.3022 -0.9234
   12DOPE   C39 1520   2.388   6.017  16.104  0.5671  0.8644  0.0248
   12DOPE   H9X 1521   2.465   6.076  16.157 -0.0471  0.7691  1.0607
   12DOPE  C310 1522   2.369   6.043  15.970 -0.4690 -0.2603 -0.1452
   12DOPE  H10X 1523   2.439   6.112  15.920 -2.0980  3.0806  1.8114
   12DOPE  C311 1524   2.253   5.982  15.881 -0.1392 -0.2757  0.0918
   12DOPE  H11X 1525   2.171   5.942  15.945 -0.7567 -0.1654 -0.6074
   12DOPE  H11Y 1526   2.195   6.059  15.826  0.8169  0.0954 -0.4013
   12DOPE  C312 1527   2.297   5.878  15.776 -0.4771  0.2404 -0.3402
   12DOPE  H12X 1528   2.216   5.820  15.727  0.6043 -0.6780 -1.1107
   12DOPE  H12Y 1529   2.356   5.798  15.828 -2.8904 -0.2791  1.7973
   12DOPE  C313 1530   2.379   5.946  15.660  0.5492 -0.2397  0.2099
   12DOPE  H13X 1531   2.332   6.043  15.632  2.4335  1.6837  3.1290
   12DOPE  H13Y 1532   2.475   5.984  15.701  1.0052 -0.8621 -0.2556
   12DOPE  C314 1533   2.413   5.857  15.540 -0.4487 -0.9011 -0.0070
   12DOPE  H14X 1534   2.406   5.748  15.561  0.4483 -0.8569  0.5769
   12DOPE  H14Y 1535   2.514   5.884  15.502 -0.3668  0.2006  0.9559
   12DOPE  C315 1536   2.329   5.888  15.420  0.2519  0.3265  0.2510
   12DOPE  H15X 1537   2.325   5.995  15.392  0.8430 -0.2157 -2.1513
   12DOPE  H15Y 1538   2.228   5.850  15.448  1.2953 -1.3558  1.9626
   12DOPE  C316 1539   2.368   5.832  15.286  0.1160  0.6058 -0.8173
   12DOPE  H16X 1540   2.401   5.727  15.301  0.0608  0.8125  0.9420
   12DOPE  H16Y 1541   2.465   5.875  15.254  1.1688 -0.4153  0.8275
   12DOPE  C317 1542   2.249   5.839  15.188  0.2733  0.8357  0.2148
   12DOPE  H17X 1543   2.284   5.785  15.098 -1.0113 -0.0081  0.1965
   12DOPE  H17Y 1544   2.170   5.767  15.215  2.0974 -2.1758 -1.9039
   12DOPE  C318 1545   2.183   5.977  15.173 -0.0691  0.0008  0.3326
   12DOPE  H18X 1546   2.267   6.050  15.174  0.6801 -0.8237  0.0146
   12DOPE  H18Y 1547   2.150   5.985  15.067 -0.2208 -2.8817  0.0699
   12DOPE  H18Z 1548   2.100   6.000  15.243 -1.2323 -0.4754 -0.8420
   13DOPE     N 1549   0.770   0.835  17.615  0.1181  0.1259 -0.6401
   13DOPE   HN1 1550   0.693   0.779  17.572 -0.6689 -0.5067  1.4825
   13DOPE   HN2 1551   0.846   0.765  17.631  0.5054  0.8792  1.0547
   13DOPE   HN3 1552   0.733   0.851  17.711 -0.4883 -2.1363 -0.4357
   13DOPE   C12 1553   0.816   0.949  17.528  0.2309 -0.1424 -0.2041
   13DOPE  H12A 1554   0.922   0.965  17.559  0.4044 -1.8015  0.1702
   13DOPE  H12B 1555   0.745   1.029  17.559  0.1374 -0.2413 -0.1619
   13DOPE   C11 1556   0.809   0.911  17.374 -0.1493 -0.3550 -0.1050
   13DOPE  H11A 1557   0.811   1.012  17.329  0.7638  0.0042  0.7146
   13DOPE  H11B 1558   0.710   0.863  17.356  0.7717 -1.8565 -1.4287
   13DOPE     P 1559   1.025   0.863  17.238  0.0010  0.1609  0.1459
   13DOPE   O13 1560   1.094   0.738  17.197  0.2429 -0.1234 -0.2708
   13DOPE   O14 1561   1.108   0.961  17.310 -0.4209 -0.8329 -0.0369
   13DOPE   O11 1562   0.949   0.934  17.114 -0.1177 -0.2587 -0.2696
   13DOPE   O12 1563   0.914   0.819  17.334  0.3534 -0.1234  0.3527
   13DOPE    C1 1564   0.937   0.871  16.989 -0.1943  0.2644  0.8873
   13DOPE    HA 1565   0.834   0.833  16.974 -0.2125  0.5253  0.2992
   13DOPE    HB 1566   0.993   0.776  16.972 -1.9304 -0.6343 -0.1274
   13DOPE    C2 1567   0.960   0.968  16.871 -0.3897 -0.0761  0.0935
   13DOPE    HS 1568   0.954   0.934  16.765  1.6183  3.5955 -1.3712
   13DOPE   O21 1569   1.079   1.037  16.899 -0.6208 -0.1447  0.8164
   13DOPE   C21 1570   1.182   0.969  16.855 -0.4911 -0.6070  0.5642
   13DOPE   O22 1571   1.172   0.889  16.757  0.3743  0.0780 -0.5164
   13DOPE   C22 1572   1.309   1.015  16.918 -0.6009 -0.6533 -0.6617
   13DOPE   H2R 1573   1.321   0.955  17.010 -4.4846 -0.8366 -0.1186
   13DOPE   H2S 1574   1.315   1.123  16.942 -0.9778  0.0452 -3.3136
   13DOPE    C3 1575   0.852   1.081  16.858  0.1046  0.4406 -0.3081
   13DOPE    HX 1576   0.842   1.137  16.953 -1.4659 -1.4979  0.7519
   13DOPE    HY 1577   0.751   1.035  16.866  0.0968  0.7003  1.4723
   13DOPE   O31 1578   0.856   1.154  16.733 -0.2536 -0.2061 -0.0199
   13DOPE   C31 1579   0.867   1.283  16.735 -0.6635  0.1437  1.0802
   13DOPE   O32 1580   0.857   1.349  16.835 -0.2503 -0.7443  0.0318
   13DOPE   C32 1581   0.888   1.336  16.594  0.3033  0.2699 -1.2392
   13DOPE   H2X 1582   0.850   1.257  16.526 -1.2900 -0.8452  0.7966
   13DOPE   H2Y 1583   0.816   1.420  16.598  0.5832  0.4901 -0.5629
   13DOPE   C23 1584   1.425   0.976  16.821 -0.5010  0.1284  0.0971
   13DOPE   H3R 1585   1.415   1.016  16.718 -3.0724 -1.0396 -0.1970
   13DOPE   H3S 1586   1.427   0.865  16.813  0.3054  0.1676 -0.3823
   13DOPE   C24 1587   1.558   1.046  16.870 -0.4640 -0.9962 -0.0128
   13DOPE   H4R 1588   1.638   1.007  16.804 -0.2211  1.6489 -1.4470
   13DOPE   H4S 1589   1.579   1.012  16.973 -0.0274 -0.1699  0.1765
   13DOPE   C25 1590   1.557   1.197  16.878  0.1520 -0.6171 -0.6886
   13DOPE   H5R 1591   1.659   1.233  16.903 -0.7378  0.8998  0.9850
   13DOPE   H5S 1592   1.502   1.223  16.970  0.1761 -1.6778 -0.3592
   13DOPE   C26 1593   1.499   1.263  16.753 -0.1526  0.3262  0.1471
   13DOPE   H6R 1594   1.482   1.367  16.788 -0.9381 -0.5240  2.4782
   13DOPE   H6S 1595   1.395   1.246  16.718  0.6640 -0.4587 -2.0644
   13DOPE   C27 1596   1.601   1.255  16.638  0.1012 -0.3093  0.2942
   13DOPE   H7R 1597   1.547   1.287  16.545  0.5053  1.9483  0.7754
   13DOPE   H7S 1598   1.656   1.159  16.635  0.8704  0.1000 -2.7204
   13DOPE   C28 1599   1.703   1.376  16.649  0.5006  0.7996 -0.2531
   13DOPE   H8R 1600   1.788   1.336  16.709  1.1716  1.9583 -0.4015
   13DOPE   H8S 1601   1.656   1.453  16.713 -0.8138 -0.4973  0.4168
   13DOPE   C29 1602   1.754   1.441  16.522 -0.9889 -0.4752  0.3236
   13DOPE   H9R 1603   1.739   1.549  16.512 -0.4911 -0.3751  0.6002
   13DOPE  C210 1604   1.801   1.379  16.413 -0.6313 -0.2546 -0.3130
   13DOPE  H10R 1605   1.828   1.437  16.323  2.0600  0.1365  0.6372
   13DOPE  C211 1606   1.826   1.234  16.393  0.2144 -0.6411 -0.5438
   13DOPE  H11R 1607   1.740   1.193  16.337  1.3147  0.9439 -3.5767
   13DOPE  H11S 1608   1.851   1.190  16.492  0.3526  3.3114  1.3716
   13DOPE  C212 1609   1.950   1.208  16.306 -0.1478  0.3796 -0.2209
   13DOPE  H12R 1610   1.984   1.103  16.325 -1.3338  0.1006  0.4387
   13DOPE  H12S 1611   2.039   1.268  16.335  0.6222 -1.6149  1.9076
   13DOPE  C213 1612   1.932   1.235  16.156  0.6499 -0.1153 -0.1978
   13DOPE  H13R 1613   1.904   1.338  16.127  0.3267 -0.0477  0.3389
   13DOPE  H13S 1614   1.846   1.170  16.130 -0.0479 -0.0885  1.8460
   13DOPE  C214 1615   2.065   1.196  16.081 -0.6516  0.7119  0.4241
   13DOPE  H14R 1616   2.113   1.105  16.120  0.0141  0.5822 -0.6671
   13DOPE  H14S 1617   2.132   1.284  16.093  1.0131 -0.2999 -0.9534
   13DOPE  C215 1618   2.047   1.169  15.927 -0.4131 -0.1165 -0.3593
   13DOPE  H15R 1619   1.953   1.110  15.922  0.0261 -0.8069 -0.5802
   13DOPE  H15S 1620   2.132   1.111  15.884 -2.7771 -2.2092 -2.5572
   13DOPE  C216 1621   2.032   1.300  15.851 -0.1176 -0.9252 -0.2355
   13DOPE  H16R 1622   2.118   1.357  15.891 -0.4011 -1.0381  0.5501
   13DOPE  H16S 1623   1.933   1.345  15.875 -0.3246 -0.8492 -1.1985
   13DOPE  C217 1624   2.038   1.291  15.695 -0.0570  0.5084  0.1716
   13DOPE  H17R 1625   1.958   1.216  15.674 -0.4359  1.0617 -0.4177
   13DOPE  H17S 1626   2.137   1.251  15.665 -0.4852  0.0467 -0.6796
   13DOPE  C218 1627   1.996   1.419  15.622  0.3891  0.0842  0.5277
   13DOPE  H18R 1628   2.069   1.499  15.649 -1.0735  1.9589 -0.8484
   13DOPE  H18S 1629   1.892   1.448  15.647  0.4080  1.1398 -0.5191
   13DOPE  H18T 1630   1.991   1.406  15.512 -2.3977 -1.4895  0.7472
   13DOPE   C33 1631   1.031   1.374  16.566 -0.1572 -0.0451  0.5460
   13DOPE   H3X 1632   1.068   1.449  16.640 -0.3286  1.7050 -1.0567
   13DOPE   H3Y 1633   1.024   1.425  16.467 -1.3206 -0.7031  0.2750
   13DOPE   C34 1634   1.131   1.255  16.552  0.4775  0.2122  0.6452
   13DOPE   H4X 1635   1.235   1.293  16.559 -0.0754  1.5981  2.1295
   13DOPE   H4Y 1636   1.108   1.190  16.639  0.8831  1.4622  1.7212
   13DOPE   C35 1637   1.123   1.173  16.425 -0.0092 -0.3661 -0.3740
   13DOPE   H5X 1638   1.158   1.228  16.335 -0.9253  0.9225  0.0172
   13DOPE   H5Y 1639   1.020   1.138  16.405 -0.4049 -0.3711  1.4852
   13DOPE   C36 1640   1.196   1.038  16.430  0.2545 -0.6274  0.1278
   13DOPE   H6X 1641   1.159   0.962  16.358 -1.7540 -1.2255  1.6884
   13DOPE   H6Y 1642   1.173   0.999  16.532 -1.2207 -0.8132 -0.2485
   13DOPE   C37 1643   1.347   1.060  16.420  0.1320 -0.0409 -0.0013
   13DOPE   H7X 1644   1.363   1.112  16.323 -0.3377  0.5704  0.2436
   13DOPE   H7Y 1645   1.376   1.132  16.499 -0.1040  0.5436 -0.4368
   13DOPE   C38 1646   1.432   0.931  16.432  0.6264  0.1983 -0.3902
   13DOPE   H8X 1647   1.400   0.863  16.351  0.0453  2.7408 -2.4346
   13DOPE   H8Y 1648   1.393   0.895  16.530  0.3689  0.6276 -0.3309
   13DOPE   C39 1649   1.581   0.948  16.436 -0.3190 -0.6410  0.4960
   13DOPE   H9X 1650   1.624   0.978  16.533 -1.7173  1.7106  0.4765
   13DOPE  C310 1651   1.660   0.913  16.328  0.5339 -0.6985 -0.0166
   13DOPE  H10X 1652   1.769   0.925  16.339  0.4832  0.1721 -0.3615
   13DOPE  C311 1653   1.612   0.860  16.191 -0.6441  0.0022 -0.1809
   13DOPE  H11X 1654   1.606   0.749  16.187  0.2651 -0.0429 -0.5518
   13DOPE  H11Y 1655   1.510   0.897  16.169 -0.3636  0.8877 -0.0335
   13DOPE  C312 1656   1.702   0.902  16.079 -0.4135 -0.2367  0.5629
   13DOPE  H12X 1657   1.808   0.876  16.101  0.0038  1.7911  1.1849
   13DOPE  H12Y 1658   1.704   1.012  16.063  0.1960 -0.3533 -0.2504
   13DOPE  C313 1659   1.654   0.846  15.944  0.1401  0.2305 -0.4026
   13DOPE  H13X 1660   1.654   0.735  15.950 -0.0229  0.2632  0.3133
   13DOPE  H13Y 1661   1.548   0.875  15.926 -0.3302 -2.1464 -1.9863
   13DOPE  C314 1662   1.734   0.890  15.818  0.4072  0.5155  0.0405
   13DOPE  H14X 1663   1.830   0.833  15.825 -1.4781 -2.8530  0.9469
   13DOPE  H14Y 1664   1.750   1.000  15.814 -0.8953  0.7971  1.4388
   13DOPE  C315 1665   1.671   0.841  15.680 -0.3778  0.6389 -0.2631
   13DOPE  H15X 1666   1.570   0.887  15.678 -0.8616 -0.4146 -0.3849
   13DOPE  H15Y 1667   1.667   0.731  15.691  0.9415  0.5215 -0.7626
   13DOPE  C316 1668   1.749   0.886  15.558  0.0910  0.2475  0.0257
   13DOPE  H16X 1669   1.744   0.997  15.552 -3.3264  0.1393 -2.1917
   13DOPE  H16Y 1670   1.695   0.856  15.465 -0.6332 -1.0164  0.8327
   13DOPE  C317 1671   1.892   0.844  15.554 -0.3615 -0.3293 -0.4939
   13DOPE  H17X 1672   1.930   0.868  15.656 -1.0156  2.4439 -0.8066
   13DOPE  H17Y 1673   1.900   0.746  15.503  1.2766  1.8690 -5.0841
   13DOPE  C318 1674   1.974   0.934  15.462 -0.3556 -0.0109 -0.3683
   13DOPE  H18X 1675   1.982   1.038  15.500  1.1833  0.1193 -0.9825
   13DOPE  H18Y 1676   2.073   0.887  15.447 -0.9606 -1.6456  0.5564
   13DOPE  H18Z 1677   1.922   0.952  15.365 -0.1028  1.1278 -0.3092
   14DOPE     N 1678   7.113   3.606  16.505 -0.1207 -0.5521 -0.4767
   14DOPE   HN1 1679   7.091   3.587  16.405 -0.8288 -1.3095 -0.1924
   14DOPE   HN2 1680   7.103   3.709  16.514 -0.2417 -0.6557  0.8532
   14DOPE   HN3 1681   7.212   3.584  16.529 -0.3628  0.2182  1.3918
   14DOPE   C12 1682   7.019   3.545  16.596  0.2201 -0.3807 -0.5539
   14DOPE  H12A 1683   7.033   3.590  16.697 -1.4273 -1.4785  0.2211
   14DOPE  H12B 1684   7.047   3.438  16.601  0.8797 -0.2251 -0.8472
   14DOPE   C11 1685   6.872   3.561  16.552 -0.0380 -0.2220  0.0073
   14DOPE  H11A 1686   6.818   3.512  16.635  0.8094 -0.2695  0.5406
   14DOPE  H11B 1687   6.859   3.507  16.455  0.8369  3.7213 -2.5762
   14DOPE     P 1688   6.737   3.778  16.620  0.1132 -0.7255 -0.0534
   14DOPE   O13 1689   6.710   3.912  16.562  0.4107  0.3455 -0.2283
   14DOPE   O14 1690   6.777   3.760  16.757  0.0578  0.4807 -0.1799
   14DOPE   O11 1691   6.617   3.685  16.604 -0.5065 -0.1174 -0.3023
   14DOPE   O12 1692   6.843   3.697  16.536  0.4452 -0.5186  0.1127
   14DOPE    C1 1693   6.542   3.667  16.485  0.2935 -0.0145  0.2339
   14DOPE    HA 1694   6.596   3.717  16.402 -0.6549  0.5454 -0.0461
   14DOPE    HB 1695   6.445   3.719  16.478 -0.5735 -1.7099 -1.0727
   14DOPE    C2 1696   6.509   3.512  16.464  0.6068 -0.2334  0.1108
   14DOPE    HS 1697   6.530   3.463  16.562 -0.9657 -1.6798 -0.2137
   14DOPE   O21 1698   6.592   3.466  16.356  0.6301 -0.1418 -0.0194
   14DOPE   C21 1699   6.622   3.335  16.361 -0.4188 -0.1859  0.4667
   14DOPE   O22 1700   6.575   3.250  16.433  0.2422  0.0736  0.2275
   14DOPE   C22 1701   6.719   3.312  16.249  0.2932 -0.0343 -0.3703
   14DOPE   H2R 1702   6.815   3.361  16.274  1.0777 -1.4680 -0.4612
   14DOPE   H2S 1703   6.674   3.362  16.160  1.3839  0.5324 -0.6194
   14DOPE    C3 1704   6.351   3.484  16.432 -0.2207  0.1233  0.2260
   14DOPE    HX 1705   6.292   3.517  16.520 -0.9268 -1.3485  0.3436
   14DOPE    HY 1706   6.329   3.375  16.430 -1.5935  0.3844 -0.4630
   14DOPE   O31 1707   6.298   3.550  16.313 -0.5502 -0.0285 -0.5608
   14DOPE   C31 1708   6.168   3.562  16.312  0.6678  0.5727 -0.3157
   14DOPE   O32 1709   6.089   3.524  16.393 -0.1866  0.1336 -0.5045
   14DOPE   C32 1710   6.119   3.645  16.190  0.4276  0.6114  0.4535
   14DOPE   H2X 1711   6.029   3.701  16.225  0.0529 -1.2422  2.7104
   14DOPE   H2Y 1712   6.191   3.721  16.153  1.0973 -0.1614  0.1446
   14DOPE   C23 1713   6.746   3.171  16.235 -0.1969  0.1340 -0.7873
   14DOPE   H3R 1714   6.656   3.120  16.196 -1.7100  1.4516  0.8487
   14DOPE   H3S 1715   6.767   3.131  16.336  0.0059  0.4232 -0.7153
   14DOPE   C24 1716   6.875   3.133  16.151 -0.3462  0.8664  0.2957
   14DOPE   H4R 1717   6.966   3.151  16.212 -0.7037 -1.0287  1.4803
   14DOPE   H4S 1718   6.877   3.196  16.060 -0.7274  1.2309  0.5367
   14DOPE   C25 1719   6.880   2.992  16.111 -0.0662 -0.4112 -0.3165
   14DOPE   H5R 1720   6.882   2.931  16.204  2.4512 -0.9481 -0.6565
   14DOPE   H5S 1721   6.976   2.975  16.058  1.0489 -0.3240  1.5929
   14DOPE   C26 1722   6.760   2.948  16.019  0.5743 -0.4825 -0.2675
   14DOPE   H6R 1723   6.668   2.949  16.081  1.9476 -0.9378  1.8915
   14DOPE   H6S 1724   6.782   2.840  16.009  0.5595 -0.4233 -1.0029
   14DOPE   C27 1725   6.749   3.022  15.884 -0.0653 -0.0902  1.2494
   14DOPE   H7R 1726   6.838   3.013  15.817 -1.7678 -0.2209 -1.1386
   14DOPE   H7S 1727   6.725   3.128  15.905 -1.1239 -0.6645  3.1223
   14DOPE   C28 1728   6.633   2.954  15.798 -0.1281 -0.2547 -0.4165
   14DOPE   H8R 1729   6.643   2.845  15.813  2.5357  0.1468  1.4702
   14DOPE   H8S 1730   6.660   2.972  15.692 -0.1878  1.1809 -0.2057
   14DOPE   C29 1731   6.496   3.003  15.828  0.0662  0.3238  0.3936
   14DOPE   H9R 1732   6.460   2.936  15.906  1.9477 -1.5285 -0.2196
   14DOPE  C210 1733   6.414   3.089  15.764  0.0759  0.0417 -0.0622
   14DOPE  H10R 1734   6.316   3.111  15.808  0.4715 -0.9955  1.3776
   14DOPE  C211 1735   6.453   3.184  15.650  0.0564 -0.3922  0.5877
   14DOPE  H11R 1736   6.564   3.182  15.642  0.1329 -0.4731  1.5942
   14DOPE  H11S 1737   6.411   3.287  15.660 -1.2112 -0.9151  0.7970
   14DOPE  C212 1738   6.398   3.142  15.508 -0.4954 -0.4052 -0.4970
   14DOPE  H12R 1739   6.290   3.168  15.504 -0.4504 -0.1114  0.0800
   14DOPE  H12S 1740   6.403   3.031  15.497  3.0101 -0.4387  0.4280
   14DOPE  C213 1741   6.471   3.197  15.387  0.9059 -0.6511 -0.3676
   14DOPE  H13R 1742   6.574   3.158  15.376  0.7479 -1.0602 -0.3973
   14DOPE  H13S 1743   6.477   3.307  15.401  0.2161 -0.3114 -2.3504
   14DOPE  C214 1744   6.389   3.183  15.251  0.4493 -0.0777  0.1604
   14DOPE  H14R 1745   6.291   3.235  15.251  0.7216  0.4819 -1.6110
   14DOPE  H14S 1746   6.365   3.076  15.231 -0.3676  0.6072 -3.0538
   14DOPE  C215 1747   6.473   3.244  15.131 -0.3002  0.3146 -0.9210
   14DOPE  H15R 1748   6.581   3.222  15.142  0.0912  0.1909 -4.1803
   14DOPE  H15S 1749   6.468   3.353  15.155 -3.2654  0.4036 -1.4869
   14DOPE  C216 1750   6.425   3.235  14.989  0.2259  0.3787  0.1468
   14DOPE  H16R 1751   6.493   3.292  14.922  0.4394 -0.3837 -0.2890
   14DOPE  H16S 1752   6.320   3.268  14.975  0.1129 -0.8991 -2.9489
   14DOPE  C217 1753   6.430   3.087  14.942  0.1592  0.4060 -0.1502
   14DOPE  H17R 1754   6.346   3.059  14.874  0.2132  0.9975 -0.4645
   14DOPE  H17S 1755   6.429   3.024  15.033 -0.8421  1.7222  0.7968
   14DOPE  C218 1756   6.560   3.051  14.869  0.2021  0.4246  0.1142
   14DOPE  H18R 1757   6.574   2.942  14.852 -0.6484  0.4148 -0.6101
   14DOPE  H18S 1758   6.645   3.096  14.924  1.4688  0.3582 -1.6708
   14DOPE  H18T 1759   6.560   3.094  14.766 -0.4505 -2.2280 -1.0688
   14DOPE   C33 1760   6.067   3.555  16.071  0.3065 -0.3829 -0.8156
   14DOPE   H3X 1761   5.999   3.473  16.105 -0.8596  1.2229  0.9432
   14DOPE   H3Y 1762   6.155   3.515  16.016  0.1091  0.1375 -1.5260
   14DOPE   C34 1763   6.003   3.632  15.953 -0.3212 -0.2684 -0.0043
   14DOPE   H4X 1764   5.904   3.676  15.977 -2.2102 -2.7470 -2.6210
   14DOPE   H4Y 1765   6.077   3.712  15.930  1.9124 -2.0000  0.8170
   14DOPE   C35 1766   5.965   3.562  15.821  0.4880  0.4409 -0.6552
   14DOPE   H5X 1767   5.883   3.490  15.841  1.2426  0.2114  2.0915
   14DOPE   H5Y 1768   6.052   3.504  15.785  1.0209  1.1349 -0.5042
   14DOPE   C36 1769   5.904   3.655  15.710 -0.0875 -0.2757 -0.2636
   14DOPE   H6X 1770   5.969   3.743  15.690  1.0577 -0.2072  3.1745
   14DOPE   H6Y 1771   5.808   3.689  15.754  0.4980  0.1088  0.7554
   14DOPE   C37 1772   5.872   3.573  15.583 -0.5157  0.3209 -0.0330
   14DOPE   H7X 1773   5.969   3.546  15.536 -0.1921 -0.7786  1.2136
   14DOPE   H7Y 1774   5.817   3.478  15.601  1.3232 -0.8610 -0.3583
   14DOPE   C38 1775   5.787   3.647  15.481 -0.4130 -0.5478  0.4825
   14DOPE   H8X 1776   5.683   3.663  15.518 -0.5884 -1.7507  0.5596
   14DOPE   H8Y 1777   5.766   3.581  15.395  0.2029 -0.8106  0.5303
   14DOPE   C39 1778   5.861   3.779  15.445  0.3225 -0.3514  1.0528
   14DOPE   H9X 1779   5.964   3.759  15.414 -0.4614 -0.9487 -1.3163
   14DOPE  C310 1780   5.816   3.906  15.435 -0.4662 -0.5101 -0.0330
   14DOPE  H10X 1781   5.882   3.993  15.429 -0.9838  0.0401  1.5942
   14DOPE  C311 1782   5.678   3.964  15.461 -0.3872 -0.3405  0.0289
   14DOPE  H11X 1783   5.658   4.022  15.369  0.1174 -1.5870 -0.8859
   14DOPE  H11Y 1784   5.594   3.892  15.469  0.0067 -0.7915  0.2006
   14DOPE  C312 1785   5.668   4.048  15.588 -0.1873  0.0784 -0.1373
   14DOPE  H12X 1786   5.570   4.102  15.592 -0.8497 -1.0410 -0.7361
   14DOPE  H12Y 1787   5.743   4.130  15.596 -0.8271  0.7362 -0.6412
   14DOPE  C313 1788   5.678   3.962  15.715  0.3373 -0.3254 -0.2702
   14DOPE  H13X 1789   5.591   3.893  15.720  1.3263 -1.5819  0.4771
   14DOPE  H13Y 1790   5.773   3.906  15.698 -0.4780 -1.1359 -2.4484
   14DOPE  C314 1791   5.676   4.036  15.850  0.8987 -0.0492 -0.3692
   14DOPE  H14X 1792   5.576   4.082  15.861  1.3450  0.7059  0.7719
   14DOPE  H14Y 1793   5.757   4.113  15.856  1.4908 -0.6109 -0.9987
   14DOPE  C315 1794   5.694   3.936  15.960 -0.2496  0.1002 -0.1157
   14DOPE  H15X 1795   5.767   3.862  15.922 -2.6292 -2.2065 -0.4525
   14DOPE  H15Y 1796   5.605   3.873  15.980  0.4733 -0.7736  0.4499
   14DOPE  C316 1797   5.722   4.010  16.093 -0.6083  0.1829 -0.1589
   14DOPE  H16X 1798   5.707   3.936  16.174  2.6183 -1.1231 -0.5780
   14DOPE  H16Y 1799   5.654   4.096  16.110 -1.0503 -0.3323  0.7921
   14DOPE  C317 1800   5.861   4.052  16.121 -0.4432 -0.3650 -0.0986
   14DOPE  H17X 1801   5.936   3.970  16.110 -0.4702 -0.3090 -0.7243
   14DOPE  H17Y 1802   5.883   4.124  16.039 -1.1635  0.1125  0.1247
   14DOPE  C318 1803   5.887   4.124  16.247 -0.6520  0.0666 -0.2391
   14DOPE  H18X 1804   5.980   4.184  16.242 -0.3123 -0.5403 -1.2611
   14DOPE  H18Y 1805   5.815   4.208  16.262  0.2839  0.7375  0.6918
   14DOPE  H18Z 1806   5.901   4.050  16.329 -0.9866  1.4622  1.1491
   15DOPE     N 1807   6.915   1.559  17.076 -0.9095  0.2363  0.2764
   15DOPE   HN1 1808   6.848   1.634  17.104 -1.3667  0.0291 -0.2506
   15DOPE   HN2 1809   6.951   1.579  16.980 -0.3114  0.3649  0.5206
   15DOPE   HN3 1810   6.869   1.467  17.085  0.7112 -0.8460 -1.5858
   15DOPE   C12 1811   7.031   1.566  17.166 -0.6169 -0.0680  0.5897
   15DOPE  H12A 1812   7.113   1.499  17.132 -1.7870 -1.3885  0.2605
   15DOPE  H12B 1813   6.998   1.552  17.272  0.0081  3.4517  1.3806
   15DOPE   C11 1814   7.087   1.716  17.173  0.4595  0.5887  0.1402
   15DOPE  H11A 1815   7.158   1.722  17.258  0.3544  0.7228  0.2196
   15DOPE  H11B 1816   7.001   1.787  17.185 -0.1618 -0.0978 -0.1722
   15DOPE     P 1817   7.309   1.750  17.044  0.2375 -0.0420  0.1055
   15DOPE   O13 1818   7.352   1.616  17.035  0.0162  0.6862 -0.6295
   15DOPE   O14 1819   7.370   1.833  17.149  0.1226  0.0375 -0.8349
   15DOPE   O11 1820   7.334   1.813  16.903 -0.0318 -0.3653 -0.2566
   15DOPE   O12 1821   7.153   1.758  17.052 -0.6405 -0.2542 -0.2835
   15DOPE    C1 1822   7.284   1.948  16.874 -0.5065  0.4716  0.3421
   15DOPE    HA 1823   7.359   1.996  16.808  1.7140  0.0739  2.4589
   15DOPE    HB 1824   7.261   2.009  16.963  2.0169  0.3809  1.1337
   15DOPE    C2 1825   7.142   1.956  16.808 -0.1803 -0.7493 -0.3199
   15DOPE    HS 1826   7.077   1.930  16.894  0.5569 -0.5828  0.3029
   15DOPE   O21 1827   7.136   1.867  16.699  0.1555 -0.1224 -0.5039
   15DOPE   C21 1828   7.015   1.840  16.644  0.0241 -0.4295 -0.1221
   15DOPE   O22 1829   6.911   1.896  16.669 -0.2032  0.3401 -0.4709
   15DOPE   C22 1830   7.028   1.720  16.553  0.0833 -1.0399  0.1198
   15DOPE   H2R 1831   6.949   1.648  16.583  0.1821 -1.0869  0.2690
   15DOPE   H2S 1832   7.117   1.656  16.574  2.0101  1.7254  0.9246
   15DOPE    C3 1833   7.120   2.107  16.769 -0.3411 -0.0977 -0.1142
   15DOPE    HX 1834   7.118   2.150  16.872 -0.4615  0.4628 -0.3510
   15DOPE    HY 1835   7.018   2.122  16.728 -1.7415  2.1024  3.6279
   15DOPE   O31 1836   7.224   2.164  16.688 -0.1964  0.1578  0.0212
   15DOPE   C31 1837   7.227   2.295  16.680 -0.2658  0.3113  0.2616
   15DOPE   O32 1838   7.155   2.371  16.744  0.4102 -0.3087  0.2567
   15DOPE   C32 1839   7.336   2.344  16.578  0.1085 -0.2398 -0.5763
   15DOPE   H2X 1840   7.344   2.454  16.587 -3.5853  0.1093 -0.0778
   15DOPE   H2Y 1841   7.435   2.299  16.603 -0.0362 -0.4950 -0.4576
   15DOPE   C23 1842   7.024   1.764  16.400  0.1067  0.7764 -0.3450
   15DOPE   H3R 1843   7.047   1.673  16.341 -2.1976  0.8780 -1.4914
   15DOPE   H3S 1844   7.108   1.832  16.375  0.5818  0.6119  0.7447
   15DOPE   C24 1845   6.893   1.824  16.353  0.5927 -0.4212  0.1138
   15DOPE   H4R 1846   6.859   1.896  16.431  0.3881 -0.1894 -0.1881
   15DOPE   H4S 1847   6.811   1.749  16.347  0.7057 -0.7552  2.0947
   15DOPE   C25 1848   6.895   1.894  16.214 -0.2510  0.0701  0.1072
   15DOPE   H5R 1849   6.957   1.987  16.208 -1.8328  1.1003 -1.1175
   15DOPE   H5S 1850   6.791   1.911  16.179 -0.3344 -2.5015 -1.1337
   15DOPE   C26 1851   6.954   1.809  16.102 -0.4125 -0.2743 -0.2069
   15DOPE   H6R 1852   6.939   1.702  16.126  0.5803 -0.6309 -1.1161
   15DOPE   H6S 1853   7.065   1.815  16.097 -0.2508 -1.5388  1.1844
   15DOPE   C27 1854   6.889   1.839  15.961 -0.1490 -0.1733 -0.0126
   15DOPE   H7R 1855   6.786   1.801  15.975 -0.9278  2.5118  2.6266
   15DOPE   H7S 1856   6.938   1.778  15.882  2.4530  3.6572 -1.6872
   15DOPE   C28 1857   6.875   1.986  15.924 -0.8148  0.4251  0.3371
   15DOPE   H8R 1858   6.810   2.033  16.002  1.6482  1.2353  2.0166
   15DOPE   H8S 1859   6.815   1.982  15.831 -1.7366 -1.3635  0.9521
   15DOPE   C29 1860   7.011   2.060  15.921  0.3603 -0.3498  0.5328
   15DOPE   H9R 1861   7.068   2.046  16.014 -1.0650 -2.6905  1.1374
   15DOPE  C210 1862   7.065   2.133  15.821 -0.4503  0.4091 -0.1522
   15DOPE  H10R 1863   7.164   2.178  15.839 -0.6941  1.1378 -0.5826
   15DOPE  C211 1864   6.994   2.172  15.692 -1.4605  0.1260  0.7152
   15DOPE  H11R 1865   6.954   2.276  15.694  1.3040  1.3500 -1.2184
   15DOPE  H11S 1866   6.920   2.095  15.662 -0.3467 -0.6842 -0.0119
   15DOPE  C212 1867   7.098   2.170  15.586 -0.5874 -0.2175 -0.1536
   15DOPE  H12R 1868   7.163   2.081  15.572  3.1945  2.4736 -1.1707
   15DOPE  H12S 1869   7.165   2.253  15.618 -2.9229  1.0564  1.7664
   15DOPE  C213 1870   7.045   2.202  15.442 -0.2437  0.0292 -0.3098
   15DOPE  H13R 1871   6.949   2.256  15.455  0.7045  1.7763 -0.3194
   15DOPE  H13S 1872   7.025   2.100  15.403 -1.0151 -0.8106  2.0636
   15DOPE  C214 1873   7.139   2.286  15.357  0.2417 -0.1761 -0.7494
   15DOPE  H14R 1874   7.229   2.222  15.360  0.8643  0.6966  0.7279
   15DOPE  H14S 1875   7.156   2.387  15.401  3.0854 -0.0101 -2.0582
   15DOPE  C215 1876   7.078   2.296  15.221 -0.8977  0.0627  0.2179
   15DOPE  H15R 1877   7.054   2.189  15.202  0.1022 -0.3415  1.1111
   15DOPE  H15S 1878   7.159   2.339  15.159  0.7939 -0.0879  2.2096
   15DOPE  C216 1879   6.941   2.375  15.222 -0.1633 -0.3111  0.6588
   15DOPE  H16R 1880   6.959   2.471  15.276  2.3320 -0.3868  0.0627
   15DOPE  H16S 1881   6.857   2.319  15.269 -1.4881 -1.3038 -2.6363
   15DOPE  C217 1882   6.899   2.412  15.079 -0.4781  0.7608  0.0281
   15DOPE  H17R 1883   6.789   2.430  15.079 -0.7909 -0.8336  1.9604
   15DOPE  H17S 1884   6.920   2.319  15.021  2.5448 -1.9971  4.8366
   15DOPE  C218 1885   6.991   2.520  15.016 -0.3439  0.2050  0.6223
   15DOPE  H18R 1886   6.996   2.600  15.093  0.1396 -1.2157  2.1422
   15DOPE  H18S 1887   6.960   2.558  14.916  0.6942  0.0135  0.2122
   15DOPE  H18T 1888   7.095   2.480  15.013 -0.4539 -0.0020 -1.6095
   15DOPE   C33 1889   7.305   2.299  16.431  0.1861 -0.5630 -0.1837
   15DOPE   H3X 1890   7.201   2.337  16.417  0.3612  0.3393  0.8374
   15DOPE   H3Y 1891   7.298   2.189  16.419 -0.6780 -0.5642  0.2081
   15DOPE   C34 1892   7.391   2.357  16.325 -0.1417 -0.3605  0.2903
   15DOPE   H4X 1893   7.368   2.465  16.311 -1.4325 -0.5315  0.9425
   15DOPE   H4Y 1894   7.500   2.341  16.342  0.3122  1.7236 -0.3414
   15DOPE   C35 1895   7.358   2.281  16.197  0.6675  0.0873  0.1143
   15DOPE   H5X 1896   7.255   2.315  16.169  1.3171  1.1719 -1.0782
   15DOPE   H5Y 1897   7.367   2.173  16.222  2.4274 -0.0119 -0.8095
   15DOPE   C36 1898   7.459   2.309  16.080  0.8920  0.2029  0.0571
   15DOPE   H6X 1899   7.549   2.248  16.099 -0.1646 -0.7845  2.2043
   15DOPE   H6Y 1900   7.475   2.419  16.079 -0.7859  0.5021  1.1253
   15DOPE   C37 1901   7.402   2.267  15.941  0.8318 -0.7356 -0.1268
   15DOPE   H7X 1902   7.365   2.163  15.945 -1.5342  0.0734  0.8095
   15DOPE   H7Y 1903   7.319   2.337  15.918  0.5985 -0.5357  1.2026
   15DOPE   C38 1904   7.505   2.272  15.828  0.3774 -0.1103 -0.1254
   15DOPE   H8X 1905   7.605   2.236  15.861 -0.4096 -1.1981  1.1713
   15DOPE   H8Y 1906   7.515   2.380  15.806  2.0828 -0.4615 -1.2649
   15DOPE   C39 1907   7.467   2.207  15.698  0.1917 -0.0951 -0.0767
   15DOPE   H9X 1908   7.418   2.272  15.623 -1.3906 -0.4874  0.5825
   15DOPE  C310 1909   7.479   2.077  15.659 -0.5241 -0.4387  0.3474
   15DOPE  H10X 1910   7.448   2.048  15.558  2.1648  3.6662 -1.9613
   15DOPE  C311 1911   7.522   1.962  15.755 -0.4334  0.1931 -0.5627
   15DOPE  H11X 1912   7.591   1.992  15.836 -1.1458  2.2387 -0.6496
   15DOPE  H11Y 1913   7.432   1.928  15.811  0.6725  0.0291  1.1873
   15DOPE  C312 1914   7.588   1.843  15.684  0.1641 -0.6316  0.2089
   15DOPE  H12X 1915   7.683   1.890  15.649 -0.7435  2.5418  1.6694
   15DOPE  H12Y 1916   7.527   1.816  15.595 -0.8464  1.0114  0.3715
   15DOPE  C313 1917   7.604   1.729  15.784  0.1656 -0.7927 -0.0189
   15DOPE  H13X 1918   7.682   1.759  15.857 -0.4824 -0.4900  0.5631
   15DOPE  H13Y 1919   7.513   1.708  15.844  0.4951 -1.5392  0.2292
   15DOPE  C314 1920   7.652   1.608  15.708  0.4070  0.5564 -0.6295
   15DOPE  H14X 1921   7.755   1.631  15.672  0.8424 -0.8718 -0.3611
   15DOPE  H14Y 1922   7.581   1.604  15.623 -0.7042 -0.9503  0.3252
   15DOPE  C315 1923   7.643   1.473  15.781 -0.2006  0.3450  0.0303
   15DOPE  H15X 1924   7.658   1.401  15.698 -1.4156  0.7281 -0.5466
   15DOPE  H15Y 1925   7.540   1.473  15.822 -0.1999  0.8433  0.0407
   15DOPE  C316 1926   7.747   1.447  15.885 -0.2259  0.8379  0.4975
   15DOPE  H16X 1927   7.768   1.551  15.916  0.8262  1.0716 -0.9084
   15DOPE  H16Y 1928   7.840   1.412  15.836 -0.0470  0.7839  0.8715
   15DOPE  C317 1929   7.686   1.342  15.988 -0.6410  0.4330  0.4367
   15DOPE  H17X 1930   7.777   1.310  16.042  0.4599 -2.1450 -2.6367
   15DOPE  H17Y 1931   7.615   1.400  16.051 -1.7763 -0.5149  0.0714
   15DOPE  C318 1932   7.611   1.222  15.934  0.0700  0.4731 -0.4504
   15DOPE  H18X 1933   7.506   1.251  15.917 -0.2778 -0.7566 -0.5305
   15DOPE  H18Y 1934   7.654   1.190  15.837  1.1495 -1.9319  0.7176
   15DOPE  H18Z 1935   7.623   1.133  16.000 -1.0395 -0.1172 -1.0240
   16DOPE     N 1936   6.703   2.727  16.830  0.4128 -1.0456 -0.7354
   16DOPE   HN1 1937   6.614   2.732  16.883  0.8826 -1.3660  0.1077
   16DOPE   HN2 1938   6.737   2.824  16.851 -4.1092  1.0435 -1.8743
   16DOPE   HN3 1939   6.682   2.707  16.730 -2.5419 -1.4727 -0.1122
   16DOPE   C12 1940   6.804   2.625  16.877  0.2165  0.6160 -0.1930
   16DOPE  H12A 1941   6.837   2.657  16.978 -1.3422  0.2051  0.4751
   16DOPE  H12B 1942   6.883   2.627  16.798  1.1266  2.0066  0.7134
   16DOPE   C11 1943   6.735   2.486  16.882  0.8665 -0.1520 -0.3119
   16DOPE  H11A 1944   6.811   2.406  16.878  0.8440 -0.1762 -0.2617
   16DOPE  H11B 1945   6.672   2.477  16.791 -0.8054  0.3689  0.7348
   16DOPE     P 1946   6.508   2.466  17.031 -0.4058 -0.1364  0.1880
   16DOPE   O13 1947   6.457   2.607  17.038 -0.1348  0.6320  0.8421
   16DOPE   O14 1948   6.492   2.384  17.156  0.5583 -0.0633  0.3941
   16DOPE   O11 1949   6.458   2.382  16.913 -0.2255 -0.5986  0.2727
   16DOPE   O12 1950   6.662   2.471  17.008  0.0437 -0.1489 -0.0486
   16DOPE    C1 1951   6.323   2.373  16.870 -0.1696 -0.2255 -0.0132
   16DOPE    HA 1952   6.306   2.468  16.815  2.4147  1.1472  1.3428
   16DOPE    HB 1953   6.248   2.370  16.952 -0.3324 -1.2649 -0.1881
   16DOPE    C2 1954   6.313   2.248  16.780 -1.1692 -0.4981  0.5166
   16DOPE    HS 1955   6.338   2.160  16.843 -1.5826  0.0276  1.4276
   16DOPE   O21 1956   6.394   2.267  16.655 -0.1570 -0.2023  0.4102
   16DOPE   C21 1957   6.506   2.189  16.651  1.0999 -0.7394  0.3659
   16DOPE   O22 1958   6.533   2.101  16.730  0.4652 -0.3082  0.0919
   16DOPE   C22 1959   6.573   2.229  16.525 -0.1866 -0.0189  0.3177
   16DOPE   H2R 1960   6.556   2.338  16.511 -4.5426 -0.2300  2.1652
   16DOPE   H2S 1961   6.509   2.186  16.445  0.6833 -2.2033  0.7286
   16DOPE    C3 1962   6.167   2.220  16.734 -0.0864  0.1418 -0.4430
   16DOPE    HX 1963   6.137   2.311  16.677 -1.8159  1.6655  2.6165
   16DOPE    HY 1964   6.104   2.210  16.826  0.8838  0.0457  0.2218
   16DOPE   O31 1965   6.174   2.102  16.650  0.2054  0.0368 -0.8537
   16DOPE   C31 1966   6.083   2.010  16.663  0.4561 -0.0503  0.4023
   16DOPE   O32 1967   5.987   2.012  16.741  0.6769  0.3488  0.3527
   16DOPE   C32 1968   6.133   1.882  16.584 -0.4496  0.4578  0.0651
   16DOPE   H2X 1969   6.221   1.834  16.633 -0.2484  1.1061  0.3549
   16DOPE   H2Y 1970   6.057   1.804  16.602 -0.6987  0.8894  0.9341
   16DOPE   C23 1971   6.716   2.180  16.508 -0.2412 -0.0976 -0.1662
   16DOPE   H3R 1972   6.729   2.075  16.541  1.2899  0.1979  0.2510
   16DOPE   H3S 1973   6.790   2.239  16.565 -0.3226  0.5912 -0.7565
   16DOPE   C24 1974   6.762   2.196  16.356 -0.1787 -0.1486  0.5004
   16DOPE   H4R 1975   6.700   2.135  16.286  0.6432  0.4294 -0.7699
   16DOPE   H4S 1976   6.865   2.155  16.361 -1.1811 -2.7770  2.0236
   16DOPE   C25 1977   6.766   2.346  16.305  0.2703 -0.5147 -0.3025
   16DOPE   H5R 1978   6.666   2.389  16.281  1.4339  1.4297 -1.9407
   16DOPE   H5S 1979   6.820   2.337  16.208 -2.5619  3.0354 -2.4482
   16DOPE   C26 1980   6.838   2.439  16.406 -0.0508  0.2911 -0.5479
   16DOPE   H6R 1981   6.941   2.398  16.402 -0.1969 -0.0375 -1.0764
   16DOPE   H6S 1982   6.799   2.436  16.510  0.4209  2.1823 -0.2746
   16DOPE   C27 1983   6.840   2.585  16.361 -0.1430  0.4831  0.2590
   16DOPE   H7R 1984   6.897   2.650  16.430  0.9517  0.0321 -0.2007
   16DOPE   H7S 1985   6.740   2.633  16.351  0.4579  1.7632  0.2663
   16DOPE   C28 1986   6.895   2.607  16.215  0.4509 -0.0775 -0.5020
   16DOPE   H8R 1987   6.875   2.710  16.177 -1.1219  0.4990  1.6908
   16DOPE   H8S 1988   6.825   2.539  16.162 -0.3732  0.4321 -0.0965
   16DOPE   C29 1989   7.043   2.578  16.221  0.0357 -1.1813  1.0043
   16DOPE   H9R 1990   7.092   2.602  16.316 -0.7661  1.2710  0.8553
   16DOPE  C210 1991   7.117   2.536  16.116  0.9600 -0.0719 -0.1044
   16DOPE  H10R 1992   7.227   2.528  16.127  1.1176  0.9962 -0.7410
   16DOPE  C211 1993   7.066   2.487  15.983  0.4468 -1.1481  0.8101
   16DOPE  H11R 1994   6.956   2.474  15.984  0.2632 -1.7001 -3.9039
   16DOPE  H11S 1995   7.113   2.389  15.960  2.0598  0.0174 -1.1859
   16DOPE  C212 1996   7.112   2.564  15.860 -0.3141  0.0850  0.5662
   16DOPE  H12R 1997   7.087   2.509  15.766  1.9126 -1.2338  0.6702
   16DOPE  H12S 1998   7.221   2.586  15.862 -0.2865  0.2071 -0.9783
   16DOPE  C213 1999   7.046   2.707  15.845 -0.5259 -0.0272  0.1123
   16DOPE  H13R 2000   7.062   2.772  15.933 -0.2263 -0.7146  0.5710
   16DOPE  H13S 2001   6.936   2.699  15.829 -0.4494  2.0962 -2.0876
   16DOPE  C214 2002   7.106   2.778  15.722  0.6718 -0.2695 -0.9912
   16DOPE  H14R 2003   7.108   2.706  15.638 -1.0030 -4.0902  1.8957
   16DOPE  H14S 2004   7.212   2.798  15.745  0.5549  0.4334 -1.0468
   16DOPE  C215 2005   7.029   2.893  15.672 -0.1036  0.4535  0.1322
   16DOPE  H15R 2006   7.038   2.973  15.749  1.0738  0.6039 -0.1467
   16DOPE  H15S 2007   6.921   2.868  15.661  0.0960 -1.0179  1.1734
   16DOPE  C216 2008   7.068   2.952  15.541  0.0687 -0.1870  0.1254
   16DOPE  H16R 2009   7.037   2.878  15.464 -0.0182 -4.0016  3.4946
   16DOPE  H16S 2010   7.179   2.963  15.546 -0.0058  0.9043 -0.3651
   16DOPE  C217 2011   7.019   3.098  15.516 -0.4323  0.4561  0.0386
   16DOPE  H17R 2012   7.066   3.133  15.421  0.2418  0.1788  0.2650
   16DOPE  H17S 2013   7.047   3.166  15.599  0.7939  0.0581 -0.0255
   16DOPE  C218 2014   6.868   3.102  15.505 -0.1811  0.0427  1.0016
   16DOPE  H18R 2015   6.827   3.049  15.594 -0.0193  1.9897  2.2883
   16DOPE  H18S 2016   6.835   3.043  15.417  2.1103 -2.7599  1.8439
   16DOPE  H18T 2017   6.823   3.203  15.513  1.9484  1.0704  0.7108
   16DOPE   C33 2018   6.175   1.915  16.442  0.2283  0.2517 -0.0772
   16DOPE   H3X 2019   6.234   1.831  16.400  0.1570  0.7094 -1.0980
   16DOPE   H3Y 2020   6.246   2.000  16.441 -1.2648  1.5402 -0.0937
   16DOPE   C34 2021   6.053   1.937  16.348  0.4057 -0.0556  0.3111
   16DOPE   H4X 2022   5.978   1.854  16.349 -0.7157  0.9255  0.3495
   16DOPE   H4Y 2023   5.990   2.018  16.390 -1.0653 -2.2194  2.6826
   16DOPE   C35 2024   6.108   1.969  16.209 -0.0332 -0.8971  0.2998
   16DOPE   H5X 2025   6.160   1.880  16.169 -1.2936 -2.0547  1.1172
   16DOPE   H5Y 2026   6.190   2.044  16.200 -0.8153  0.1034  1.1505
   16DOPE   C36 2027   5.991   2.003  16.112  0.1002  0.0432 -0.6694
   16DOPE   H6X 2028   5.954   2.106  16.133  1.7804  0.3416  1.0848
   16DOPE   H6Y 2029   5.907   1.935  16.139  0.2462 -0.4997 -1.5593
   16DOPE   C37 2030   6.025   1.996  15.965  0.0134  0.0005 -0.2392
   16DOPE   H7X 2031   6.006   2.099  15.929 -0.6263  0.3485  1.0587
   16DOPE   H7Y 2032   6.133   1.970  15.953 -0.0093 -0.2128  0.0151
   16DOPE   C38 2033   5.943   1.889  15.894 -0.0962 -0.1639 -0.1232
   16DOPE   H8X 2034   5.839   1.905  15.929 -0.4124  1.1348 -1.5645
   16DOPE   H8Y 2035   5.984   1.790  15.925 -0.1305 -0.1013  0.1234
   16DOPE   C39 2036   5.935   1.906  15.744 -0.1926 -0.1532  0.3808
   16DOPE   H9X 2037   5.847   1.957  15.701 -0.1786 -0.7277 -0.3686
   16DOPE  C310 2038   6.013   1.843  15.657  0.2157 -0.3276 -0.3461
   16DOPE  H10X 2039   5.998   1.856  15.549 -1.5324 -1.0140 -0.2172
   16DOPE  C311 2040   6.132   1.755  15.684  0.8480 -0.4261 -0.1220
   16DOPE  H11X 2041   6.220   1.804  15.636 -0.4228  2.1683  0.0146
   16DOPE  H11Y 2042   6.149   1.747  15.794 -1.0912  0.5381  0.2747
   16DOPE  C312 2043   6.103   1.607  15.641  0.0021 -0.0146 -0.1643
   16DOPE  H12X 2044   6.102   1.600  15.530  0.0726 -0.1460 -0.1580
   16DOPE  H12Y 2045   6.001   1.587  15.678  0.3648  0.9771  1.4552
   16DOPE  C313 2046   6.207   1.510  15.697  0.0352  0.1465 -0.1827
   16DOPE  H13X 2047   6.203   1.421  15.630  0.7753  0.8827 -1.2334
   16DOPE  H13Y 2048   6.306   1.561  15.688  0.2074  0.2925  1.8724
   16DOPE  C314 2049   6.188   1.476  15.845  0.5517  0.0406  0.3973
   16DOPE  H14X 2050   6.118   1.390  15.854 -0.5979  0.5910 -2.2940
   16DOPE  H14Y 2051   6.139   1.560  15.900  1.2684  1.6433 -1.2859
   16DOPE  C315 2052   6.310   1.437  15.935 -0.5407  0.4582 -0.0436
   16DOPE  H15X 2053   6.366   1.525  15.973 -0.7427 -0.3714  2.3055
   16DOPE  H15Y 2054   6.381   1.380  15.872  0.0112  1.1824 -0.0888
   16DOPE  C316 2055   6.265   1.352  16.056  1.1552 -0.6120  0.0884
   16DOPE  H16X 2056   6.361   1.315  16.099  1.4574  1.2925  1.1868
   16DOPE  H16Y 2057   6.213   1.263  16.016 -0.9198  0.8407 -0.6290
   16DOPE  C317 2058   6.176   1.427  16.151 -0.6077 -0.0814  0.0230
   16DOPE  H17X 2059   6.230   1.521  16.178  0.4192 -0.2154 -1.3951
   16DOPE  H17Y 2060   6.085   1.462  16.098  0.0600 -0.7455 -1.6400
   16DOPE  C318 2061   6.133   1.353  16.276 -0.2652 -0.0654 -0.3411
   16DOPE  H18X 2062   6.085   1.258  16.243 -0.0595 -1.0828  2.0408
   16DOPE  H18Y 2063   6.218   1.314  16.337  0.9382  1.1894 -1.1675
   16DOPE  H18Z 2064   6.064   1.413  16.340  0.0662 -1.0577  1.0094
   17DOPE     N 2065   2.628   6.986  17.208  0.1132  0.2146  0.4722
   17DOPE   HN1 2066   2.675   7.064  17.258  1.7372 -1.3879  1.5829
   17DOPE   HN2 2067   2.619   7.009  17.107  0.6921  1.1031  0.6170
   17DOPE   HN3 2068   2.533   6.960  17.243  0.6793 -2.7293  0.0216
   17DOPE   C12 2069   2.710   6.866  17.225 -0.4230  1.1348 -0.2579
   17DOPE  H12A 2070   2.763   6.882  17.322  1.1249 -0.7820 -0.7076
   17DOPE  H12B 2071   2.792   6.858  17.151  0.0666 -1.5352  0.4351
   17DOPE   C11 2072   2.630   6.730  17.217 -0.6695  0.6456 -0.0168
   17DOPE  H11A 2073   2.700   6.648  17.243 -2.7373 -0.5722  2.0487
   17DOPE  H11B 2074   2.608   6.724  17.108  3.0075 -0.0964 -0.8687
   17DOPE     P 2075   2.528   6.638  17.438 -0.3404  0.1829 -0.0620
   17DOPE   O13 2076   2.415   6.670  17.528 -0.3199  0.5169  0.0041
   17DOPE   O14 2077   2.663   6.646  17.502  0.7981 -0.3828  0.0137
   17DOPE   O11 2078   2.507   6.498  17.371 -0.2523 -0.1506  0.0672
   17DOPE   O12 2079   2.520   6.734  17.307 -0.1931  0.0885  0.3980
   17DOPE    C1 2080   2.386   6.489  17.290  0.2035 -0.2403 -0.4139
   17DOPE    HA 2081   2.342   6.580  17.245 -2.7410 -0.4432  1.7966
   17DOPE    HB 2082   2.310   6.455  17.363 -0.1333 -2.9932 -1.8807
   17DOPE    C2 2083   2.401   6.371  17.185 -0.5059  0.3772 -0.2073
   17DOPE    HS 2084   2.434   6.291  17.255 -0.5848  0.6595  0.1529
   17DOPE   O21 2085   2.501   6.401  17.091  0.7395  0.1030  0.3414
   17DOPE   C21 2086   2.556   6.305  17.032 -0.5424 -0.4058 -0.4996
   17DOPE   O22 2087   2.541   6.183  17.060 -0.0716 -0.7165  0.2448
   17DOPE   C22 2088   2.646   6.354  16.924 -0.1105  0.4928 -0.0411
   17DOPE   H2R 2089   2.716   6.275  16.889 -0.2727 -0.1169  0.9445
   17DOPE   H2S 2090   2.703   6.440  16.964 -0.4853 -0.0882  1.8697
   17DOPE    C3 2091   2.271   6.328  17.109  0.4089  0.0756  0.7568
   17DOPE    HX 2092   2.186   6.326  17.179  0.5855 -0.7830  0.9451
   17DOPE    HY 2093   2.284   6.224  17.073 -0.7046  0.4022 -0.6810
   17DOPE   O31 2094   2.257   6.418  16.994 -0.3347  0.5452  0.2620
   17DOPE   C31 2095   2.173   6.515  17.008 -0.0485  0.1760 -0.2130
   17DOPE   O32 2096   2.100   6.532  17.102 -0.1883  0.3108 -0.3524
   17DOPE   C32 2097   2.183   6.615  16.887 -0.0127  0.4556  0.5138
   17DOPE   H2X 2098   2.237   6.701  16.931 -1.1741  1.0750  0.7790
   17DOPE   H2Y 2099   2.229   6.570  16.797 -0.5444  2.4238 -0.8013
   17DOPE   C23 2100   2.574   6.418  16.803 -0.5094 -0.4688 -0.2749
   17DOPE   H3R 2101   2.660   6.455  16.743  0.3573 -1.3207  0.4175
   17DOPE   H3S 2102   2.504   6.498  16.837 -2.4278 -1.6449 -1.2801
   17DOPE   C24 2103   2.490   6.310  16.727  0.1996 -0.3177 -0.5073
   17DOPE   H4R 2104   2.396   6.294  16.784 -0.2762 -0.1317 -1.2248
   17DOPE   H4S 2105   2.544   6.213  16.723 -0.3584 -0.7252  1.1551
   17DOPE   C25 2106   2.473   6.354  16.580  0.7419 -0.3086 -0.3774
   17DOPE   H5R 2107   2.515   6.456  16.565 -0.4520  0.2255 -0.2095
   17DOPE   H5S 2108   2.365   6.363  16.556  1.1872  0.0202 -2.5066
   17DOPE   C26 2109   2.543   6.262  16.483  0.4169  0.4751  0.2248
   17DOPE   H6R 2110   2.521   6.283  16.376  1.4110 -1.2669 -0.3578
   17DOPE   H6S 2111   2.508   6.159  16.508  2.0387  0.5111  3.0451
   17DOPE   C27 2112   2.694   6.259  16.483 -0.1698 -0.1529  0.3807
   17DOPE   H7R 2113   2.726   6.246  16.589 -0.2400  1.8105  0.6811
   17DOPE   H7S 2114   2.738   6.359  16.462  2.2622 -0.7218  2.3121
   17DOPE   C28 2115   2.763   6.145  16.408  0.1690 -0.7800  0.2962
   17DOPE   H8R 2116   2.708   6.114  16.317  1.6434 -0.3083 -0.8122
   17DOPE   H8S 2117   2.739   6.065  16.480 -2.6252  0.3020  0.6828
   17DOPE   C29 2118   2.915   6.163  16.384 -0.1846 -0.0637 -0.2833
   17DOPE   H9R 2119   2.987   6.149  16.466  1.1924 -1.0803 -1.5993
   17DOPE  C210 2120   2.959   6.192  16.268 -0.1816 -0.1578 -0.4320
   17DOPE  H10R 2121   3.067   6.208  16.256 -0.0969 -0.5228 -0.1739
   17DOPE  C211 2122   2.882   6.208  16.135 -0.3037 -0.1384 -0.4970
   17DOPE  H11R 2123   2.887   6.311  16.093 -1.1463  0.1871  0.1650
   17DOPE  H11S 2124   2.777   6.172  16.146  0.1602 -1.4269 -0.1564
   17DOPE  C212 2125   2.933   6.112  16.036 -0.0270  0.3534  0.5467
   17DOPE  H12R 2126   2.912   6.007  16.067  2.5739 -1.3098 -2.6489
   17DOPE  H12S 2127   3.043   6.116  16.018 -0.0377  2.5408  0.7647
   17DOPE  C213 2128   2.864   6.135  15.900 -0.4099 -0.0859 -1.0896
   17DOPE  H13R 2129   2.920   6.218  15.854 -2.0207  2.4333  1.1793
   17DOPE  H13S 2130   2.759   6.171  15.894  0.8606  4.0072 -1.3903
   17DOPE  C214 2131   2.865   6.001  15.824  0.0068 -0.2935 -0.6558
   17DOPE  H14R 2132   2.783   5.934  15.858  0.9288 -0.6254  0.9955
   17DOPE  H14S 2133   2.965   5.959  15.849  0.5624 -0.0878 -2.3639
   17DOPE  C215 2134   2.860   6.028  15.670  0.2961  0.2419 -0.3172
   17DOPE  H15R 2135   2.951   6.089  15.647  1.3977 -0.6223  1.4923
   17DOPE  H15S 2136   2.771   6.091  15.650  0.2348 -0.4904 -2.6356
   17DOPE  C216 2137   2.863   5.907  15.583  0.9186 -0.5124  0.3572
   17DOPE  H16R 2138   2.772   5.845  15.601 -0.2474  0.7166 -1.0434
   17DOPE  H16S 2139   2.946   5.844  15.623  0.7288 -1.5718 -0.8487
   17DOPE  C217 2140   2.876   5.935  15.429  0.2805  0.3299  0.3396
   17DOPE  H17R 2141   2.849   5.840  15.378 -0.5014  1.1487 -0.8201
   17DOPE  H17S 2142   2.983   5.957  15.408 -0.2380  0.8157 -2.0556
   17DOPE  C218 2143   2.800   6.049  15.369  0.7689 -0.3903 -0.2230
   17DOPE  H18R 2144   2.818   6.059  15.259  1.7433  0.0893 -0.0295
   17DOPE  H18S 2145   2.827   6.147  15.413  0.9483  0.4088 -1.9917
   17DOPE  H18T 2146   2.697   6.023  15.399  1.7681 -2.3645  1.8053
   17DOPE   C33 2147   2.041   6.664  16.853  0.1183  0.0630  0.4869
   17DOPE   H3X 2148   1.997   6.735  16.927 -0.6936 -1.6334  1.6970
   17DOPE   H3Y 2149   1.966   6.582  16.847 -0.3807  0.5770 -0.7265
   17DOPE   C34 2150   2.038   6.741  16.718 -0.0847  0.3433  0.0427
   17DOPE   H4X 2151   2.130   6.802  16.716 -0.7590  1.3723 -1.3886
   17DOPE   H4Y 2152   2.043   6.660  16.641 -0.5043 -0.3822  0.7611
   17DOPE   C35 2153   1.915   6.832  16.703  0.1596 -0.2372 -0.2461
   17DOPE   H5X 2154   1.903   6.884  16.801 -0.7153 -2.6133  0.9947
   17DOPE   H5Y 2155   1.826   6.775  16.668 -0.9813  1.2275  0.1329
   17DOPE   C36 2156   1.937   6.927  16.586 -0.2168  0.9404 -0.2739
   17DOPE   H6X 2157   2.016   6.997  16.621  1.4798 -1.6528  1.4970
   17DOPE   H6Y 2158   1.843   6.983  16.568 -0.3063  1.1775  0.8327
   17DOPE   C37 2159   1.971   6.851  16.458 -0.7945 -0.7519  0.1829
   17DOPE   H7X 2160   2.055   6.781  16.474  1.0498  1.3292  0.0412
   17DOPE   H7Y 2161   1.886   6.795  16.413 -0.8036 -1.0515  0.5710
   17DOPE   C38 2162   2.017   6.951  16.350  0.2470 -0.0483  0.0068
   17DOPE   H8X 2163   2.039   6.892  16.258  0.3523  2.2822 -1.5600
   17DOPE   H8Y 2164   2.113   7.001  16.372  1.4603 -1.7936 -1.0982
   17DOPE   C39 2165   1.906   7.049  16.310  0.1176  0.6447 -0.7520
   17DOPE   H9X 2166   1.872   7.105  16.399  0.4678 -0.5121  0.1391
   17DOPE  C310 2167   1.841   7.059  16.194  0.6893  0.1675  0.0883
   17DOPE  H10X 2168   1.756   7.127  16.176 -0.0484 -1.1468 -1.7091
   17DOPE  C311 2169   1.886   6.991  16.066  0.5674  0.0956 -0.4133
   17DOPE  H11X 2170   1.837   7.040  15.980  0.1462 -0.3495 -0.4349
   17DOPE  H11Y 2171   1.996   6.997  16.056  0.3903  1.7304 -1.6798
   17DOPE  C312 2172   1.853   6.839  16.063  0.3850  0.0661 -0.7387
   17DOPE  H12X 2173   1.743   6.829  16.049  0.3918 -1.3478  0.0673
   17DOPE  H12Y 2174   1.870   6.781  16.156 -0.0772 -0.2847 -0.8681
   17DOPE  C313 2175   1.928   6.767  15.950 -0.6548  0.0238  0.8898
   17DOPE  H13X 2176   1.887   6.666  15.930 -1.9770  0.6859  0.0561
   17DOPE  H13Y 2177   1.911   6.833  15.862  0.0261  0.6744  1.2360
   17DOPE  C314 2178   2.080   6.759  15.957 -0.5847  1.3578 -0.4475
   17DOPE  H14X 2179   2.106   6.727  16.060 -1.3016  1.2658 -0.2891
   17DOPE  H14Y 2180   2.119   6.860  15.934 -0.4658  1.7868  1.5258
   17DOPE  C315 2181   2.137   6.657  15.853 -0.4319  0.7857 -0.2040
   17DOPE  H15X 2182   2.107   6.553  15.879  1.2989 -0.2609 -2.0359
   17DOPE  H15Y 2183   2.246   6.665  15.874  0.0670  1.0024 -2.5456
   17DOPE  C316 2184   2.113   6.695  15.704 -0.1940  0.0532 -0.5030
   17DOPE  H16X 2185   2.142   6.800  15.683  2.5811 -0.0790  2.0382
   17DOPE  H16Y 2186   2.002   6.694  15.698 -0.1715 -1.4759 -1.0289
   17DOPE  C317 2187   2.177   6.601  15.596 -0.0532 -0.1381  0.2459
   17DOPE  H17X 2188   2.143   6.645  15.499  1.4525 -2.1241 -1.2789
   17DOPE  H17Y 2189   2.287   6.613  15.590 -0.2056  0.7114 -2.1984
   17DOPE  C318 2190   2.133   6.460  15.613 -0.3508  0.0223  0.1286
   17DOPE  H18X 2191   2.170   6.428  15.712  1.4640 -1.1697 -0.8791
   17DOPE  H18Y 2192   2.022   6.467  15.618 -0.2067  3.7213  1.5105
   17DOPE  H18Z 2193   2.167   6.382  15.541 -2.9789  0.0227 -1.2679
   18DOPE     N 2194   5.593   2.203  16.995 -0.2342 -0.2244 -0.0222
   18DOPE   HN1 2195   5.569   2.105  17.021 -0.9901 -0.3722 -1.1940
   18DOPE   HN2 2196   5.510   2.259  16.966 -0.6822  0.1710  1.8846
   18DOPE   HN3 2197   5.657   2.203  16.912 -0.7857 -1.1403 -0.4606
   18DOPE   C12 2198   5.647   2.274  17.112 -0.4895 -0.1339  0.5347
   18DOPE  H12A 2199   5.747   2.228  17.127  0.3919  0.7375 -2.1931
   18DOPE  H12B 2200   5.583   2.256  17.201 -1.5954 -0.2529 -0.2690
   18DOPE   C11 2201   5.668   2.422  17.081 -0.8454  0.3705 -0.2062
   18DOPE  H11A 2202   5.743   2.430  16.998  2.5818  0.3355  2.6440
   18DOPE  H11B 2203   5.718   2.464  17.170 -0.7431 -2.2243  1.0532
   18DOPE     P 2204   5.529   2.621  16.990 -0.5131  0.3340 -0.2375
   18DOPE   O13 2205   5.622   2.707  17.074 -0.4492 -0.2756  0.0551
   18DOPE   O14 2206   5.389   2.656  16.993 -0.1340 -0.2143 -0.3536
   18DOPE   O11 2207   5.586   2.608  16.847 -0.6593  0.2224  0.0816
   18DOPE   O12 2208   5.546   2.474  17.049  0.5126 -0.2474  0.6869
   18DOPE    C1 2209   5.575   2.502  16.769 -0.2176 -0.1920  0.4475
   18DOPE    HA 2210   5.482   2.442  16.775 -0.9392  0.9689  1.5089
   18DOPE    HB 2211   5.658   2.432  16.789  0.4074  0.6238  0.7556
   18DOPE    C2 2212   5.593   2.535  16.622 -0.1437  0.2437  0.5219
   18DOPE    HS 2213   5.566   2.442  16.568  0.5902 -0.7799  1.8735
   18DOPE   O21 2214   5.729   2.570  16.593  0.4742  0.6049 -0.4772
   18DOPE   C21 2215   5.818   2.469  16.585 -0.7580 -0.1435  0.2703
   18DOPE   O22 2216   5.799   2.352  16.605  0.0365 -0.3856  0.1173
   18DOPE   C22 2217   5.949   2.525  16.539 -0.8919 -0.5622 -0.8968
   18DOPE   H2R 2218   5.990   2.570  16.632  1.1661 -0.4655 -1.7848
   18DOPE   H2S 2219   5.940   2.610  16.468 -0.1600  1.7999  1.6460
   18DOPE    C3 2220   5.489   2.643  16.571 -0.5082  0.0935 -0.0721
   18DOPE    HX 2221   5.518   2.663  16.465  2.8517 -1.5931  0.3837
   18DOPE    HY 2222   5.525   2.739  16.614  2.6236 -0.4004 -1.3193
   18DOPE   O31 2223   5.352   2.619  16.605 -0.5827  0.2766  0.0234
   18DOPE   C31 2224   5.290   2.541  16.516  0.4033 -0.4813 -0.2092
   18DOPE   O32 2225   5.342   2.503  16.412 -0.0850  0.4811 -0.1480
   18DOPE   C32 2226   5.156   2.504  16.570  0.2686  0.2314  0.7002
   18DOPE   H2X 2227   5.179   2.424  16.643  1.8287  0.4008  0.4233
   18DOPE   H2Y 2228   5.117   2.593  16.623 -0.1097  0.0783  0.6824
   18DOPE   C23 2229   6.035   2.418  16.476 -0.1281 -0.4839  0.0565
   18DOPE   H3R 2230   6.004   2.316  16.506 -1.9515  0.6200  2.3121
   18DOPE   H3S 2231   6.136   2.446  16.514 -0.8601  0.6135  1.2827
   18DOPE   C24 2232   6.048   2.434  16.324  0.0373 -0.2834  0.5084
   18DOPE   H4R 2233   6.084   2.536  16.300  0.1989 -0.4876 -0.1580
   18DOPE   H4S 2234   5.950   2.434  16.270  0.4226  1.5943 -0.2412
   18DOPE   C25 2235   6.143   2.336  16.262 -0.2239  0.3011  0.8209
   18DOPE   H5R 2236   6.113   2.328  16.155  0.6537  2.8118  0.2938
   18DOPE   H5S 2237   6.140   2.232  16.300 -2.4109 -0.8858 -2.2064
   18DOPE   C26 2238   6.286   2.381  16.255  0.6754 -0.1030  0.0895
   18DOPE   H6R 2239   6.340   2.369  16.352  2.5899 -0.1577 -0.9524
   18DOPE   H6S 2240   6.291   2.490  16.236 -2.3570  0.0574 -0.3545
   18DOPE   C27 2241   6.369   2.306  16.155 -0.1156  0.3026 -0.1436
   18DOPE   H7R 2242   6.328   2.203  16.144 -0.8471  0.7896 -2.9618
   18DOPE   H7S 2243   6.465   2.284  16.205  0.1277 -0.9013 -1.0927
   18DOPE   C28 2244   6.388   2.371  16.018  0.1538  0.2697 -0.0734
   18DOPE   H8R 2245   6.289   2.414  15.991  0.8934  0.7110 -2.2587
   18DOPE   H8S 2246   6.410   2.295  15.940  3.6448  1.7993 -0.7321
   18DOPE   C29 2247   6.504   2.466  16.012  0.2986 -0.1323 -0.2686
   18DOPE   H9R 2248   6.510   2.545  16.088  2.0007 -3.3352  3.2807
   18DOPE  C210 2249   6.611   2.452  15.928  0.3126 -0.2920 -0.3197
   18DOPE  H10R 2250   6.701   2.517  15.929  1.3506 -1.6371 -1.5755
   18DOPE  C211 2251   6.645   2.336  15.832  0.4118  0.1363 -0.9188
   18DOPE  H11R 2252   6.610   2.238  15.873 -0.7420  1.5703  1.7904
   18DOPE  H11S 2253   6.756   2.327  15.825  0.3107 -1.6050 -0.8770
   18DOPE  C212 2254   6.575   2.343  15.697  0.5085 -0.2529 -0.1855
   18DOPE  H12R 2255   6.466   2.342  15.715  0.4390  0.0986 -0.5683
   18DOPE  H12S 2256   6.602   2.259  15.629 -1.3332 -1.5165  0.5944
   18DOPE  C213 2257   6.603   2.478  15.622 -0.1582 -0.9907  1.0597
   18DOPE  H13R 2258   6.583   2.564  15.688 -0.1356 -0.8412  0.8727
   18DOPE  H13S 2259   6.545   2.476  15.527 -1.0369  1.6943  1.4694
   18DOPE  C214 2260   6.742   2.488  15.564 -0.2436  0.0302 -0.3394
   18DOPE  H14R 2261   6.758   2.408  15.488 -1.4968  1.9146 -2.7404
   18DOPE  H14S 2262   6.812   2.473  15.648 -2.3351 -0.5842  1.3890
   18DOPE  C215 2263   6.789   2.620  15.490 -0.0219 -0.4317 -0.4468
   18DOPE  H15R 2264   6.894   2.612  15.453  0.2378 -0.6282  0.3185
   18DOPE  H15S 2265   6.776   2.707  15.557 -1.7943 -1.1004  0.1238
   18DOPE  C216 2266   6.701   2.643  15.363 -0.5471  0.1355  0.0664
   18DOPE  H16R 2267   6.595   2.631  15.392 -0.5066  1.2252  0.7303
   18DOPE  H16S 2268   6.723   2.562  15.291  1.1855  1.1715 -0.6452
   18DOPE  C217 2269   6.730   2.770  15.278  0.2473 -0.6123 -0.7743
   18DOPE  H17R 2270   6.838   2.792  15.271  0.2369  0.2291  1.1258
   18DOPE  H17S 2271   6.685   2.855  15.334  0.8792 -0.6302 -0.2333
   18DOPE  C218 2272   6.674   2.764  15.138 -0.0312  0.0722 -0.3960
   18DOPE  H18R 2273   6.716   2.670  15.099  0.8022  0.8695 -1.4741
   18DOPE  H18S 2274   6.696   2.846  15.066 -1.3313  0.0931 -0.8077
   18DOPE  H18T 2275   6.563   2.752  15.142  0.1357 -1.3822  0.7925
   18DOPE   C33 2276   5.057   2.454  16.462 -0.7961  0.4412  0.4633
   18DOPE   H3X 2277   5.113   2.369  16.416  0.0912  0.8234  0.8190
   18DOPE   H3Y 2278   5.028   2.524  16.381 -0.3068  0.1582  0.0334
   18DOPE   C34 2279   4.930   2.412  16.530  1.0838 -0.1196 -0.0571
   18DOPE   H4X 2280   4.875   2.349  16.457 -0.7375 -0.2939  1.4106
   18DOPE   H4Y 2281   4.944   2.334  16.607 -0.8502  0.6780  1.1638
   18DOPE   C35 2282   4.850   2.523  16.586 -0.1484  0.7869 -0.6413
   18DOPE   H5X 2283   4.914   2.580  16.657 -1.6155  0.2012  1.2234
   18DOPE   H5Y 2284   4.767   2.489  16.651  1.0605  0.8805  1.0231
   18DOPE   C36 2285   4.799   2.616  16.475  0.0943 -0.6679  0.0362
   18DOPE   H6X 2286   4.870   2.636  16.392  0.4725 -1.9001  0.0404
   18DOPE   H6Y 2287   4.768   2.711  16.522  0.2163 -0.2925 -0.6288
   18DOPE   C37 2288   4.679   2.561  16.406 -0.0556  0.1027  0.0923
   18DOPE   H7X 2289   4.716   2.469  16.356  2.6048  0.3263  1.4687
   18DOPE   H7Y 2290   4.621   2.533  16.497  1.2973 -0.5694  0.7773
   18DOPE   C38 2291   4.606   2.655  16.311  0.1158 -0.1492 -0.2454
   18DOPE   H8X 2292   4.671   2.688  16.227  3.0808 -0.2190  1.8606
   18DOPE   H8Y 2293   4.592   2.749  16.368 -3.0200  0.5858 -1.9929
   18DOPE   C39 2294   4.468   2.605  16.276 -0.7812 -0.4902  0.4945
   18DOPE   H9X 2295   4.402   2.583  16.361 -2.5580  2.9564  0.1966
   18DOPE  C310 2296   4.411   2.590  16.151  0.2851  0.7131 -0.6768
   18DOPE  H10X 2297   4.303   2.570  16.152  0.2697  0.5140  1.9829
   18DOPE  C311 2298   4.481   2.619  16.019 -0.0144  0.1410 -0.5924
   18DOPE  H11X 2299   4.425   2.684  15.949  1.2754 -0.5431 -2.3181
   18DOPE  H11Y 2300   4.569   2.683  16.042  0.7073 -0.7267 -0.9168
   18DOPE  C312 2301   4.537   2.496  15.949 -0.0991 -0.3798  0.2383
   18DOPE  H12X 2302   4.458   2.426  15.914  0.2498 -0.2856 -0.7601
   18DOPE  H12Y 2303   4.608   2.446  16.018 -0.6155 -2.0173 -0.3808
   18DOPE  C313 2304   4.621   2.543  15.825 -0.0048  0.7621  0.2098
   18DOPE  H13X 2305   4.545   2.581  15.754  0.5967  1.7595  0.0776
   18DOPE  H13Y 2306   4.694   2.621  15.855 -0.9411  1.6390  0.2540
   18DOPE  C314 2307   4.697   2.423  15.758  0.1208 -0.2019  0.1517
   18DOPE  H14X 2308   4.632   2.336  15.779  1.6519 -1.3370  0.3237
   18DOPE  H14Y 2309   4.800   2.411  15.800  0.9105 -2.8021 -2.2060
   18DOPE  C315 2310   4.715   2.428  15.608  0.1838  0.1122  0.3491
   18DOPE  H15X 2311   4.783   2.514  15.589  0.4921 -0.4507 -1.2101
   18DOPE  H15Y 2312   4.623   2.433  15.546  1.3111 -2.1018 -1.6455
   18DOPE  C316 2313   4.799   2.305  15.560 -0.1053  0.7615 -0.5030
   18DOPE  H16X 2314   4.752   2.206  15.575  1.8374 -0.4070 -1.6466
   18DOPE  H16Y 2315   4.898   2.306  15.609  1.5662  0.5407 -3.5809
   18DOPE  C317 2316   4.835   2.319  15.413  0.3641 -0.2525  0.2645
   18DOPE  H17X 2317   4.747   2.336  15.348  1.3613  1.0983 -0.7864
   18DOPE  H17Y 2318   4.883   2.417  15.398  1.0245 -0.9283 -2.6765
   18DOPE  C318 2319   4.927   2.215  15.362  0.3512 -0.2544 -0.3607
   18DOPE  H18X 2320   5.011   2.208  15.435  0.4407 -0.8138 -0.5135
   18DOPE  H18Y 2321   4.869   2.121  15.355 -0.0720 -0.1145  1.0309
   18DOPE  H18Z 2322   4.963   2.248  15.262 -2.3252 -0.4730 -1.4790
   19DOPE     N 2323   6.013   3.355  17.105  0.1819 -0.4060  0.1166
   19DOPE   HN1 2324   5.960   3.419  17.042  2.6069  0.6742 -0.9723
   19DOPE   HN2 2325   5.982   3.365  17.204 -0.3621  1.3456 -0.1889
   19DOPE   HN3 2326   6.115   3.375  17.098  0.0916 -0.4325 -1.4718
   19DOPE   C12 2327   5.998   3.216  17.047  1.2444 -0.8030 -0.6284
   19DOPE  H12A 2328   6.017   3.223  16.938 -0.2962  1.8095 -0.7914
   19DOPE  H12B 2329   5.892   3.185  17.060  1.5305 -0.7764  3.1148
   19DOPE   C11 2330   6.081   3.111  17.130 -0.2671 -0.2686  0.5811
   19DOPE  H11A 2331   6.043   3.012  17.098  0.3953 -0.6583  0.9726
   19DOPE  H11B 2332   6.046   3.119  17.235 -2.1711  0.4512 -0.0679
   19DOPE     P 2333   6.296   3.073  16.978 -0.2759 -0.4209 -0.1379
   19DOPE   O13 2334   6.435   3.040  17.009  0.3105  0.6300 -0.2300
   19DOPE   O14 2335   6.272   3.177  16.870 -0.2835  0.2185 -0.3917
   19DOPE   O11 2336   6.215   2.941  16.942 -0.3972 -0.1377  0.2678
   19DOPE   O12 2337   6.227   3.129  17.111 -0.2231 -0.3112  0.2301
   19DOPE    C1 2338   6.120   2.931  16.831 -0.3410 -0.5109  0.0498
   19DOPE    HA 2339   6.054   3.020  16.821 -0.4461 -0.3904  1.5984
   19DOPE    HB 2340   6.051   2.844  16.844  1.2562 -2.0064 -0.9973
   19DOPE    C2 2341   6.189   2.901  16.693  0.0350  0.3188 -0.5372
   19DOPE    HS 2342   6.245   2.994  16.672  2.7243 -0.9194  0.6372
   19DOPE   O21 2343   6.086   2.881  16.594  0.0930 -0.2714  0.3593
   19DOPE   C21 2344   6.017   2.988  16.553 -0.9367  0.1832  0.8334
   19DOPE   O22 2345   6.055   3.104  16.572  0.1893  0.4453 -0.2610
   19DOPE   C22 2346   5.896   2.930  16.469  0.4735  0.0173  0.2983
   19DOPE   H2R 2347   5.812   3.001  16.459  0.5695  0.0266 -0.5487
   19DOPE   H2S 2348   5.860   2.838  16.520 -0.7976  0.1839 -0.2601
   19DOPE    C3 2349   6.283   2.775  16.700 -0.1306 -0.3463  0.0990
   19DOPE    HX 2350   6.223   2.696  16.750  0.6208 -2.6197 -2.3601
   19DOPE    HY 2351   6.371   2.786  16.767  0.1016  0.6196 -0.3436
   19DOPE   O31 2352   6.322   2.730  16.568  0.5882  0.0456  0.6700
   19DOPE   C31 2353   6.442   2.691  16.540  0.1962  1.1168 -0.2704
   19DOPE   O32 2354   6.534   2.674  16.621 -0.0136 -0.1838  0.0850
   19DOPE   C32 2355   6.456   2.677  16.387  0.8714  0.4543  0.3653
   19DOPE   H2X 2356   6.514   2.585  16.364  1.3965  0.5497  1.2515
   19DOPE   H2Y 2357   6.350   2.668  16.355  1.2820 -0.4013 -0.7978
   19DOPE   C23 2358   5.938   2.879  16.331 -0.2206 -0.6381  0.2679
   19DOPE   H3R 2359   6.007   2.796  16.358  1.1320  0.4153  0.1723
   19DOPE   H3S 2360   6.006   2.947  16.275  1.9006 -3.5179 -0.8874
   19DOPE   C24 2361   5.821   2.827  16.240  0.4142 -1.1061  0.1802
   19DOPE   H4R 2362   5.778   2.913  16.186 -0.7214 -1.9418 -0.2871
   19DOPE   H4S 2363   5.746   2.786  16.311 -0.2101 -0.8191 -0.3076
   19DOPE   C25 2364   5.872   2.726  16.133 -0.1829 -0.0502  0.2433
   19DOPE   H5R 2365   5.790   2.697  16.063  1.1915  2.4087 -2.6249
   19DOPE   H5S 2366   5.911   2.638  16.188 -0.2480  0.8200  1.7216
   19DOPE   C26 2367   5.973   2.786  16.036 -0.8106  0.0996 -0.6304
   19DOPE   H6R 2368   6.074   2.804  16.079 -1.2165 -0.0136  0.3950
   19DOPE   H6S 2369   5.947   2.886  15.996  1.6447  0.2783 -1.9580
   19DOPE   C27 2370   5.997   2.693  15.910 -0.4825 -0.3529  0.3328
   19DOPE   H7R 2371   5.893   2.668  15.878 -0.5758  0.1073  0.2819
   19DOPE   H7S 2372   6.051   2.600  15.938  0.8204 -0.6401 -2.7325
   19DOPE   C28 2373   6.048   2.769  15.783 -0.5924 -0.2681 -0.4042
   19DOPE   H8R 2374   6.140   2.819  15.820 -1.0565  0.1946  0.1302
   19DOPE   H8S 2375   5.984   2.856  15.756  1.1657  3.0139  4.5088
   19DOPE   C29 2376   6.089   2.677  15.678 -0.6929  0.4444  0.4318
   19DOPE   H9R 2377   6.173   2.614  15.709 -1.8219 -0.8217  1.0567
   19DOPE  C210 2378   6.028   2.658  15.556 -0.5132 -0.5219 -0.4064
   19DOPE  H10R 2379   6.075   2.582  15.492  0.2092  0.3239 -0.8975
   19DOPE  C211 2380   5.896   2.704  15.507 -0.2733  0.4904 -0.1547
   19DOPE  H11R 2381   5.901   2.799  15.451  0.9876  0.7758  0.4077
   19DOPE  H11S 2382   5.818   2.720  15.585  0.6365  1.3363  0.6107
   19DOPE  C212 2383   5.846   2.596  15.404 -0.1847 -0.1384  0.4930
   19DOPE  H12R 2384   5.836   2.492  15.442 -2.0806 -0.4265 -0.6526
   19DOPE  H12S 2385   5.903   2.588  15.309  0.4712  0.1790  0.8530
   19DOPE  C213 2386   5.697   2.626  15.369 -0.5216  0.3487 -0.3088
   19DOPE  H13R 2387   5.676   2.735  15.372 -1.1473  0.2601 -0.9968
   19DOPE  H13S 2388   5.632   2.572  15.441 -0.3755  0.4432 -0.1060
   19DOPE  C214 2389   5.658   2.600  15.220  0.3640 -0.0484 -0.0042
   19DOPE  H14R 2390   5.635   2.494  15.195 -1.7160  0.1914  0.6691
   19DOPE  H14S 2391   5.738   2.638  15.154 -1.2752  4.0104  0.0700
   19DOPE  C215 2392   5.535   2.683  15.192  0.6568  0.4851  0.2469
   19DOPE  H15R 2393   5.550   2.791  15.208 -3.6359  0.8965  3.1456
   19DOPE  H15S 2394   5.464   2.657  15.273  1.6363  2.6238  1.8668
   19DOPE  C216 2395   5.481   2.655  15.054  0.3220  0.1883 -0.0574
   19DOPE  H16R 2396   5.398   2.724  15.031  0.7124  0.0960 -1.8796
   19DOPE  H16S 2397   5.438   2.552  15.051  2.0716 -0.5456 -1.3510
   19DOPE  C217 2398   5.573   2.679  14.934 -0.1413 -0.2984  0.0416
   19DOPE  H17R 2399   5.513   2.672  14.841  3.0493 -1.1351 -2.1101
   19DOPE  H17S 2400   5.656   2.605  14.939  0.3266  0.2257  0.0766
   19DOPE  C218 2401   5.647   2.818  14.946 -0.7053  0.5414 -0.2788
   19DOPE  H18R 2402   5.577   2.904  14.932 -0.7419  0.2961 -1.7211
   19DOPE  H18S 2403   5.731   2.831  14.875 -1.0781  0.0441 -0.8195
   19DOPE  H18T 2404   5.688   2.830  15.049 -1.0417  0.2260 -0.1041
   19DOPE   C33 2405   6.531   2.800  16.333  0.9942 -0.6660 -0.4196
   19DOPE   H3X 2406   6.570   2.780  16.231 -2.1889  0.2498 -1.9194
   19DOPE   H3Y 2407   6.613   2.829  16.403  0.9727 -0.8626 -0.3141
   19DOPE   C34 2408   6.444   2.930  16.324 -0.0673 -0.4580 -0.3815
   19DOPE   H4X 2409   6.419   2.953  16.429  1.2309  3.0585 -0.6943
   19DOPE   H4Y 2410   6.506   3.018  16.295  1.1216 -0.8177  0.9585
   19DOPE   C35 2411   6.310   2.909  16.244 -0.3854 -0.5289  0.0071
   19DOPE   H5X 2412   6.240   2.871  16.321 -1.2816 -0.2462 -0.6431
   19DOPE   H5Y 2413   6.312   2.821  16.177  2.1229 -0.8551  0.4186
   19DOPE   C36 2414   6.265   3.037  16.166  0.0780 -0.0844  0.6544
   19DOPE   H6X 2415   6.186   3.011  16.093 -2.6493  1.4271  2.8682
   19DOPE   H6Y 2416   6.348   3.087  16.113 -0.5984  0.0355 -0.3216
   19DOPE   C37 2417   6.210   3.135  16.267  0.7558 -0.2477  0.3868
   19DOPE   H7X 2418   6.140   3.074  16.329 -0.9851 -0.6085 -1.8045
   19DOPE   H7Y 2419   6.286   3.171  16.340  0.7988  0.2042  0.1250
   19DOPE   C38 2420   6.139   3.248  16.196 -0.6299  0.5203 -0.6230
   19DOPE   H8X 2421   6.206   3.297  16.121 -1.5062  1.5934 -0.7260
   19DOPE   H8Y 2422   6.112   3.328  16.267  0.0546  0.5579 -0.4006
   19DOPE   C39 2423   6.005   3.204  16.136  0.2361  0.1934 -0.3124
   19DOPE   H9X 2424   5.923   3.227  16.206 -2.1855  1.2947 -3.2701
   19DOPE  C310 2425   5.969   3.169  16.011 -0.0481 -0.2696 -0.0660
   19DOPE  H10X 2426   5.866   3.142  15.983 -0.4508  2.3658 -1.4483
   19DOPE  C311 2427   6.056   3.169  15.892  0.0355  0.1275  0.3439
   19DOPE  H11X 2428   6.127   3.254  15.898 -0.7140  0.7987 -0.0885
   19DOPE  H11Y 2429   6.109   3.071  15.887  1.5168  0.9128  0.1192
   19DOPE  C312 2430   5.968   3.160  15.764 -0.2099  0.0164  0.3745
   19DOPE  H12X 2431   5.897   3.245  15.760  2.1403  2.0565 -0.9221
   19DOPE  H12Y 2432   5.919   3.060  15.757 -0.3881  0.1550 -0.4252
   19DOPE  C313 2433   6.048   3.181  15.635 -0.5854 -0.0633  0.3095
   19DOPE  H13X 2434   6.126   3.260  15.646  0.0884 -0.3874 -1.7897
   19DOPE  H13Y 2435   6.099   3.082  15.640  0.3099  0.3771  0.2243
   19DOPE  C314 2436   5.948   3.187  15.523  0.3057  0.1589  0.1557
   19DOPE  H14X 2437   5.885   3.278  15.526  0.8747  0.5337  1.1545
   19DOPE  H14Y 2438   5.879   3.100  15.517  0.6463 -0.0541 -1.0534
   19DOPE  C315 2439   6.017   3.178  15.378  0.0439  0.1608 -0.5080
   19DOPE  H15X 2440   6.070   3.082  15.364  2.2395  1.0718  0.9276
   19DOPE  H15Y 2441   6.095   3.258  15.374 -1.7186  1.9845 -0.2555
   19DOPE  C316 2442   5.918   3.207  15.269  1.0088  0.2027  0.1737
   19DOPE  H16X 2443   5.977   3.215  15.175  2.2655  1.2683  1.0090
   19DOPE  H16Y 2444   5.858   3.299  15.285  0.2424 -0.5068  1.5771
   19DOPE  C317 2445   5.811   3.095  15.258 -0.6436  0.1208 -0.0254
   19DOPE  H17X 2446   5.856   2.994  15.243 -2.1237 -0.2977 -2.0963
   19DOPE  H17Y 2447   5.752   3.086  15.352  0.6426 -1.2982  0.7018
   19DOPE  C318 2448   5.716   3.122  15.138 -0.7700  0.2646  0.8156
   19DOPE  H18X 2449   5.772   3.098  15.045 -2.0280 -0.3992  0.2038
   19DOPE  H18Y 2450   5.626   3.057  15.140 -1.7058  1.3936 -1.2806
   19DOPE  H18Z 2451   5.678   3.226  15.135 -1.7050 -0.0811 -0.4630
   20DOPE     N 2452   5.798   0.318  17.066 -0.2739  0.2889 -0.2577
   20DOPE   HN1 2453   5.815   0.217  17.083 -0.3106  0.7168  2.7149
   20DOPE   HN2 2454   5.843   0.352  17.153  0.4027  0.3975 -0.6443
   20DOPE   HN3 2455   5.698   0.347  17.071 -0.6326 -1.0772  1.2127
   20DOPE   C12 2456   5.883   0.373  16.945  0.0788 -0.4323 -0.9048
   20DOPE  H12A 2457   5.959   0.439  16.992 -0.6000  0.2266 -0.6968
   20DOPE  H12B 2458   5.814   0.421  16.872 -0.3521 -0.2300 -0.3735
   20DOPE   C11 2459   5.953   0.251  16.879  0.1176 -0.0750 -0.2287
   20DOPE  H11A 2460   6.003   0.278  16.784 -0.2030  0.4196 -0.2572
   20DOPE  H11B 2461   5.872   0.177  16.857  1.6806 -1.7387 -0.6292
   20DOPE     P 2462   6.197   0.217  16.980 -0.0608 -0.0166 -0.0569
   20DOPE   O13 2463   6.244   0.250  17.118 -1.0120  0.0129 -0.0286
   20DOPE   O14 2464   6.228   0.318  16.881 -0.3973  0.0724 -0.0990
   20DOPE   O11 2465   6.265   0.077  16.948 -0.6937  0.3600  0.4096
   20DOPE   O12 2466   6.041   0.184  16.971 -0.7020 -0.3381 -0.0900
   20DOPE    C1 2467   6.200  -0.047  16.950  0.3350  0.0999  0.3368
   20DOPE    HA 2468   6.134  -0.053  17.039  1.6240  0.4886  1.3505
   20DOPE    HB 2469   6.272  -0.130  16.970 -1.3322 -1.6765 -0.6778
   20DOPE    C2 2470   6.123  -0.085  16.824  0.5105  0.0659 -0.5412
   20DOPE    HS 2471   6.029  -0.028  16.809  1.9257  2.6178 -0.2741
   20DOPE   O21 2472   6.107  -0.229  16.812  0.0375 -0.4061  0.0302
   20DOPE   C21 2473   6.003  -0.275  16.865  0.0315 -0.4779  0.6662
   20DOPE   O22 2474   5.927  -0.214  16.940  0.3020 -0.1324  0.2027
   20DOPE   C22 2475   5.978  -0.416  16.810  0.3169  0.2484  1.0496
   20DOPE   H2R 2476   5.985  -0.485  16.897  1.3057  0.2048  0.9430
   20DOPE   H2S 2477   6.054  -0.443  16.734 -1.3297  3.3777 -1.9863
   20DOPE    C3 2478   6.197  -0.037  16.693  0.1800  0.0097  0.6168
   20DOPE    HX 2479   6.303  -0.071  16.689  0.2008 -0.1366  2.0070
   20DOPE    HY 2480   6.201   0.074  16.690 -2.2924  0.1374 -0.1463
   20DOPE   O31 2481   6.128  -0.072  16.574  0.0510  0.2544 -0.0174
   20DOPE   C31 2482   6.177  -0.170  16.505  0.3095 -0.9343  0.3193
   20DOPE   O32 2483   6.272  -0.241  16.532  0.4335 -0.3126 -0.5075
   20DOPE   C32 2484   6.080  -0.177  16.385  0.1575  0.7124  0.1918
   20DOPE   H2X 2485   5.980  -0.203  16.426  0.6885 -3.0408 -0.4898
   20DOPE   H2Y 2486   6.078  -0.082  16.326 -1.0949 -0.0320 -1.0415
   20DOPE   C23 2487   5.837  -0.452  16.761 -0.8236  0.6744 -0.0078
   20DOPE   H3R 2488   5.761  -0.421  16.836 -1.6185 -0.0719 -0.4733
   20DOPE   H3S 2489   5.841  -0.563  16.758 -0.8537  0.6549  0.5094
   20DOPE   C24 2490   5.791  -0.404  16.628  0.5764  0.2386  0.0445
   20DOPE   H4R 2491   5.819  -0.298  16.607  0.3953  0.1300 -0.8095
   20DOPE   H4S 2492   5.680  -0.410  16.620  0.4622  1.7464  0.2038
   20DOPE   C25 2493   5.859  -0.480  16.512  0.1903 -0.3436  0.4427
   20DOPE   H5R 2494   5.967  -0.483  16.542  0.1905 -1.4376  0.3771
   20DOPE   H5S 2495   5.841  -0.412  16.426  1.7172 -1.1478 -0.5733
   20DOPE   C26 2496   5.809  -0.618  16.485 -0.3908 -0.2757 -0.4385
   20DOPE   H6R 2497   5.699  -0.613  16.475 -0.4787  0.9672  0.8673
   20DOPE   H6S 2498   5.825  -0.687  16.571 -1.4499  1.7022  1.4274
   20DOPE   C27 2499   5.863  -0.683  16.360 -0.2065  0.2482  0.4227
   20DOPE   H7R 2500   5.974  -0.688  16.364 -0.0487  1.8370 -0.8845
   20DOPE   H7S 2501   5.832  -0.629  16.268  0.0407 -0.9183 -0.3693
   20DOPE   C28 2502   5.815  -0.830  16.349 -0.7397  0.1527 -0.2891
   20DOPE   H8R 2503   5.851  -0.900  16.427 -2.3170  0.6821  0.9763
   20DOPE   H8S 2504   5.855  -0.876  16.256 -1.1413 -1.9322  0.5045
   20DOPE   C29 2505   5.665  -0.847  16.344 -0.3241 -0.0588  0.2532
   20DOPE   H9R 2506   5.615  -0.818  16.438  0.2800  0.2691  0.4860
   20DOPE  C210 2507   5.584  -0.895  16.248 -0.3690  0.2065  0.3879
   20DOPE  H10R 2508   5.476  -0.894  16.269 -0.9330  0.6774 -2.1643
   20DOPE  C211 2509   5.618  -0.947  16.111 -0.0272  0.7131 -0.4514
   20DOPE  H11R 2510   5.725  -0.934  16.085 -0.0465 -2.5213 -2.6960
   20DOPE  H11S 2511   5.568  -0.878  16.040 -1.2399  0.7627  0.4117
   20DOPE  C212 2512   5.580  -1.092  16.065 -0.4923  0.0208  0.7406
   20DOPE  H12R 2513   5.495  -1.136  16.121  1.0355 -1.1307  2.2701
   20DOPE  H12S 2514   5.662  -1.166  16.075 -0.6776 -0.8320 -2.7361
   20DOPE  C213 2515   5.548  -1.074  15.913  0.5460  0.3437 -0.2029
   20DOPE  H13R 2516   5.626  -1.006  15.872  1.1183  0.2095  0.6292
   20DOPE  H13S 2517   5.454  -1.014  15.910  0.1312 -0.3347 -1.0978
   20DOPE  C214 2518   5.533  -1.200  15.829  0.5193  0.6108 -0.9409
   20DOPE  H14R 2519   5.472  -1.276  15.884  2.3601  0.3173  0.7946
   20DOPE  H14S 2520   5.632  -1.250  15.820 -0.2754 -1.6584  1.5311
   20DOPE  C215 2521   5.486  -1.172  15.689 -0.4537  0.3281  0.2660
   20DOPE  H15R 2522   5.545  -1.087  15.648 -0.5094  0.3492  0.2288
   20DOPE  H15S 2523   5.378  -1.145  15.680 -0.4689 -0.3258 -2.3470
   20DOPE  C216 2524   5.528  -1.289  15.595  0.2960 -0.2363 -0.0017
   20DOPE  H16R 2525   5.481  -1.381  15.637  1.1914 -1.0650 -0.7751
   20DOPE  H16S 2526   5.638  -1.300  15.598  0.1815 -1.2443  1.4721
   20DOPE  C217 2527   5.473  -1.268  15.455  0.1326 -0.0188  0.6602
   20DOPE  H17R 2528   5.521  -1.173  15.427  0.9930 -0.5107  0.4331
   20DOPE  H17S 2529   5.363  -1.256  15.452  0.0847 -0.3722 -3.1874
   20DOPE  C218 2530   5.517  -1.376  15.364  0.1294  0.3526  0.1432
   20DOPE  H18R 2531   5.626  -1.376  15.345 -0.3309 -0.9583 -3.1434
   20DOPE  H18S 2532   5.474  -1.354  15.264  3.0425 -0.5609 -1.4193
   20DOPE  H18T 2533   5.492  -1.474  15.410  2.7058 -0.2591  0.4114
   20DOPE   C33 2534   6.120  -0.299  16.300 -0.1537  0.0734  0.2368
   20DOPE   H3X 2535   6.136  -0.387  16.366  1.8391  1.3782  1.6195
   20DOPE   H3Y 2536   6.220  -0.273  16.258  0.1129  2.3651  2.0536
   20DOPE   C34 2537   6.021  -0.321  16.185  0.0045  1.0937 -0.4817
   20DOPE   H4X 2538   5.941  -0.393  16.211  0.5125  0.0661 -1.7059
   20DOPE   H4Y 2539   5.972  -0.223  16.165  0.0903  1.4060  0.7727
   20DOPE   C35 2540   6.090  -0.368  16.051  0.0566 -0.4745 -0.2052
   20DOPE   H5X 2541   6.174  -0.295  16.043  0.8500 -1.0985  1.7055
   20DOPE   H5Y 2542   6.021  -0.354  15.965  0.3540 -0.5130 -0.4537
   20DOPE   C36 2543   6.135  -0.517  16.065  0.9447  0.7994  0.7141
   20DOPE   H6X 2544   6.163  -0.535  16.171 -1.7770  0.0942  1.4007
   20DOPE   H6Y 2545   6.218  -0.535  15.993 -0.4351 -0.7559 -0.5702
   20DOPE   C37 2546   6.018  -0.616  16.038  0.2620  0.6288 -0.2841
   20DOPE   H7X 2547   5.933  -0.609  16.108  3.1231  0.9973  3.4897
   20DOPE   H7Y 2548   5.984  -0.603  15.934  0.9429  0.7710 -0.4986
   20DOPE   C38 2549   6.066  -0.761  16.074 -0.6019  0.3168 -0.3059
   20DOPE   H8X 2550   5.983  -0.827  16.043  0.4096 -2.3634  2.1731
   20DOPE   H8Y 2551   6.068  -0.766  16.185 -1.8086  2.7552 -0.1233
   20DOPE   C39 2552   6.204  -0.809  16.026 -0.0096 -0.3499 -0.1129
   20DOPE   H9X 2553   6.291  -0.767  16.078  1.3592 -2.4443 -0.5969
   20DOPE  C310 2554   6.222  -0.887  15.915 -0.0750 -0.0599  0.7189
   20DOPE  H10X 2555   6.326  -0.910  15.889 -0.3051  1.0979 -1.4797
   20DOPE  C311 2556   6.116  -0.957  15.832  0.1154  0.0469 -0.6661
   20DOPE  H11X 2557   6.050  -0.874  15.799 -0.8751  0.1495  1.4034
   20DOPE  H11Y 2558   6.162  -0.988  15.736 -1.0364 -1.6703 -0.7106
   20DOPE  C312 2559   6.039  -1.078  15.897 -0.1075  0.1694  0.3253
   20DOPE  H12X 2560   6.009  -1.043  15.999  2.2912 -0.4099  1.2854
   20DOPE  H12Y 2561   6.114  -1.155  15.922 -0.6290 -1.7307 -3.3012
   20DOPE  C313 2562   5.918  -1.145  15.825 -0.0548 -0.6794 -0.4785
   20DOPE  H13X 2563   5.848  -1.197  15.894 -0.4441 -0.5488 -0.7662
   20DOPE  H13Y 2564   5.850  -1.075  15.770 -1.2856 -2.4501 -1.2941
   20DOPE  C314 2565   5.962  -1.234  15.707  0.3091  0.2334  0.2727
   20DOPE  H14X 2566   5.994  -1.173  15.620 -0.5201 -0.6161 -0.6497
   20DOPE  H14Y 2567   5.869  -1.278  15.667  0.2640  0.5543  0.0265
   20DOPE  C315 2568   6.055  -1.352  15.737  0.7294  0.1873  0.5179
   20DOPE  H15X 2569   6.034  -1.387  15.840 -0.3339  2.5473  1.1598
   20DOPE  H15Y 2570   6.160  -1.317  15.729  1.3008 -1.1487  1.7249
   20DOPE  C316 2571   6.021  -1.461  15.640 -0.4213 -0.4229  0.4150
   20DOPE  H16X 2572   6.006  -1.420  15.538  1.1744  3.0789  1.4020
   20DOPE  H16Y 2573   5.923  -1.503  15.671 -0.3903  0.7698  2.3147
   20DOPE  C317 2574   6.136  -1.567  15.633  0.4738 -0.2415 -0.1329
   20DOPE  H17X 2575   6.159  -1.604  15.735  0.8696  0.7212  0.1368
   20DOPE  H17Y 2576   6.111  -1.648  15.562 -0.4254  0.9559 -1.2215
   20DOPE  C318 2577   6.277  -1.518  15.586  0.9033  0.8355  0.0206
   20DOPE  H18X 2578   6.323  -1.455  15.665 -2.4146  1.8789  1.2825
   20DOPE  H18Y 2579   6.332  -1.614  15.593 -1.2502 -0.3978  1.5429
   20DOPE  H18Z 2580   6.283  -1.467  15.487 -0.9048 -0.2867 -0.7315
   21DOPE     N 2581   3.320   6.739  17.443 -0.4227  0.9523  0.3908
   21DOPE   HN1 2582   3.369   6.808  17.383  2.2778 -1.6083 -0.5707
   21DOPE   HN2 2583   3.228   6.710  17.403  0.0058  0.3603 -0.1787
   21DOPE   HN3 2584   3.298   6.767  17.541  0.5870 -0.9135  1.2060
   21DOPE   C12 2585   3.412   6.629  17.452  0.4179  0.2375  0.2397
   21DOPE  H12A 2586   3.474   6.635  17.543 -0.1458 -2.6231  0.9247
   21DOPE  H12B 2587   3.477   6.632  17.362  0.7219  0.9794  0.4808
   21DOPE   C11 2588   3.332   6.497  17.458  0.2367 -0.1508  0.5971
   21DOPE  H11A 2589   3.289   6.483  17.559 -0.6508 -1.3074  0.0941
   21DOPE  H11B 2590   3.400   6.410  17.473  1.5495  0.8950  0.8235
   21DOPE     P 2591   3.236   6.353  17.255 -0.0526 -0.1749 -0.2541
   21DOPE   O13 2592   3.112   6.332  17.172 -0.2530 -0.3960 -0.2860
   21DOPE   O14 2593   3.270   6.234  17.331  0.1689  0.4961  0.1704
   21DOPE   O11 2594   3.355   6.395  17.163 -0.2452  0.0036  0.0959
   21DOPE   O12 2595   3.230   6.480  17.350  0.6425 -0.4386  0.2835
   21DOPE    C1 2596   3.364   6.510  17.080 -0.4833 -0.3921 -0.3077
   21DOPE    HA 2597   3.459   6.561  17.106 -1.2129  0.3894  0.9816
   21DOPE    HB 2598   3.288   6.587  17.106 -1.2026 -1.0297 -0.4823
   21DOPE    C2 2599   3.355   6.481  16.922  0.5046 -0.1721 -0.4557
   21DOPE    HS 2600   3.415   6.561  16.872  0.0599  1.0291  0.8665
   21DOPE   O21 2601   3.215   6.493  16.878 -0.4513  0.1330  0.6299
   21DOPE   C21 2602   3.147   6.599  16.882 -0.0961 -0.0688  0.2260
   21DOPE   O22 2603   3.189   6.705  16.927 -0.0201  0.2742 -0.4441
   21DOPE   C22 2604   3.004   6.563  16.852  0.5219  0.2316  0.4611
   21DOPE   H2R 2605   2.939   6.632  16.910  1.4472  1.1353  0.4432
   21DOPE   H2S 2606   2.977   6.458  16.879 -1.4540  0.4021 -0.6136
   21DOPE    C3 2607   3.411   6.346  16.882  0.2934  0.3240 -0.7226
   21DOPE    HX 2608   3.344   6.275  16.934 -0.8362  0.7795 -1.5294
   21DOPE    HY 2609   3.505   6.354  16.941 -0.6955  2.8207  0.6889
   21DOPE   O31 2610   3.432   6.318  16.741  0.0636  0.1092 -0.5825
   21DOPE   C31 2611   3.326   6.271  16.675 -0.5006 -0.2029  0.3919
   21DOPE   O32 2612   3.216   6.245  16.713  0.0689  0.3658  0.0390
   21DOPE   C32 2613   3.375   6.225  16.541 -0.2120 -0.5620  0.7806
   21DOPE   H2X 2614   3.370   6.316  16.478  3.3244 -2.1010 -2.0460
   21DOPE   H2Y 2615   3.484   6.207  16.553  0.2696  1.1347 -0.6300
   21DOPE   C23 2616   2.962   6.587  16.704 -0.5943 -0.4406 -0.5810
   21DOPE   H3R 2617   2.948   6.695  16.686  1.7977  0.2962  1.3755
   21DOPE   H3S 2618   2.863   6.540  16.681 -0.3615 -0.2185 -2.1611
   21DOPE   C24 2619   3.067   6.550  16.593  0.7272 -0.2407 -0.2650
   21DOPE   H4R 2620   3.074   6.439  16.593  1.1951 -0.2390 -2.0089
   21DOPE   H4S 2621   3.160   6.605  16.620  0.8234 -1.3267  1.7997
   21DOPE   C25 2622   3.033   6.603  16.452  1.1901  0.5898  0.2167
   21DOPE   H5R 2623   3.033   6.714  16.445 -0.7901  0.4892 -3.5116
   21DOPE   H5S 2624   2.932   6.574  16.417  1.5783 -1.6154  0.7485
   21DOPE   C26 2625   3.124   6.541  16.349  0.5360 -0.0358  0.1640
   21DOPE   H6R 2626   3.125   6.430  16.357  2.9304 -0.0820 -0.0993
   21DOPE   H6S 2627   3.228   6.573  16.374  0.2939 -0.3604  1.6945
   21DOPE   C27 2628   3.073   6.586  16.206 -0.1765  0.3400  0.1219
   21DOPE   H7R 2629   3.094   6.694  16.189 -1.0163  0.4258 -0.4366
   21DOPE   H7S 2630   2.967   6.562  16.183  0.0991 -1.6661  0.7653
   21DOPE   C28 2631   3.151   6.510  16.099 -0.6406 -0.3214  0.0524
   21DOPE   H8R 2632   3.112   6.522  15.996  0.0654 -0.0719 -0.1895
   21DOPE   H8S 2633   3.131   6.402  16.116 -2.4005  0.0851  0.7454
   21DOPE   C29 2634   3.303   6.524  16.105 -0.7252  0.3832 -0.1010
   21DOPE   H9R 2635   3.342   6.621  16.141  0.6287 -0.3702  0.5421
   21DOPE  C210 2636   3.388   6.433  16.062 -0.1072 -1.0459 -0.4419
   21DOPE  H10R 2637   3.495   6.442  16.084 -0.6205  1.0958  1.6553
   21DOPE  C211 2638   3.346   6.313  15.974 -0.1195 -0.1720 -0.2109
   21DOPE  H11R 2639   3.238   6.323  15.949  0.2655  2.2755 -1.2019
   21DOPE  H11S 2640   3.357   6.213  16.021 -2.2829 -0.5606 -0.4430
   21DOPE  C212 2641   3.437   6.328  15.848  0.8167 -0.6045  0.1046
   21DOPE  H12R 2642   3.538   6.351  15.888  0.4303  0.1209  0.7029
   21DOPE  H12S 2643   3.398   6.401  15.775  1.2782  2.0920  2.3731
   21DOPE  C213 2644   3.445   6.188  15.768  0.0999 -0.5868 -0.1280
   21DOPE  H13R 2645   3.344   6.159  15.732 -0.3915 -2.4616  2.4640
   21DOPE  H13S 2646   3.475   6.107  15.838  1.3356 -3.5225 -3.6883
   21DOPE  C214 2647   3.551   6.195  15.655  0.2237  0.7613  0.1737
   21DOPE  H14R 2648   3.650   6.221  15.699  2.3879 -1.9148 -2.6205
   21DOPE  H14S 2649   3.512   6.275  15.589 -2.4117 -0.0834  0.5840
   21DOPE  C215 2650   3.563   6.061  15.583  0.2190  0.4128 -0.2318
   21DOPE  H15R 2651   3.624   6.089  15.494  2.3603 -0.3957  0.8943
   21DOPE  H15S 2652   3.471   6.011  15.545  1.5111 -0.6396 -2.1615
   21DOPE  C216 2653   3.638   5.956  15.666  0.1775  0.6883 -0.5015
   21DOPE  H16R 2654   3.576   5.940  15.757  0.0803  1.3963 -0.4370
   21DOPE  H16S 2655   3.722   6.006  15.718 -0.3014 -0.8408  1.9095
   21DOPE  C217 2656   3.684   5.838  15.584 -0.5016 -0.1109 -0.3551
   21DOPE  H17R 2657   3.780   5.850  15.530 -1.3571  1.2240 -1.6494
   21DOPE  H17S 2658   3.602   5.817  15.512 -1.7177 -0.6485  1.1220
   21DOPE  C218 2659   3.692   5.707  15.666  0.3244 -0.0142  0.5343
   21DOPE  H18R 2660   3.770   5.710  15.745  0.6340  2.1691  0.2128
   21DOPE  H18S 2661   3.701   5.619  15.599  0.9987  1.0728 -0.8535
   21DOPE  H18T 2662   3.592   5.700  15.715 -1.2781  1.0253 -2.3340
   21DOPE   C33 2663   3.307   6.104  16.468 -0.3426  0.1917  0.5860
   21DOPE   H3X 2664   3.199   6.121  16.448 -0.0801  0.5481 -0.5561
   21DOPE   H3Y 2665   3.317   6.010  16.527 -0.2940 -0.5502 -0.5768
   21DOPE   C34 2666   3.384   6.073  16.336  0.4201 -0.0310  0.1191
   21DOPE   H4X 2667   3.390   6.166  16.275  0.8702  0.2345  0.5594
   21DOPE   H4Y 2668   3.488   6.059  16.374  0.2299  0.3675  0.8083
   21DOPE   C35 2669   3.325   5.965  16.257 -0.2040  1.1915  0.9555
   21DOPE   H5X 2670   3.235   6.011  16.212 -0.3287  0.7596  0.7512
   21DOPE   H5Y 2671   3.297   5.881  16.325 -0.5646 -1.3309 -2.0260
   21DOPE   C36 2672   3.421   5.904  16.148  0.5028 -0.2001 -0.7074
   21DOPE   H6X 2673   3.521   5.885  16.194 -0.7319  0.5449  2.5552
   21DOPE   H6Y 2674   3.430   5.989  16.078  0.5659  0.8113  0.5006
   21DOPE   C37 2675   3.360   5.774  16.099  0.2586 -0.6238 -0.3333
   21DOPE   H7X 2676   3.420   5.699  16.156 -0.4744 -1.3666 -0.5131
   21DOPE   H7Y 2677   3.253   5.775  16.127  0.1416  2.2036 -0.6097
   21DOPE   C38 2678   3.385   5.747  15.942  0.0443 -1.0220 -0.6079
   21DOPE   H8X 2679   3.395   5.639  15.917 -1.6764 -0.9516 -1.8217
   21DOPE   H8Y 2680   3.477   5.796  15.903  0.8603 -1.6479  0.4968
   21DOPE   C39 2681   3.258   5.791  15.871 -1.2098 -0.5676  1.0669
   21DOPE   H9X 2682   3.205   5.884  15.894  0.8578  0.9556 -0.0191
   21DOPE  C310 2683   3.230   5.743  15.742  0.4510  0.2125 -0.4026
   21DOPE  H10X 2684   3.154   5.803  15.691 -0.7244 -0.8354  0.0495
   21DOPE  C311 2685   3.291   5.644  15.654 -0.1430 -0.3836  0.1073
   21DOPE  H11X 2686   3.384   5.606  15.702  2.1834  1.7498 -2.3657
   21DOPE  H11Y 2687   3.229   5.562  15.612  1.4698 -0.4816 -2.2747
   21DOPE  C312 2688   3.355   5.707  15.523 -0.0367 -0.6263 -0.3235
   21DOPE  H12X 2689   3.416   5.631  15.470 -1.6916 -2.5125  0.3642
   21DOPE  H12Y 2690   3.419   5.790  15.561 -1.7274  0.6164 -0.0722
   21DOPE  C313 2691   3.245   5.763  15.428 -0.0959  0.7719  0.0924
   21DOPE  H13X 2692   3.158   5.694  15.421  0.4294  0.0046  0.8757
   21DOPE  H13Y 2693   3.207   5.856  15.476 -0.4940 -0.8181  3.1131
   21DOPE  C314 2694   3.296   5.796  15.292 -0.3455 -0.0396 -0.0910
   21DOPE  H14X 2695   3.343   5.704  15.252 -1.1899 -0.6724  0.3420
   21DOPE  H14Y 2696   3.376   5.873  15.298  0.0489 -0.4820  0.3942
   21DOPE  C315 2697   3.191   5.836  15.192 -0.2620  0.0059  0.7314
   21DOPE  H15X 2698   3.222   5.911  15.115  0.6084  0.0004  1.0658
   21DOPE  H15Y 2699   3.106   5.887  15.243  0.0422  1.5758 -0.2542
   21DOPE  C316 2700   3.123   5.718  15.117 -0.2206  0.1265  0.0848
   21DOPE  H16X 2701   3.078   5.659  15.199 -1.0622  0.2504 -0.2703
   21DOPE  H16Y 2702   3.196   5.644  15.079  1.0635  0.6869  1.3476
   21DOPE  C317 2703   3.022   5.769  15.011  0.0997  0.1854 -0.2400
   21DOPE  H17X 2704   2.959   5.686  14.971  0.3518  0.6869 -1.7411
   21DOPE  H17Y 2705   2.955   5.841  15.062 -0.5214 -0.8565  0.4699
   21DOPE  C318 2706   3.090   5.848  14.894  0.0474  0.3644 -0.9762
   21DOPE  H18X 2707   3.090   5.788  14.801  1.3708  2.0680 -2.1519
   21DOPE  H18Y 2708   3.040   5.945  14.872 -0.4363  0.1206 -0.9530
   21DOPE  H18Z 2709   3.194   5.880  14.918 -0.0808 -0.1172  0.2765
   22DOPE     N 2710   6.771   4.164  16.467 -0.6304  0.2556 -0.4235
   22DOPE   HN1 2711   6.736   4.066  16.470 -0.8040  0.3371  1.5215
   22DOPE   HN2 2712   6.874   4.164  16.479 -0.6557  2.4028  0.2353
   22DOPE   HN3 2713   6.733   4.213  16.550  0.6516 -0.0684  0.3843
   22DOPE   C12 2714   6.726   4.238  16.342  0.6357 -0.3779  0.3019
   22DOPE  H12A 2715   6.618   4.212  16.333  0.8126 -0.9631 -0.2076
   22DOPE  H12B 2716   6.772   4.191  16.252 -0.7640  0.2525 -0.7966
   22DOPE   C11 2717   6.748   4.385  16.353 -0.2570  0.0332 -0.5728
   22DOPE  H11A 2718   6.679   4.416  16.435 -1.5240 -0.6200 -1.3699
   22DOPE  H11B 2719   6.725   4.449  16.265  1.9263 -0.1039 -1.3016
   22DOPE     P 2720   6.937   4.537  16.456  0.2357  0.1336  0.2974
   22DOPE   O13 2721   7.075   4.525  16.496  0.3282  0.1602 -0.2014
   22DOPE   O14 2722   6.840   4.575  16.557  0.3844  0.5406 -0.5345
   22DOPE   O11 2723   6.937   4.640  16.337  0.1130 -0.6098  0.0532
   22DOPE   O12 2724   6.887   4.407  16.384 -0.5071 -0.1330 -0.2615
   22DOPE    C1 2725   6.973   4.610  16.197  0.7100 -0.1034 -0.1956
   22DOPE    HA 2726   6.979   4.705  16.142  0.8818 -0.4264 -0.7359
   22DOPE    HB 2727   6.908   4.535  16.146  2.0542 -0.9432 -0.7209
   22DOPE    C2 2728   7.118   4.552  16.182 -0.4747 -0.0221 -0.2498
   22DOPE    HS 2729   7.129   4.451  16.228  2.4021 -1.2789 -3.3337
   22DOPE   O21 2730   7.217   4.644  16.241  0.1649 -0.0981  0.0136
   22DOPE   C21 2731   7.332   4.599  16.277  0.2946  0.3199 -0.2291
   22DOPE   O22 2732   7.359   4.476  16.289 -0.3009 -0.6143 -0.4134
   22DOPE   C22 2733   7.429   4.714  16.284 -0.8481  0.0338  0.1445
   22DOPE   H2R 2734   7.397   4.763  16.378 -0.1485 -1.0450  0.9701
   22DOPE   H2S 2735   7.406   4.780  16.198 -2.2120  1.2782  1.3903
   22DOPE    C3 2736   7.156   4.528  16.030 -0.8483 -0.0797 -0.3692
   22DOPE    HX 2737   7.260   4.489  16.026  0.4076  3.0072 -1.0773
   22DOPE    HY 2738   7.167   4.627  15.981  2.6251  0.0314  0.3878
   22DOPE   O31 2739   7.048   4.468  15.965  0.6634 -0.5811  0.5096
   22DOPE   C31 2740   7.040   4.342  15.979 -0.5695 -0.0835 -0.7436
   22DOPE   O32 2741   7.117   4.274  16.049  0.1738  0.1839 -0.0542
   22DOPE   C32 2742   6.923   4.299  15.892 -0.4511 -0.2594  0.5446
   22DOPE   H2X 2743   6.869   4.391  15.863  0.7429 -0.3620 -2.3464
   22DOPE   H2Y 2744   6.949   4.233  15.806 -0.7619  0.1047  0.1737
   22DOPE   C23 2745   7.570   4.665  16.300 -0.0991 -0.1556 -0.0733
   22DOPE   H3R 2746   7.609   4.620  16.206  1.5077 -0.3908  0.6585
   22DOPE   H3S 2747   7.573   4.587  16.379  2.0940 -1.9450 -1.7772
   22DOPE   C24 2748   7.658   4.787  16.325  0.4546 -0.4018 -0.6040
   22DOPE   H4R 2749   7.756   4.753  16.366  0.5187  0.2401 -0.2217
   22DOPE   H4S 2750   7.610   4.860  16.392 -0.6727 -1.6594 -0.0131
   22DOPE   C25 2751   7.691   4.863  16.193 -0.1838  0.0932 -0.0672
   22DOPE   H5R 2752   7.752   4.954  16.211  0.4718  1.0820 -5.6369
   22DOPE   H5S 2753   7.596   4.898  16.148  1.0227  3.0837 -0.4792
   22DOPE   C26 2754   7.774   4.789  16.088 -0.2096  0.1582  0.2214
   22DOPE   H6R 2755   7.719   4.710  16.031 -0.6852  0.2732  0.5181
   22DOPE   H6S 2756   7.860   4.750  16.146 -1.2474 -1.0377  1.0271
   22DOPE   C27 2757   7.809   4.889  15.977  0.0700 -0.0390 -0.6452
   22DOPE   H7R 2758   7.863   4.967  16.035 -0.1024 -1.1720  1.1265
   22DOPE   H7S 2759   7.715   4.934  15.940  0.1713 -0.1200 -0.9981
   22DOPE   C28 2760   7.883   4.828  15.860  0.0390 -0.4017  0.0364
   22DOPE   H8R 2761   7.822   4.742  15.823  0.8393 -0.3300 -1.5008
   22DOPE   H8S 2762   7.972   4.778  15.904 -1.1883 -1.9040  0.9070
   22DOPE   C29 2763   7.919   4.933  15.758 -0.6786  0.2949 -0.2543
   22DOPE   H9R 2764   7.956   5.028  15.800  1.1852 -0.2985 -0.4532
   22DOPE  C210 2765   7.933   4.916  15.625 -0.2660 -0.0906 -0.0723
   22DOPE  H10R 2766   7.991   4.990  15.569  1.9431 -1.6594  0.0481
   22DOPE  C211 2767   7.910   4.784  15.550  0.5656  0.2589  0.4242
   22DOPE  H11R 2768   7.816   4.734  15.581 -0.9304  3.0647  0.6932
   22DOPE  H11S 2769   7.995   4.713  15.564  0.5147  0.4996  2.1437
   22DOPE  C212 2770   7.895   4.832  15.403 -0.5474  0.3411 -0.5059
   22DOPE  H12R 2771   7.982   4.890  15.366 -0.3971 -1.0000 -2.4277
   22DOPE  H12S 2772   7.801   4.888  15.388 -0.4785  0.6977  0.3385
   22DOPE  C213 2773   7.878   4.710  15.313  0.0262 -0.0941 -0.9228
   22DOPE  H13R 2774   7.793   4.645  15.342 -0.7633  1.4475  0.3853
   22DOPE  H13S 2775   7.966   4.645  15.330 -1.2564 -1.7532 -0.4092
   22DOPE  C214 2776   7.860   4.754  15.164 -0.1841 -0.6123  0.2942
   22DOPE  H14R 2777   7.945   4.819  15.134  0.5949 -0.0081  3.5298
   22DOPE  H14S 2778   7.761   4.805  15.157 -0.0825 -0.5716 -1.3660
   22DOPE  C215 2779   7.847   4.634  15.067  0.4392  0.2540 -0.2574
   22DOPE  H15R 2780   7.773   4.559  15.102 -0.4965  0.6904 -1.2585
   22DOPE  H15S 2781   7.941   4.576  15.084 -1.2624 -3.1316 -1.4323
   22DOPE  C216 2782   7.820   4.681  14.924  0.4863 -0.7746  0.4966
   22DOPE  H16R 2783   7.874   4.776  14.903 -1.3251  0.6663  1.9437
   22DOPE  H16S 2784   7.714   4.715  14.922  1.0225  1.0594  1.2292
   22DOPE  C217 2785   7.847   4.580  14.817 -0.0071 -0.1965 -0.3093
   22DOPE  H17R 2786   7.957   4.572  14.827  0.0830 -0.4858 -1.4439
   22DOPE  H17S 2787   7.821   4.631  14.722 -1.8834 -2.1806 -0.9580
   22DOPE  C218 2788   7.791   4.442  14.831  0.0472 -0.1838  0.1775
   22DOPE  H18R 2789   7.786   4.406  14.937  2.2104 -0.3835  0.2645
   22DOPE  H18S 2790   7.844   4.361  14.777 -1.9052 -1.7773  0.5087
   22DOPE  H18T 2791   7.692   4.434  14.782 -0.3241 -0.1273  0.9061
   22DOPE   C33 2792   6.821   4.210  15.973 -0.2149  0.1230 -0.5281
   22DOPE   H3X 2793   6.815   4.252  16.075  0.5651  0.6802 -0.7079
   22DOPE   H3Y 2794   6.868   4.111  15.987  0.7322  0.6681  0.2286
   22DOPE   C34 2795   6.689   4.193  15.901  0.2575 -0.2174  0.3811
   22DOPE   H4X 2796   6.605   4.176  15.971  0.7944  0.5763  1.2358
   22DOPE   H4Y 2797   6.669   4.283  15.838  1.4731 -0.1401  0.0861
   22DOPE   C35 2798   6.700   4.070  15.797  0.2862  0.1004  0.2961
   22DOPE   H5X 2799   6.660   3.977  15.844  1.4205 -0.2925  0.5266
   22DOPE   H5Y 2800   6.805   4.052  15.765  0.0552  0.9311 -1.0003
   22DOPE   C36 2801   6.611   4.111  15.677 -0.4080 -0.2467  0.0569
   22DOPE   H6X 2802   6.653   4.197  15.621 -1.6243 -0.1032 -0.6807
   22DOPE   H6Y 2803   6.508   4.135  15.710 -0.7244  2.2454 -2.3699
   22DOPE   C37 2804   6.588   3.994  15.574  0.3130 -0.0779 -0.0121
   22DOPE   H7X 2805   6.680   3.932  15.575  0.5652  0.2743  1.2843
   22DOPE   H7Y 2806   6.503   3.936  15.617 -1.7164  2.1512 -0.8237
   22DOPE   C38 2807   6.550   4.052  15.440  0.3567  0.2704  0.2198
   22DOPE   H8X 2808   6.466   4.125  15.445 -0.3340 -0.5507  0.7765
   22DOPE   H8Y 2809   6.498   3.971  15.386 -0.9553  1.1025  0.1959
   22DOPE   C39 2810   6.676   4.097  15.366  0.2730  0.4860 -0.3458
   22DOPE   H9X 2811   6.729   4.186  15.402  2.4451 -1.5637  1.8801
   22DOPE  C310 2812   6.735   4.028  15.269 -0.3528  0.7147 -0.6815
   22DOPE  H10X 2813   6.828   4.070  15.228  2.5396 -0.9986  3.4484
   22DOPE  C311 2814   6.693   3.894  15.213  0.6246  0.9285 -0.7280
   22DOPE  H11X 2815   6.618   3.844  15.278 -0.0855  1.7949 -0.8663
   22DOPE  H11Y 2816   6.650   3.903  15.111  1.2656  1.1118 -0.9857
   22DOPE  C312 2817   6.813   3.796  15.207 -0.0590  1.2669 -0.2584
   22DOPE  H12X 2818   6.857   3.789  15.308 -0.4086 -0.4071 -0.1948
   22DOPE  H12Y 2819   6.887   3.830  15.132  1.3603  0.4961  0.7461
   22DOPE  C313 2820   6.770   3.652  15.165  0.5964  0.3162 -0.3925
   22DOPE  H13X 2821   6.683   3.616  15.224  1.4008 -2.7727 -0.9070
   22DOPE  H13Y 2822   6.735   3.644  15.060 -0.1912 -0.3060 -0.0979
   22DOPE  C314 2823   6.878   3.551  15.181  0.0499  0.4629 -0.4268
   22DOPE  H14X 2824   6.868   3.522  15.288 -0.4976  1.1906 -0.2721
   22DOPE  H14Y 2825   6.978   3.594  15.159 -0.1457  0.6669 -0.9125
   22DOPE  C315 2826   6.852   3.411  15.115  0.0710  1.3131 -0.3375
   22DOPE  H15X 2827   6.846   3.433  15.006 -0.3897  5.4715  0.3943
   22DOPE  H15Y 2828   6.761   3.368  15.162  1.7663 -0.4160  1.5605
   22DOPE  C316 2829   6.974   3.322  15.153 -0.1630 -0.2333  0.5410
   22DOPE  H16X 2830   6.988   3.328  15.263 -1.1524 -0.0293  0.6609
   22DOPE  H16Y 2831   7.061   3.362  15.097  0.8299 -1.8175  0.8664
   22DOPE  C317 2832   6.953   3.173  15.122 -0.7578 -0.0095 -0.0862
   22DOPE  H17X 2833   7.043   3.117  15.154 -1.8280 -1.7305  0.0647
   22DOPE  H17Y 2834   6.869   3.143  15.189 -1.0581 -1.4914 -1.0641
   22DOPE  C318 2835   6.925   3.134  14.975 -1.3143 -0.2032  0.0197
   22DOPE  H18X 2836   6.860   3.209  14.926 -1.6995  0.5843  1.6583
   22DOPE  H18Y 2837   7.019   3.147  14.918 -1.1486  1.0788  0.5443
   22DOPE  H18Z 2838   6.885   3.030  14.976  0.0890 -0.7844  1.9501
   23DOPE     N 2839   4.652   0.050  16.793  0.6500  0.2331  0.4164
   23DOPE   HN1 2840   4.722   0.114  16.751 -2.3733  1.5125 -3.1890
   23DOPE   HN2 2841   4.578   0.106  16.840 -0.0056 -0.6785  0.4988
   23DOPE   HN3 2842   4.692  -0.008  16.870 -0.4411  0.4208  1.1585
   23DOPE   C12 2843   4.567  -0.019  16.690  0.0826  0.2404 -0.5986
   23DOPE  H12A 2844   4.627  -0.064  16.607 -2.4960 -0.0075 -2.4397
   23DOPE  H12B 2845   4.500   0.054  16.640 -1.1844  0.2884  1.0859
   23DOPE   C11 2846   4.480  -0.131  16.756  0.3093  0.0567  0.8202
   23DOPE  H11A 2847   4.432  -0.195  16.678  0.0806  0.7082  0.4147
   23DOPE  H11B 2848   4.402  -0.078  16.815 -0.1263 -0.5914  0.8407
   23DOPE     P 2849   4.502  -0.339  16.905  0.0370  0.2843 -0.4660
   23DOPE   O13 2850   4.410  -0.294  17.012 -0.1537 -0.1784 -0.3484
   23DOPE   O14 2851   4.611  -0.430  16.944 -0.0604 -0.3127  0.0145
   23DOPE   O11 2852   4.416  -0.406  16.786 -0.2356  0.2201  0.1454
   23DOPE   O12 2853   4.563  -0.216  16.836 -0.1427 -0.1064  0.0381
   23DOPE    C1 2854   4.473  -0.525  16.726  0.4154  0.1110 -0.3284
   23DOPE    HA 2855   4.390  -0.595  16.701 -0.4766  0.9578  0.2347
   23DOPE    HB 2856   4.537  -0.589  16.790 -0.2209 -2.0181 -1.7031
   23DOPE    C2 2857   4.544  -0.499  16.593  0.1327 -0.0573 -0.2107
   23DOPE    HS 2858   4.582  -0.592  16.547 -0.3291 -0.1382 -0.4332
   23DOPE   O21 2859   4.642  -0.397  16.603 -0.4808  0.1905  0.9360
   23DOPE   C21 2860   4.751  -0.429  16.667  0.1054 -0.5940  0.5599
   23DOPE   O22 2861   4.781  -0.530  16.722 -0.1581  0.1131  0.1957
   23DOPE   C22 2862   4.848  -0.309  16.671  0.2617  0.2169 -0.6733
   23DOPE   H2R 2863   4.889  -0.314  16.774  2.9412  3.1402 -1.4666
   23DOPE   H2S 2864   4.787  -0.219  16.650 -0.4752 -0.3617 -1.0908
   23DOPE    C3 2865   4.435  -0.450  16.489  0.1965  0.5372 -0.5422
   23DOPE    HX 2866   4.398  -0.352  16.524 -0.6478  0.0485 -0.0471
   23DOPE    HY 2867   4.351  -0.519  16.512  2.0621 -1.6023  0.3295
   23DOPE   O31 2868   4.471  -0.466  16.349 -0.0545 -0.0020 -0.2204
   23DOPE   C31 2869   4.481  -0.349  16.275  0.0515  0.4380 -0.4285
   23DOPE   O32 2870   4.471  -0.242  16.326  0.1287 -0.7573  0.8706
   23DOPE   C32 2871   4.493  -0.382  16.125 -0.3311 -0.0809 -0.1500
   23DOPE   H2X 2872   4.475  -0.490  16.106  0.0238  0.0424 -1.2310
   23DOPE   H2Y 2873   4.413  -0.318  16.082 -1.4184 -0.3086  1.4268
   23DOPE   C23 2874   4.960  -0.325  16.574 -0.0029  0.3152  0.0363
   23DOPE   H3R 2875   5.006  -0.426  16.579 -1.1559 -0.2769 -0.8949
   23DOPE   H3S 2876   5.042  -0.258  16.609  0.6190 -0.2176 -0.3700
   23DOPE   C24 2877   4.929  -0.306  16.423  0.3440  0.1805 -0.3274
   23DOPE   H4R 2878   4.871  -0.213  16.405 -0.1221  0.0570  0.5040
   23DOPE   H4S 2879   4.866  -0.392  16.391  1.5332 -3.2472  5.0792
   23DOPE   C25 2880   5.054  -0.298  16.332  0.2483  0.5398 -0.0595
   23DOPE   H5R 2881   5.134  -0.356  16.385 -1.8698  0.9442  3.9764
   23DOPE   H5S 2882   5.093  -0.194  16.330  0.1352  0.5741 -0.9364
   23DOPE   C26 2883   5.031  -0.339  16.181 -0.0391  0.2417 -0.5695
   23DOPE   H6R 2884   4.932  -0.298  16.152 -1.2736 -1.1580  1.3776
   23DOPE   H6S 2885   5.031  -0.449  16.166 -3.6711 -0.3217  2.0943
   23DOPE   C27 2886   5.146  -0.289  16.092 -0.5024  0.3359 -0.1532
   23DOPE   H7R 2887   5.178  -0.363  16.014 -0.2506 -1.0811  1.2348
   23DOPE   H7S 2888   5.222  -0.279  16.172 -0.4578 -0.1953 -0.1259
   23DOPE   C28 2889   5.133  -0.143  16.040 -0.3520 -0.0656  0.1518
   23DOPE   H8R 2890   5.241  -0.115  16.043 -0.0248 -1.3459  1.7768
   23DOPE   H8S 2891   5.078  -0.081  16.114 -0.1972 -0.5150  0.6506
   23DOPE   C29 2892   5.058  -0.131  15.917 -0.4793  0.1796 -0.3738
   23DOPE   H9R 2893   4.967  -0.189  15.938  0.6906 -1.3226  0.8268
   23DOPE  C210 2894   5.084  -0.086  15.793  0.6039  0.1065 -0.4246
   23DOPE  H10R 2895   5.005  -0.072  15.719  0.2054  0.9765  0.1472
   23DOPE  C211 2896   5.210  -0.013  15.748 -0.1178  0.0167 -0.2100
   23DOPE  H11R 2897   5.233  -0.042  15.643  0.2864 -1.6712  0.3093
   23DOPE  H11S 2898   5.288  -0.049  15.818  1.7097  1.3062 -1.4902
   23DOPE  C212 2899   5.192   0.143  15.758 -0.1776  0.2007 -0.6135
   23DOPE  H12R 2900   5.187   0.157  15.869 -1.0913 -1.3967 -0.4303
   23DOPE  H12S 2901   5.094   0.183  15.723 -0.9218  0.0759  1.2088
   23DOPE  C213 2902   5.309   0.213  15.702  0.1810 -0.3370 -0.0189
   23DOPE  H13R 2903   5.310   0.317  15.740  1.7841 -0.3308 -0.0119
   23DOPE  H13S 2904   5.301   0.219  15.591 -3.8031  0.9343  0.1863
   23DOPE  C214 2905   5.444   0.152  15.734 -1.0696 -0.3361 -0.2515
   23DOPE  H14R 2906   5.455   0.062  15.669  0.9001  0.1650 -0.7055
   23DOPE  H14S 2907   5.455   0.121  15.840 -2.5951 -0.8833 -0.2278
   23DOPE  C215 2908   5.565   0.250  15.705 -0.7068  0.0022 -0.2082
   23DOPE  H15R 2909   5.588   0.329  15.779 -0.1336 -0.7027  0.3819
   23DOPE  H15S 2910   5.530   0.306  15.615 -0.1898  0.8259  0.0967
   23DOPE  C216 2911   5.704   0.190  15.691 -0.0371 -0.3740 -0.1296
   23DOPE  H16R 2912   5.682   0.096  15.635 -0.3806  0.5306 -1.5402
   23DOPE  H16S 2913   5.759   0.172  15.786  1.6457 -0.8079 -1.1456
   23DOPE  C217 2914   5.798   0.281  15.609 -0.2926  0.2200 -0.2227
   23DOPE  H17R 2915   5.808   0.380  15.657 -0.1539 -0.0617  0.3321
   23DOPE  H17S 2916   5.759   0.299  15.506 -1.2439  0.5044  0.1791
   23DOPE  C218 2917   5.939   0.214  15.599 -0.9165  0.2761 -0.4666
   23DOPE  H18R 2918   6.001   0.257  15.518 -1.6436  1.6383 -0.3406
   23DOPE  H18S 2919   5.913   0.108  15.581 -0.0811 -0.0357  0.1006
   23DOPE  H18T 2920   5.994   0.226  15.695 -0.5890  3.5653 -0.9271
   23DOPE   C33 2921   4.624  -0.328  16.064  0.8137  0.3031  0.5093
   23DOPE   H3X 2922   4.712  -0.388  16.096 -0.0813 -0.7375  1.0933
   23DOPE   H3Y 2923   4.644  -0.228  16.107  2.3473  0.5712 -0.7637
   23DOPE   C34 2924   4.640  -0.329  15.909 -0.5343  0.1607 -0.7321
   23DOPE   H4X 2925   4.745  -0.301  15.884  0.0765  0.1238  1.5989
   23DOPE   H4Y 2926   4.613  -0.431  15.876 -1.0792  1.1214 -3.5488
   23DOPE   C35 2927   4.546  -0.233  15.824  0.1142  0.5538 -0.2022
   23DOPE   H5X 2928   4.530  -0.138  15.879  0.1198 -0.2345  1.2185
   23DOPE   H5Y 2929   4.456  -0.298  15.825 -0.4757  1.3642 -0.1037
   23DOPE   C36 2930   4.591  -0.225  15.680  0.4788  0.3003 -0.5133
   23DOPE   H6X 2931   4.700  -0.203  15.680  0.6400 -0.4433  0.0531
   23DOPE   H6Y 2932   4.542  -0.139  15.630 -0.4877  0.0810  0.0506
   23DOPE   C37 2933   4.564  -0.362  15.611 -0.1932  0.2845  0.6921
   23DOPE   H7X 2934   4.606  -0.448  15.667 -0.9133 -0.6746 -0.2227
   23DOPE   H7Y 2935   4.454  -0.373  15.606 -0.1301 -0.4263  0.8082
   23DOPE   C38 2936   4.610  -0.366  15.463 -0.1086 -0.0227 -0.0879
   23DOPE   H8X 2937   4.558  -0.287  15.404 -1.7613  0.3101  1.7138
   23DOPE   H8Y 2938   4.575  -0.460  15.415 -0.3484  0.8635 -1.7510
   23DOPE   C39 2939   4.758  -0.361  15.454 -0.2978 -0.5035  0.4640
   23DOPE   H9X 2940   4.808  -0.424  15.529 -0.8860 -0.8078  0.6061
   23DOPE  C310 2941   4.840  -0.286  15.373 -0.3766  0.6024 -0.6536
   23DOPE  H10X 2942   4.950  -0.281  15.381 -0.3611 -0.5512  0.0533
   23DOPE  C311 2943   4.774  -0.190  15.278  0.8058  0.0661  0.1145
   23DOPE  H11X 2944   4.679  -0.237  15.245  0.4580 -0.5223  1.8532
   23DOPE  H11Y 2945   4.733  -0.103  15.334 -1.0022 -0.1672 -0.7870
   23DOPE  C312 2946   4.853  -0.147  15.153 -0.1920  0.5322 -0.9464
   23DOPE  H12X 2947   4.806  -0.058  15.105 -0.7813 -0.0674 -1.5098
   23DOPE  H12Y 2948   4.853  -0.229  15.078  0.4558  1.3794 -1.8914
   23DOPE  C313 2949   4.994  -0.114  15.194  0.3729  1.0862 -1.1675
   23DOPE  H13X 2950   5.004  -0.042  15.278 -0.3432 -0.3695  0.2187
   23DOPE  H13Y 2951   5.053  -0.203  15.224 -0.8949 -0.6011 -3.3923
   23DOPE  C314 2952   5.078  -0.075  15.066  0.2374  0.0067 -0.7110
   23DOPE  H14X 2953   5.020   0.009  15.021 -2.0102 -0.1715  1.6140
   23DOPE  H14Y 2954   5.079  -0.155  14.989 -1.5275 -0.5174 -0.2355
   23DOPE  C315 2955   5.236  -0.048  15.090 -0.2491  0.7507 -0.4103
   23DOPE  H15X 2956   5.272  -0.140  15.141 -0.4972  1.1908  0.5857
   23DOPE  H15Y 2957   5.247   0.035  15.163 -0.5869  3.0955 -2.8722
   23DOPE  C316 2958   5.324  -0.016  14.970  0.0734  0.0667  0.2262
   23DOPE  H16X 2959   5.280   0.068  14.912 -1.2691 -0.8857 -0.1794
   23DOPE  H16Y 2960   5.316  -0.107  14.907  0.2025  0.1582  0.0776
   23DOPE  C317 2961   5.473   0.013  14.995  0.1805  0.5779  0.5273
   23DOPE  H17X 2962   5.510  -0.071  15.059  3.9264  1.1544 -0.6663
   23DOPE  H17Y 2963   5.534   0.016  14.903 -1.2956  1.0856 -0.4733
   23DOPE  C318 2964   5.495   0.147  15.066 -0.5675  0.5168 -0.5545
   23DOPE  H18X 2965   5.420   0.221  15.030 -1.3253  1.4958  2.6909
   23DOPE  H18Y 2966   5.461   0.145  15.172  1.1984  0.3649  0.0396
   23DOPE  H18Z 2967   5.600   0.184  15.062 -0.5132  0.6932  1.3197
   24DOPE     N 2968   6.207   4.001  16.831 -0.5475  0.1741 -0.4168
   24DOPE   HN1 2969   6.174   4.035  16.924 -1.4332  1.7012 -1.2587
   24DOPE   HN2 2970   6.177   4.072  16.761 -1.0055  0.0766 -0.3235
   24DOPE   HN3 2971   6.174   3.905  16.805  0.2053  0.1014 -1.1424
   24DOPE   C12 2972   6.355   3.988  16.847 -0.2628  1.1500  0.0101
   24DOPE  H12A 2973   6.387   3.886  16.879 -0.6040  1.1651  0.4081
   24DOPE  H12B 2974   6.376   4.073  16.916  1.3987 -0.3193  1.4362
   24DOPE   C11 2975   6.424   4.021  16.716  0.1046 -0.3676  0.2408
   24DOPE  H11A 2976   6.384   3.949  16.641 -0.0676 -1.6486  1.5362
   24DOPE  H11B 2977   6.531   4.008  16.743  0.9150  2.2490 -1.3643
   24DOPE     P 2978   6.479   4.284  16.701  0.1240  0.1396 -0.3616
   24DOPE   O13 2979   6.614   4.248  16.656  0.4422  0.6722  0.2561
   24DOPE   O14 2980   6.460   4.327  16.838 -0.5881  0.1792 -0.1385
   24DOPE   O11 2981   6.436   4.401  16.604 -0.0286  0.4271  0.4011
   24DOPE   O12 2982   6.387   4.151  16.670  0.4309 -0.3299 -0.0034
   24DOPE    C1 2983   6.301   4.412  16.559  0.3214  0.5565  0.3135
   24DOPE    HA 2984   6.284   4.522  16.568  0.3256  0.6615 -0.7485
   24DOPE    HB 2985   6.230   4.347  16.613  0.8623 -1.3433 -1.1667
   24DOPE    C2 2986   6.285   4.373  16.410  0.0677  0.1157  0.5564
   24DOPE    HS 2987   6.179   4.384  16.379  0.2976  1.5385  0.2346
   24DOPE   O21 2988   6.354   4.243  16.393  0.4399  0.2137 -0.3610
   24DOPE   C21 2989   6.269   4.148  16.382 -1.0985  1.1257 -0.0682
   24DOPE   O22 2990   6.151   4.156  16.410  0.0875 -0.0743 -0.1751
   24DOPE   C22 2991   6.339   4.018  16.331  0.3605 -0.2268  0.3216
   24DOPE   H2R 2992   6.274   3.934  16.363  0.1789 -0.0018  0.5435
   24DOPE   H2S 2993   6.436   4.017  16.385 -0.4264 -0.1219  1.7676
   24DOPE    C3 2994   6.370   4.461  16.324  0.1285 -0.1022  0.7120
   24DOPE    HX 2995   6.476   4.430  16.331  0.1162 -0.1997  0.4608
   24DOPE    HY 2996   6.369   4.561  16.372 -0.3716  0.5966 -0.7233
   24DOPE   O31 2997   6.318   4.479  16.191 -0.2294 -0.4592  0.3821
   24DOPE   C31 2998   6.394   4.436  16.088 -0.0694  0.4060 -0.2485
   24DOPE   O32 2999   6.500   4.379  16.103 -0.3205  0.2024 -0.3449
   24DOPE   C32 3000   6.327   4.483  15.954  0.2438  0.0259 -0.6746
   24DOPE   H2X 3001   6.220   4.457  15.971  0.5531 -0.4219  0.6831
   24DOPE   H2Y 3002   6.336   4.594  15.953 -1.6132  0.2648  1.7947
   24DOPE   C23 3003   6.359   4.010  16.180  0.3310 -0.7549  0.5778
   24DOPE   H3R 3004   6.410   3.915  16.155  2.9846  1.1575 -1.9314
   24DOPE   H3S 3005   6.430   4.090  16.149  0.1384  0.9480  3.9688
   24DOPE   C24 3006   6.229   4.021  16.109 -0.2115 -0.3330  0.3000
   24DOPE   H4R 3007   6.177   4.115  16.137  1.2906  0.0590  1.9936
   24DOPE   H4S 3008   6.153   3.943  16.134 -2.7503  1.7474 -0.5524
   24DOPE   C25 3009   6.250   4.018  15.959 -0.1371 -0.3574 -0.4284
   24DOPE   H5R 3010   6.264   3.916  15.918 -0.5217 -0.6498  0.1409
   24DOPE   H5S 3011   6.333   4.090  15.940  0.3016 -0.4719  0.9220
   24DOPE   C26 3012   6.130   4.082  15.874 -0.1714  0.5200 -0.6042
   24DOPE   H6R 3013   6.110   4.184  15.912  1.1097  0.4302  0.3725
   24DOPE   H6S 3014   6.048   4.016  15.907  0.4626 -0.3365 -0.7007
   24DOPE   C27 3015   6.153   4.088  15.718  0.4342 -0.2879 -0.3550
   24DOPE   H7R 3016   6.175   3.988  15.675 -0.7831 -0.6547 -0.1792
   24DOPE   H7S 3017   6.240   4.154  15.703 -0.3999  1.4313  1.8339
   24DOPE   C28 3018   6.032   4.153  15.648  0.3935  0.5477  0.4243
   24DOPE   H8R 3019   6.003   4.249  15.696 -3.0494  0.4965 -1.2401
   24DOPE   H8S 3020   5.947   4.085  15.670 -0.7450  1.7264 -0.2064
   24DOPE   C29 3021   6.067   4.162  15.502 -0.2472 -0.0645  0.3492
   24DOPE   H9R 3022   6.135   4.084  15.465  0.6362  0.5107  0.7253
   24DOPE  C210 3023   6.025   4.250  15.412  0.7671 -0.2331  0.4513
   24DOPE  H10R 3024   6.079   4.258  15.316 -0.6089  1.2856 -0.2462
   24DOPE  C211 3025   5.923   4.363  15.437 -0.0154  0.3730  0.8753
   24DOPE  H11R 3026   5.975   4.461  15.431 -1.7054  1.3293  1.3756
   24DOPE  H11S 3027   5.876   4.354  15.537 -1.8975  0.6232  0.0469
   24DOPE  C212 3028   5.809   4.369  15.330 -0.4935  0.5199  0.5514
   24DOPE  H12R 3029   5.735   4.452  15.341  0.8494  1.8116  0.1959
   24DOPE  H12S 3030   5.744   4.282  15.353 -0.5061 -0.0026 -1.3251
   24DOPE  C213 3031   5.851   4.369  15.186 -0.0844 -0.4019  0.5120
   24DOPE  H13R 3032   5.865   4.261  15.164 -0.1525 -0.1579 -0.7827
   24DOPE  H13S 3033   5.944   4.430  15.172 -1.4279  1.3459 -1.4182
   24DOPE  C214 3034   5.758   4.429  15.076  0.0948 -0.2235 -0.2243
   24DOPE  H14R 3035   5.743   4.535  15.104  0.7779 -0.2442  0.2346
   24DOPE  H14S 3036   5.657   4.383  15.076  0.0191 -0.1889 -2.5621
   24DOPE  C215 3037   5.817   4.405  14.937 -0.2156 -0.5834 -0.0148
   24DOPE  H15R 3038   5.812   4.296  14.912  0.5897 -1.0497  1.6734
   24DOPE  H15S 3039   5.921   4.442  14.931  0.3722 -1.9413  1.2461
   24DOPE  C216 3040   5.730   4.475  14.825 -0.8792 -0.6869 -0.0733
   24DOPE  H16R 3041   5.751   4.583  14.844  2.8664 -0.8928 -2.0219
   24DOPE  H16S 3042   5.624   4.450  14.848 -0.7910 -0.3505  0.7337
   24DOPE  C217 3043   5.784   4.441  14.686 -0.1234  0.2404 -0.2785
   24DOPE  H17R 3044   5.736   4.502  14.606  0.0180  0.4052 -0.2367
   24DOPE  H17S 3045   5.752   4.336  14.668 -0.6533  0.3672 -0.1047
   24DOPE  C218 3046   5.939   4.444  14.656  0.9652  0.3839  0.0256
   24DOPE  H18R 3047   5.969   4.431  14.550 -1.5944 -1.0889 -0.6041
   24DOPE  H18S 3048   5.989   4.361  14.710 -1.9364 -1.8939 -0.5367
   24DOPE  H18T 3049   5.971   4.538  14.707 -0.5343 -0.0207  1.8098
   24DOPE   C33 3050   6.396   4.428  15.822  0.0169 -0.1760  0.0406
   24DOPE   H3X 3051   6.368   4.321  15.808 -2.2192  0.4518 -0.7150
   24DOPE   H3Y 3052   6.507   4.433  15.824  0.0721 -0.5666  2.8707
   24DOPE   C34 3053   6.357   4.492  15.697  0.3961  0.2432 -0.2549
   24DOPE   H4X 3054   6.248   4.513  15.696  0.5019  0.7546 -1.4981
   24DOPE   H4Y 3055   6.408   4.587  15.673 -0.3321  0.4942 -0.8420
   24DOPE   C35 3056   6.389   4.408  15.574  0.0513 -0.1730 -0.0940
   24DOPE   H5X 3057   6.310   4.333  15.550 -0.2401 -0.0480  0.4577
   24DOPE   H5Y 3058   6.489   4.360  15.585  0.0253 -1.3237 -3.6065
   24DOPE   C36 3059   6.404   4.490  15.439  0.2406  0.0410  0.6436
   24DOPE   H6X 3060   6.453   4.588  15.452  0.0475  0.2932 -0.4460
   24DOPE   H6Y 3061   6.305   4.509  15.393  1.3134 -0.3978 -2.0477
   24DOPE   C37 3062   6.485   4.408  15.342 -0.3837  0.0628  0.4172
   24DOPE   H7X 3063   6.585   4.386  15.386  0.5863  1.2403 -1.1089
   24DOPE   H7Y 3064   6.438   4.310  15.319 -0.0529 -0.0304  0.1269
   24DOPE   C38 3065   6.509   4.470  15.206  0.5350 -0.7662  0.1570
   24DOPE   H8X 3066   6.406   4.483  15.166  0.9372  0.1753 -0.6004
   24DOPE   H8Y 3067   6.572   4.392  15.158 -0.1197 -1.4637  0.4088
   24DOPE   C39 3068   6.590   4.598  15.198 -0.1959 -0.0635  0.0075
   24DOPE   H9X 3069   6.534   4.687  15.231  1.7025  1.6819 -1.1914
   24DOPE  C310 3070   6.710   4.614  15.150  0.3662 -0.1263  0.0744
   24DOPE  H10X 3071   6.752   4.716  15.153  0.8500 -0.2658 -1.2072
   24DOPE  C311 3072   6.808   4.510  15.098  0.5449 -0.2047 -0.4966
   24DOPE  H11X 3073   6.906   4.523  15.149  0.0230 -0.7381  0.6894
   24DOPE  H11Y 3074   6.773   4.407  15.122 -0.0474  0.3124  0.9895
   24DOPE  C312 3075   6.830   4.520  14.949 -0.0152 -0.0649 -0.8918
   24DOPE  H12X 3076   6.843   4.625  14.914  1.9843  1.4034  3.5176
   24DOPE  H12Y 3077   6.742   4.480  14.895 -0.5407 -0.5731  0.3009
   24DOPE  C313 3078   6.948   4.440  14.899 -0.3269 -0.0694  0.0769
   24DOPE  H13X 3079   6.968   4.489  14.801 -0.2626 -3.2200 -1.6195
   24DOPE  H13Y 3080   7.035   4.434  14.968  1.3275  0.3148 -1.8949
   24DOPE  C314 3081   6.918   4.287  14.864 -0.0440 -0.2936  0.1643
   24DOPE  H14X 3082   6.823   4.275  14.807 -1.4431  0.7156  2.1477
   24DOPE  H14Y 3083   6.905   4.244  14.966 -0.2718 -1.9356 -0.5223
   24DOPE  C315 3084   7.043   4.228  14.791 -0.0452  0.1951 -0.2992
   24DOPE  H15X 3085   7.061   4.250  14.684 -0.0425 -0.4430 -0.4377
   24DOPE  H15Y 3086   7.021   4.119  14.794 -0.1741  0.2405  0.7581
   24DOPE  C316 3087   7.177   4.252  14.863 -0.5666  0.3540  0.1304
   24DOPE  H16X 3088   7.155   4.237  14.971 -0.2289 -1.6904 -0.0453
   24DOPE  H16Y 3089   7.212   4.357  14.851  0.2340  0.1364  0.5011
   24DOPE  C317 3090   7.294   4.158  14.814  0.7210 -0.0564 -0.3710
   24DOPE  H17X 3091   7.255   4.055  14.828  0.9263 -0.1016 -0.1093
   24DOPE  H17Y 3092   7.301   4.174  14.704  0.3889 -3.4363 -0.9922
   24DOPE  C318 3093   7.426   4.182  14.899  0.7927 -0.1916 -0.0657
   24DOPE  H18X 3094   7.504   4.113  14.860 -0.2430 -2.5604  1.7951
   24DOPE  H18Y 3095   7.453   4.289  14.891  0.6360 -0.0640  1.0627
   24DOPE  H18Z 3096   7.395   4.142  14.998  1.2538  1.2584  0.6910
   25DOPE     N 3097   6.481   5.032  17.076  0.2206  0.5162 -0.7036
   25DOPE   HN1 3098   6.524   4.940  17.099  0.5251  0.3365 -1.9038
   25DOPE   HN2 3099   6.539   5.103  17.125  1.5473 -2.0394  1.6873
   25DOPE   HN3 3100   6.386   5.043  17.117 -0.8454 -2.6040 -2.0365
   25DOPE   C12 3101   6.468   5.053  16.927  0.3446  0.2220 -0.5084
   25DOPE  H12A 3102   6.439   4.953  16.888  0.1800 -0.6311  1.6540
   25DOPE  H12B 3103   6.566   5.082  16.883 -0.5999  0.5183 -2.5475
   25DOPE   C11 3104   6.362   5.163  16.915 -0.2574  0.2918 -0.3050
   25DOPE  H11A 3105   6.269   5.132  16.967 -0.0161 -2.1159 -1.1772
   25DOPE  H11B 3106   6.337   5.181  16.808 -0.8700  2.2419  0.1187
   25DOPE     P 3107   6.490   5.388  16.895 -0.0655 -0.2245 -0.0594
   25DOPE   O13 3108   6.613   5.318  16.839 -0.5765 -0.2227  0.7547
   25DOPE   O14 3109   6.514   5.504  16.985  0.0839 -0.1373  0.2945
   25DOPE   O11 3110   6.383   5.427  16.788 -0.3704 -0.9779 -0.0377
   25DOPE   O12 3111   6.412   5.279  16.977  0.2796  0.1083 -0.0799
   25DOPE    C1 3112   6.256   5.478  16.817 -0.0172 -0.1927 -0.2647
   25DOPE    HA 3113   6.266   5.552  16.900 -1.0536  1.3884 -1.4750
   25DOPE    HB 3114   6.194   5.392  16.849 -0.2397  0.2243  0.4413
   25DOPE    C2 3115   6.186   5.531  16.688  0.2177 -0.5091  0.0876
   25DOPE    HS 3116   6.077   5.553  16.700  0.1919 -0.7956  0.3713
   25DOPE   O21 3117   6.191   5.436  16.582 -0.1180  0.1717  0.1853
   25DOPE   C21 3118   6.109   5.338  16.603 -0.0504 -0.0475 -0.0100
   25DOPE   O22 3119   6.027   5.321  16.693 -0.2313 -0.2175  0.0139
   25DOPE   C22 3120   6.112   5.240  16.480  0.5481 -0.2160  0.0209
   25DOPE   H2R 3121   6.214   5.239  16.435 -0.5723 -0.0963 -2.7241
   25DOPE   H2S 3122   6.047   5.280  16.400 -0.0195  0.0837  0.6280
   25DOPE    C3 3123   6.242   5.667  16.645 -0.0573 -0.0701  0.4108
   25DOPE    HX 3124   6.352   5.653  16.632  0.0655  1.7152 -0.8781
   25DOPE    HY 3125   6.232   5.749  16.718  0.9135 -0.0853  0.5839
   25DOPE   O31 3126   6.184   5.709  16.520  0.2757 -0.1396  0.2791
   25DOPE   C31 3127   6.057   5.750  16.529  0.1905 -0.1181  0.4195
   25DOPE   O32 3128   5.990   5.769  16.630 -0.2339 -0.3897  0.7240
   25DOPE   C32 3129   5.989   5.763  16.386  0.0182  0.2245  0.4209
   25DOPE   H2X 3130   5.981   5.874  16.377  0.5454  0.1940 -0.6139
   25DOPE   H2Y 3131   6.054   5.716  16.309 -0.0575 -0.6708  0.8977
   25DOPE   C23 3132   6.076   5.091  16.514 -0.7596 -0.6480 -0.1058
   25DOPE   H3R 3133   5.983   5.079  16.574  0.3576  0.5878  1.9850
   25DOPE   H3S 3134   6.155   5.045  16.578 -0.2756 -0.0020 -0.2298
   25DOPE   C24 3135   6.050   5.005  16.384  0.4055 -0.1711 -0.5128
   25DOPE   H4R 3136   6.148   4.974  16.344 -0.2430 -0.7067 -1.7336
   25DOPE   H4S 3137   5.996   5.062  16.306  0.0090  0.3235  0.1126
   25DOPE   C25 3138   5.963   4.880  16.415 -0.3973  0.1509 -0.0891
   25DOPE   H5R 3139   5.861   4.914  16.442 -1.1912 -0.7808 -1.7806
   25DOPE   H5S 3140   6.003   4.824  16.502  0.2347  0.4486 -0.1834
   25DOPE   C26 3141   5.955   4.792  16.290 -0.2295  0.1937 -0.2762
   25DOPE   H6R 3142   5.968   4.841  16.192 -0.9183 -1.7826 -1.4196
   25DOPE   H6S 3143   5.851   4.753  16.297 -0.3363  0.5403  0.1289
   25DOPE   C27 3144   6.045   4.662  16.298  0.4266 -0.1514 -0.0487
   25DOPE   H7R 3145   6.034   4.623  16.401 -1.5055 -0.9767 -0.5232
   25DOPE   H7S 3146   6.147   4.702  16.282  0.1668  0.0655 -1.3045
   25DOPE   C28 3147   6.004   4.541  16.203 -0.3773 -0.3694  0.0697
   25DOPE   H8R 3148   6.072   4.454  16.217  0.6706  0.1064 -1.6936
   25DOPE   H8S 3149   6.030   4.582  16.103  0.2538  1.0654  0.8013
   25DOPE   C29 3150   5.862   4.503  16.234  0.9726  0.2761 -0.0376
   25DOPE   H9R 3151   5.832   4.471  16.334 -0.3048  1.1741 -0.1060
   25DOPE  C210 3152   5.755   4.514  16.145  0.2627 -0.6652 -0.6083
   25DOPE  H10R 3153   5.654   4.479  16.172 -0.3728  1.0341 -0.6772
   25DOPE  C211 3154   5.769   4.562  16.003  0.0880  0.5222 -0.0342
   25DOPE  H11R 3155   5.679   4.524  15.951 -1.3746  1.8312  1.4554
   25DOPE  H11S 3156   5.857   4.520  15.948 -0.0126 -0.9014  0.8416
   25DOPE  C212 3157   5.773   4.715  15.974 -0.4207 -0.0580 -0.1269
   25DOPE  H12R 3158   5.865   4.762  16.015 -1.2547  0.6347  0.9881
   25DOPE  H12S 3159   5.692   4.776  16.018 -0.6662  0.3063 -1.0619
   25DOPE  C213 3160   5.768   4.743  15.821 -0.4158  0.2422  0.1969
   25DOPE  H13R 3161   5.800   4.849  15.811 -4.1408  1.5860  0.7717
   25DOPE  H13S 3162   5.660   4.734  15.795 -0.2182  0.3017 -0.6685
   25DOPE  C214 3163   5.845   4.655  15.729  0.1224 -0.1936  0.2556
   25DOPE  H14R 3164   5.789   4.561  15.706 -2.3121  0.9124  1.3214
   25DOPE  H14S 3165   5.945   4.630  15.770 -0.8507 -0.7892  2.4021
   25DOPE  C215 3166   5.866   4.735  15.593 -0.5978  0.2348  0.0498
   25DOPE  H15R 3167   5.931   4.670  15.531  0.4331 -0.1121  1.4348
   25DOPE  H15S 3168   5.919   4.831  15.613 -1.2448  0.7990 -0.8769
   25DOPE  C216 3169   5.734   4.739  15.506 -0.6880 -0.0303  0.5113
   25DOPE  H16R 3170   5.663   4.790  15.576  0.0639 -0.1055  1.3402
   25DOPE  H16S 3171   5.704   4.634  15.488 -0.4580 -0.0541  0.2657
   25DOPE  C217 3172   5.762   4.809  15.380 -0.8492  0.1248 -0.4240
   25DOPE  H17R 3173   5.837   4.741  15.334  0.5008  0.8499  0.6235
   25DOPE  H17S 3174   5.810   4.902  15.416 -0.7021 -0.9596  2.3762
   25DOPE  C218 3175   5.648   4.820  15.283  0.3501 -0.1825 -0.2184
   25DOPE  H18R 3176   5.678   4.882  15.196 -0.2017 -0.8631 -0.9046
   25DOPE  H18S 3177   5.563   4.869  15.336  0.1044 -2.0051  1.1733
   25DOPE  H18T 3178   5.625   4.716  15.249  1.6628 -0.8368  0.8037
   25DOPE   C33 3179   5.838   5.706  16.371 -0.0684  0.8139 -0.2454
   25DOPE   H3X 3180   5.780   5.741  16.283 -1.8554 -1.0421  0.1195
   25DOPE   H3Y 3181   5.771   5.733  16.455  0.4205 -0.2784  0.5111
   25DOPE   C34 3182   5.841   5.554  16.375  0.4631  0.0069 -0.3484
   25DOPE   H4X 3183   5.905   5.525  16.289  0.6537  2.2314 -1.0385
   25DOPE   H4Y 3184   5.879   5.510  16.470 -0.5684 -1.2009 -0.4812
   25DOPE   C35 3185   5.698   5.494  16.334  0.0436  0.5810  0.5365
   25DOPE   H5X 3186   5.678   5.531  16.231 -1.3907 -0.6696  0.3307
   25DOPE   H5Y 3187   5.611   5.529  16.394  0.7142  2.1935  0.6006
   25DOPE   C36 3188   5.707   5.339  16.334  0.3217  0.3228  0.6597
   25DOPE   H6X 3189   5.699   5.318  16.443  2.4876  1.2051  1.0445
   25DOPE   H6Y 3190   5.809   5.305  16.307  0.3430 -3.6289  4.4894
   25DOPE   C37 3191   5.588   5.281  16.248 -0.3783 -0.3979  0.7315
   25DOPE   H7X 3192   5.496   5.308  16.304  0.0175  0.5608  0.9287
   25DOPE   H7Y 3193   5.589   5.342  16.155 -0.2246  0.6050  1.3794
   25DOPE   C38 3194   5.590   5.129  16.235 -0.3130 -0.4756 -0.1995
   25DOPE   H8X 3195   5.609   5.077  16.331  2.5417  1.2234  0.2940
   25DOPE   H8Y 3196   5.692   5.117  16.192 -0.0700 -1.3349  0.5960
   25DOPE   C39 3197   5.479   5.066  16.153  0.1399 -0.1578 -0.4490
   25DOPE   H9X 3198   5.508   5.041  16.050 -0.0285  0.5965 -0.6886
   25DOPE  C310 3199   5.355   5.051  16.213 -0.2098 -0.4969  0.0213
   25DOPE  H10X 3200   5.272   5.014  16.152  0.0957  1.8853 -2.0199
   25DOPE  C311 3201   5.312   5.085  16.350 -0.2167 -0.2295  0.7147
   25DOPE  H11X 3202   5.398   5.113  16.414  2.2196 -0.7953 -2.0707
   25DOPE  H11Y 3203   5.244   5.174  16.353 -1.4942 -1.1434 -0.0664
   25DOPE  C312 3204   5.236   4.981  16.427 -0.3415  0.5107  0.1811
   25DOPE  H12X 3205   5.242   5.011  16.534  1.2702  0.8321  0.0239
   25DOPE  H12Y 3206   5.295   4.887  16.415 -0.4502  0.6991 -2.3135
   25DOPE  C313 3207   5.095   4.950  16.383  0.2572 -0.0651  0.1908
   25DOPE  H13X 3208   5.035   5.043  16.389 -1.5801 -1.1471 -0.5307
   25DOPE  H13Y 3209   5.093   4.904  16.282  1.0083  0.4588 -0.0721
   25DOPE  C314 3210   5.037   4.836  16.474 -0.0517  0.1804  0.5332
   25DOPE  H14X 3211   5.037   4.869  16.580  1.1969 -1.6130  1.1458
   25DOPE  H14Y 3212   5.106   4.750  16.462  0.1693  0.5657 -1.0735
   25DOPE  C315 3213   4.894   4.793  16.444  0.7313 -0.1886  0.4134
   25DOPE  H15X 3214   4.828   4.881  16.464 -0.8826 -1.2660  0.0463
   25DOPE  H15Y 3215   4.848   4.721  16.515  0.0690 -1.4649 -1.2601
   25DOPE  C316 3216   4.864   4.752  16.302 -0.0298 -0.0961  0.3375
   25DOPE  H16X 3217   4.950   4.686  16.278  0.3248  1.0735 -1.9242
   25DOPE  H16Y 3218   4.882   4.836  16.231  2.2928 -1.1420 -0.3813
   25DOPE  C317 3219   4.718   4.682  16.274  0.7606 -0.4223 -0.4912
   25DOPE  H17X 3220   4.711   4.591  16.338 -1.3446  1.9435  2.9579
   25DOPE  H17Y 3221   4.639   4.744  16.320  0.1983 -0.9772 -0.6832
   25DOPE  C318 3222   4.701   4.635  16.128 -0.0166  0.2095 -0.7588
   25DOPE  H18X 3223   4.789   4.573  16.101  1.5244  2.3048 -0.8805
   25DOPE  H18Y 3224   4.605   4.580  16.117 -1.0863  1.5999  1.1154
   25DOPE  H18Z 3225   4.681   4.720  16.058  2.7731  0.1403 -1.7672
   26DOPE     N 3226   6.598   5.748  17.040 -0.0626  0.2703  0.0510
   26DOPE   HN1 3227   6.560   5.651  17.047 -1.8506  0.9209 -0.0275
   26DOPE   HN2 3228   6.700   5.760  17.050  0.0023 -1.6205  2.8004
   26DOPE   HN3 3229   6.561   5.804  17.120 -0.4717  1.3135 -0.8455
   26DOPE   C12 3230   6.545   5.815  16.916 -0.0695  0.1890  0.0075
   26DOPE  H12A 3231   6.435   5.814  16.907 -0.4699 -2.5476  3.2840
   26DOPE  H12B 3232   6.599   5.768  16.831  1.1507 -0.5386  1.1539
   26DOPE   C11 3233   6.583   5.962  16.919 -0.6200  0.9950  0.3081
   26DOPE  H11A 3234   6.569   5.992  16.813  2.1975 -1.2914 -0.8403
   26DOPE  H11B 3235   6.693   5.965  16.932 -0.6591  3.0393  0.5096
   26DOPE     P 3236   6.543   6.196  17.040  0.0717  0.5796  0.0079
   26DOPE   O13 3237   6.679   6.219  17.093  0.5076  0.1855  0.6597
   26DOPE   O14 3238   6.437   6.262  17.117  0.1068  0.1566  0.0346
   26DOPE   O11 3239   6.533   6.245  16.884  1.0059  0.3447  0.2983
   26DOPE   O12 3240   6.512   6.037  17.019 -0.0381  0.0764  0.7240
   26DOPE    C1 3241   6.404   6.281  16.832  0.5854 -0.2939 -0.6801
   26DOPE    HA 3242   6.379   6.389  16.841 -0.9753  0.0633 -5.8348
   26DOPE    HB 3243   6.327   6.219  16.881 -0.8615  0.9675 -1.2579
   26DOPE    C2 3244   6.394   6.257  16.680 -0.2699  0.0129 -0.5761
   26DOPE    HS 3245   6.392   6.148  16.660  2.8078  0.2117 -2.6459
   26DOPE   O21 3246   6.502   6.316  16.619  0.1062 -0.3000 -0.2999
   26DOPE   C21 3247   6.606   6.243  16.591 -0.2523 -0.3735 -0.4864
   26DOPE   O22 3248   6.620   6.123  16.601  0.4186  0.5920  0.0694
   26DOPE   C22 3249   6.716   6.324  16.532  0.4216 -0.5085 -0.2804
   26DOPE   H2R 3250   6.795   6.337  16.610  1.0137  2.0055 -1.1818
   26DOPE   H2S 3251   6.677   6.425  16.507 -0.0832 -0.2308  1.5047
   26DOPE    C3 3252   6.270   6.319  16.611 -0.0489 -0.3357 -0.7710
   26DOPE    HX 3253   6.267   6.429  16.627 -5.1068 -0.2205 -0.8288
   26DOPE    HY 3254   6.184   6.265  16.657 -0.2631  0.1536 -0.5929
   26DOPE   O31 3255   6.272   6.291  16.469  0.3928  0.7944  0.3994
   26DOPE   C31 3256   6.237   6.164  16.431 -0.2007 -0.6274  1.4406
   26DOPE   O32 3257   6.178   6.084  16.501 -0.1346  0.3398 -0.0252
   26DOPE   C32 3258   6.294   6.138  16.287 -0.8317 -0.1391 -0.4225
   26DOPE   H2X 3259   6.212   6.167  16.218 -1.2668  1.5946  0.7603
   26DOPE   H2Y 3260   6.381   6.206  16.268 -2.0087  1.1741 -1.3005
   26DOPE   C23 3261   6.782   6.265  16.408  0.3547  0.1864  0.5445
   26DOPE   H3R 3262   6.704   6.223  16.340  0.3053 -1.2789  1.4694
   26DOPE   H3S 3263   6.853   6.187  16.441  1.4953  1.3450  0.8919
   26DOPE   C24 3264   6.868   6.344  16.319 -0.1992 -0.3706  0.8077
   26DOPE   H4R 3265   6.965   6.375  16.365 -0.1767  0.1047  0.4474
   26DOPE   H4S 3266   6.814   6.429  16.271  0.5031 -0.0219  0.6151
   26DOPE   C25 3267   6.906   6.259  16.195 -0.2755 -0.6016 -0.7159
   26DOPE   H5R 3268   6.808   6.238  16.146 -1.6239  3.5021 -0.1953
   26DOPE   H5S 3269   6.954   6.164  16.228  0.5430  0.6815  2.0231
   26DOPE   C26 3270   6.997   6.337  16.108  0.0164 -0.1552  0.4094
   26DOPE   H6R 3271   7.085   6.375  16.166  0.5361 -0.5087 -0.1297
   26DOPE   H6S 3272   6.942   6.421  16.061  0.0975  0.3007  1.1100
   26DOPE   C27 3273   7.055   6.252  15.994  0.4604  0.0386 -0.1827
   26DOPE   H7R 3274   6.972   6.191  15.953  0.0871  0.0456  0.5594
   26DOPE   H7S 3275   7.115   6.169  16.036  0.9778  0.3158 -0.3626
   26DOPE   C28 3276   7.114   6.332  15.874  0.3091  0.0233 -0.6921
   26DOPE   H8R 3277   7.046   6.413  15.838 -1.5151 -0.2482  1.8636
   26DOPE   H8S 3278   7.137   6.262  15.790  3.1911 -0.8962  0.7658
   26DOPE   C29 3279   7.234   6.409  15.916  0.0213 -0.4076 -0.0968
   26DOPE   H9R 3280   7.226   6.492  15.988  0.9356  0.5114 -1.0185
   26DOPE  C210 3281   7.359   6.388  15.874  0.2225  0.0686  0.1265
   26DOPE  H10R 3282   7.440   6.452  15.912  2.3215 -1.3210 -1.7158
   26DOPE  C211 3283   7.405   6.282  15.783  0.0649 -0.5675  0.8858
   26DOPE  H11R 3284   7.440   6.327  15.688 -2.4846  1.0104  0.6270
   26DOPE  H11S 3285   7.332   6.207  15.744  0.1478  0.0630 -0.5561
   26DOPE  C212 3286   7.530   6.211  15.836 -0.3681 -0.2449  0.6546
   26DOPE  H12R 3287   7.600   6.293  15.865 -0.6696  1.0270 -1.8710
   26DOPE  H12S 3288   7.580   6.152  15.757 -0.8385 -0.3515  0.4321
   26DOPE  C213 3289   7.506   6.120  15.953  0.3107  0.3012  0.2341
   26DOPE  H13R 3290   7.455   6.168  16.039 -0.7561  0.2392 -0.3463
   26DOPE  H13S 3291   7.606   6.089  15.989  1.0440  1.0122 -1.0817
   26DOPE  C214 3292   7.411   5.996  15.926 -0.0411  0.2732  0.3699
   26DOPE  H14R 3293   7.311   6.034  15.897 -0.5494 -1.9094 -1.0309
   26DOPE  H14S 3294   7.405   5.939  16.021  1.7966 -0.2075  0.2450
   26DOPE  C215 3295   7.464   5.902  15.815 -0.1601 -0.1954 -0.4816
   26DOPE  H15R 3296   7.565   5.865  15.843 -0.8234 -1.6379  0.1416
   26DOPE  H15S 3297   7.478   5.966  15.726  2.3902  3.6784  2.3998
   26DOPE  C216 3298   7.368   5.787  15.778 -1.0956 -0.6536 -0.2901
   26DOPE  H16R 3299   7.267   5.832  15.764 -0.6777  0.6945  0.8173
   26DOPE  H16S 3300   7.357   5.716  15.863  0.9617  0.5088  1.0263
   26DOPE  C217 3301   7.416   5.706  15.656 -0.0623  0.1449  0.4887
   26DOPE  H17R 3302   7.526   5.712  15.663 -0.0301  0.3540 -0.1770
   26DOPE  H17S 3303   7.397   5.763  15.563 -1.2213  0.5671  0.9556
   26DOPE  C218 3304   7.378   5.560  15.648  0.0980 -0.4353  0.2957
   26DOPE  H18R 3305   7.418   5.509  15.739 -1.2231  1.3712  1.9928
   26DOPE  H18S 3306   7.416   5.506  15.559 -0.1258 -0.2310  0.0774
   26DOPE  H18T 3307   7.268   5.550  15.647 -0.1402  1.7569 -0.0097
   26DOPE   C33 3308   6.334   5.990  16.268  0.6780  0.4391  1.0005
   26DOPE   H3X 3309   6.258   5.915  16.299 -0.4364  0.4743 -1.4777
   26DOPE   H3Y 3310   6.420   5.977  16.337 -1.1426  1.5752  3.6524
   26DOPE   C34 3311   6.384   5.955  16.129 -0.1858  0.3553  0.5500
   26DOPE   H4X 3312   6.387   5.845  16.111  3.1711  0.6262 -1.2776
   26DOPE   H4Y 3313   6.320   6.003  16.052 -1.5935  0.8779  1.9787
   26DOPE   C35 3314   6.530   5.993  16.114  0.8746  0.4000 -0.0156
   26DOPE   H5X 3315   6.589   5.943  16.194  0.9734  0.3182 -0.1390
   26DOPE   H5Y 3316   6.548   6.102  16.122  1.3263  0.4752 -1.6614
   26DOPE   C36 3317   6.587   5.943  15.984 -0.4394 -0.0625  0.2484
   26DOPE   H6X 3318   6.540   5.983  15.891 -2.3167 -1.8477  0.3544
   26DOPE   H6Y 3319   6.562   5.835  15.972  0.4711 -0.2484 -0.0646
   26DOPE   C37 3320   6.736   5.958  15.987  0.0169 -0.3986  0.0320
   26DOPE   H7X 3321   6.752   6.068  15.976 -3.3939  0.6308  3.1005
   26DOPE   H7Y 3322   6.781   5.931  16.084 -0.8193 -1.4976  0.1333
   26DOPE   C38 3323   6.816   5.872  15.888  0.1501 -0.1025 -0.1521
   26DOPE   H8X 3324   6.779   5.899  15.787  1.7003  0.0127 -0.7209
   26DOPE   H8Y 3325   6.789   5.765  15.900  2.3765 -0.9725 -2.0850
   26DOPE   C39 3326   6.963   5.889  15.895 -0.1701  0.2216  0.3492
   26DOPE   H9X 3327   6.998   5.984  15.852 -0.8101 -0.6597 -2.3066
   26DOPE  C310 3328   7.048   5.794  15.950 -0.0747  1.0712  0.6860
   26DOPE  H10X 3329   7.157   5.810  15.950  0.2008 -0.5975 -0.7129
   26DOPE  C311 3330   7.009   5.655  15.985 -0.0590 -0.5143 -0.1066
   26DOPE  H11X 3331   7.062   5.631  16.080  0.6048 -1.1445 -0.6228
   26DOPE  H11Y 3332   6.902   5.643  16.013  0.4752 -2.3792  1.3207
   26DOPE  C312 3333   7.056   5.552  15.889 -0.0066 -0.2186  0.4448
   26DOPE  H12X 3334   7.151   5.585  15.842  0.2947  1.0609  1.8753
   26DOPE  H12Y 3335   6.980   5.543  15.809 -0.0198  0.5282  0.3620
   26DOPE  C313 3336   7.082   5.412  15.947 -0.3882 -0.1093 -0.3373
   26DOPE  H13X 3337   7.154   5.355  15.884  0.7835 -0.3225  1.1438
   26DOPE  H13Y 3338   7.124   5.440  16.046 -3.2580 -0.0416  0.9670
   26DOPE  C314 3339   6.950   5.334  15.981 -1.0202  0.2371  0.6426
   26DOPE  H14X 3340   6.877   5.408  16.022 -1.3454  0.6060 -0.5807
   26DOPE  H14Y 3341   6.977   5.263  16.062 -0.2449 -0.3041 -0.0889
   26DOPE  C315 3342   6.908   5.261  15.848  0.1333  0.4098 -0.3222
   26DOPE  H15X 3343   6.964   5.166  15.834 -0.9302 -0.4583  1.1106
   26DOPE  H15Y 3344   6.943   5.320  15.761  0.6344  0.2815 -0.2136
   26DOPE  C316 3345   6.757   5.215  15.846  0.1773 -0.7176  0.2519
   26DOPE  H16X 3346   6.701   5.311  15.837  0.2685 -0.6569  0.3226
   26DOPE  H16Y 3347   6.723   5.171  15.942 -2.3664  2.8943  1.2683
   26DOPE  C317 3348   6.720   5.129  15.720  0.8143 -0.2476 -0.5597
   26DOPE  H17X 3349   6.754   5.175  15.625 -1.1502  0.5211 -0.9385
   26DOPE  H17Y 3350   6.760   5.029  15.746 -0.9999 -1.1638 -1.1007
   26DOPE  C318 3351   6.566   5.134  15.710  0.5547  0.7026 -0.1692
   26DOPE  H18X 3352   6.517   5.110  15.807 -0.4110  0.6321 -0.6544
   26DOPE  H18Y 3353   6.542   5.233  15.666  1.2176  0.2275 -1.6932
   26DOPE  H18Z 3354   6.536   5.050  15.643  1.8735 -0.8189  1.0833
   27DOPE     N 3355   5.532   0.859  16.698 -0.3168  0.3117 -0.8188
   27DOPE   HN1 3356   5.528   0.791  16.619 -0.2308 -2.4499  1.4140
   27DOPE   HN2 3357   5.629   0.895  16.703 -0.8413  1.8367 -1.2026
   27DOPE   HN3 3358   5.525   0.802  16.785 -1.4647  0.4924 -0.7785
   27DOPE   C12 3359   5.421   0.958  16.685 -0.6436 -0.1806  0.2038
   27DOPE  H12A 3360   5.419   1.014  16.589  1.1997 -1.9393 -0.9586
   27DOPE  H12B 3361   5.446   1.021  16.773 -1.5966 -0.3400  0.6023
   27DOPE   C11 3362   5.292   0.883  16.720 -0.0249  0.1777 -0.2454
   27DOPE  H11A 3363   5.267   0.813  16.637  1.4484 -1.7245  0.8240
   27DOPE  H11B 3364   5.212   0.959  16.736  0.0998  0.2299  0.1294
   27DOPE     P 3365   5.178   0.733  16.900 -0.1040  0.2525 -0.1876
   27DOPE   O13 3366   5.065   0.826  16.897  0.6205 -0.7409  0.1005
   27DOPE   O14 3367   5.210   0.681  17.038 -0.3760 -0.6923 -0.4241
   27DOPE   O11 3368   5.166   0.610  16.799 -0.1733 -0.4022  0.0002
   27DOPE   O12 3369   5.311   0.812  16.844  0.0968 -0.0738 -0.1984
   27DOPE    C1 3370   5.273   0.519  16.767 -0.7452 -0.2001 -0.7572
   27DOPE    HA 3371   5.313   0.480  16.864  1.5351 -1.0897 -1.9844
   27DOPE    HB 3372   5.356   0.570  16.714  0.3721 -1.1197  0.0351
   27DOPE    C2 3373   5.227   0.388  16.682  0.0886  0.6183  0.5191
   27DOPE    HS 3374   5.311   0.352  16.619 -1.3961  0.1874 -1.2882
   27DOPE   O21 3375   5.114   0.430  16.604  0.5335  0.6665  0.2767
   27DOPE   C21 3376   5.145   0.523  16.504  0.8853  0.4359 -0.2931
   27DOPE   O22 3377   5.254   0.547  16.464 -0.6360  0.0923  0.0770
   27DOPE   C22 3378   5.007   0.580  16.453 -0.0498 -0.0895 -0.0366
   27DOPE   H2R 3379   4.981   0.667  16.516  0.4046  1.0957 -1.4436
   27DOPE   H2S 3380   4.938   0.495  16.472 -0.0184 -0.3764 -1.1075
   27DOPE    C3 3381   5.184   0.267  16.762 -1.0192 -0.6111  0.8526
   27DOPE    HX 3382   5.102   0.283  16.835 -1.7618 -0.4917  0.0108
   27DOPE    HY 3383   5.268   0.240  16.828 -1.5903  0.5562  2.1095
   27DOPE   O31 3384   5.163   0.155  16.675  0.4952  0.0984  0.4003
   27DOPE   C31 3385   5.043   0.124  16.644  0.0102 -0.3348  0.1090
   27DOPE   O32 3386   4.938   0.158  16.710 -0.2030 -0.3384  0.0683
   27DOPE   C32 3387   5.050   0.020  16.531  0.3453 -0.1964 -1.0979
   27DOPE   H2X 3388   5.143  -0.039  16.545  1.0101  0.7437 -1.4433
   27DOPE   H2Y 3389   4.964  -0.048  16.547 -0.6349  1.3887  0.6445
   27DOPE   C23 3390   5.017   0.620  16.301 -0.2050  0.2982  0.3762
   27DOPE   H3R 3391   4.915   0.653  16.270 -0.0011  0.4011 -0.1894
   27DOPE   H3S 3392   5.046   0.537  16.233 -0.1209  0.2290  0.4961
   27DOPE   C24 3393   5.107   0.742  16.261 -0.4963  0.3601  0.8295
   27DOPE   H4R 3394   5.081   0.776  16.158 -1.1758  0.4545  1.0279
   27DOPE   H4S 3395   5.213   0.711  16.270 -0.1381  1.9581  2.7406
   27DOPE   C25 3396   5.087   0.865  16.353 -0.3409 -0.1521 -0.0165
   27DOPE   H5R 3397   5.097   0.828  16.458  1.5884 -0.6241 -0.3408
   27DOPE   H5S 3398   4.987   0.914  16.360 -0.4768 -0.4633  0.2724
   27DOPE   C26 3399   5.183   0.980  16.326 -0.3473  0.1031 -0.3117
   27DOPE   H6R 3400   5.149   1.017  16.227  0.4299  2.0947  0.1132
   27DOPE   H6S 3401   5.285   0.938  16.313 -1.2812 -2.2317 -0.5200
   27DOPE   C27 3402   5.185   1.101  16.416 -0.0495 -0.6913  0.8319
   27DOPE   H7R 3403   5.217   1.069  16.518  0.6342 -0.1414  0.7998
   27DOPE   H7S 3404   5.080   1.132  16.431 -1.0679 -3.3891 -0.1515
   27DOPE   C28 3405   5.270   1.215  16.359  0.2252  0.3234 -0.5507
   27DOPE   H8R 3406   5.214   1.239  16.266 -2.4520 -2.7995  0.0844
   27DOPE   H8S 3407   5.373   1.175  16.344  0.2664  0.1213  0.2363
   27DOPE   C29 3408   5.273   1.339  16.452  0.7778  0.2790  0.4659
   27DOPE   H9R 3409   5.306   1.320  16.555 -0.6984  0.0782  0.9260
   27DOPE  C210 3410   5.217   1.463  16.432  0.4609  0.2033  0.3881
   27DOPE  H10R 3411   5.219   1.542  16.509  0.1325 -0.5568  1.2012
   27DOPE  C211 3412   5.150   1.509  16.309 -0.0098 -0.4938 -0.4110
   27DOPE  H11R 3413   5.059   1.555  16.353 -1.3703  0.4620 -3.8921
   27DOPE  H11S 3414   5.120   1.432  16.236  0.9362  1.0064 -2.5002
   27DOPE  C212 3415   5.227   1.617  16.240 -1.0038 -0.4577 -0.0584
   27DOPE  H12R 3416   5.329   1.580  16.217 -1.0154 -1.2038  1.0125
   27DOPE  H12S 3417   5.247   1.702  16.309  0.1814 -0.4144 -0.4279
   27DOPE  C213 3418   5.166   1.674  16.112  0.2309 -0.0881  0.5168
   27DOPE  H13R 3419   5.082   1.742  16.139  1.6956  1.8310  0.4137
   27DOPE  H13S 3420   5.126   1.584  16.061  0.0032 -0.0270  0.5832
   27DOPE  C214 3421   5.266   1.749  16.025  0.4116  0.0790 -0.3267
   27DOPE  H14R 3422   5.215   1.764  15.927  1.1021  2.0355 -0.4190
   27DOPE  H14S 3423   5.359   1.691  16.010  0.3200 -0.2642  0.3850
   27DOPE  C215 3424   5.307   1.879  16.088  0.3895 -0.4578  0.0222
   27DOPE  H15R 3425   5.369   1.852  16.176 -0.6102 -0.7075  0.6782
   27DOPE  H15S 3426   5.229   1.943  16.136  1.9590  0.8243  0.9646
   27DOPE  C216 3427   5.385   1.965  15.999 -0.4623 -0.2286  0.7359
   27DOPE  H16R 3428   5.375   2.071  16.032 -0.4510 -0.0834  0.2856
   27DOPE  H16S 3429   5.327   1.968  15.904 -0.2281  1.8441  0.5928
   27DOPE  C217 3430   5.534   1.937  15.973  1.0577 -0.3590 -0.6213
   27DOPE  H17R 3431   5.542   1.830  15.942  1.9233  0.3733 -3.1163
   27DOPE  H17S 3432   5.584   1.954  16.071 -1.4062 -0.6739  0.7742
   27DOPE  C218 3433   5.593   2.028  15.864  0.1729 -0.0750 -0.3911
   27DOPE  H18R 3434   5.523   2.113  15.851  0.2110  0.1844  0.9119
   27DOPE  H18S 3435   5.595   1.978  15.765 -2.2507  0.5062 -0.7921
   27DOPE  H18T 3436   5.696   2.059  15.892  0.7751 -1.8627 -0.4481
   27DOPE   C33 3437   5.038   0.083  16.391 -0.4506  0.1963 -0.7271
   27DOPE   H3X 3438   4.940   0.136  16.388  0.2705  1.6991  0.7342
   27DOPE   H3Y 3439   5.038  -0.005  16.323  4.1131 -1.1929  0.7594
   27DOPE   C34 3440   5.158   0.173  16.361 -0.1291 -0.3253  0.0306
   27DOPE   H4X 3441   5.166   0.251  16.440  0.2462 -0.9248  0.5971
   27DOPE   H4Y 3442   5.252   0.115  16.369 -0.2150 -0.7605 -1.6712
   27DOPE   C35 3443   5.152   0.233  16.223  0.2963  0.5067 -0.4228
   27DOPE   H5X 3444   5.060   0.295  16.219  0.5208  0.9401  0.7789
   27DOPE   H5Y 3445   5.128   0.153  16.149  1.4336 -1.7921  1.5373
   27DOPE   C36 3446   5.278   0.310  16.190 -0.0084 -0.3497  0.4548
   27DOPE   H6X 3447   5.366   0.242  16.187  0.4943  0.2825  0.7598
   27DOPE   H6Y 3448   5.302   0.370  16.280 -0.7979 -0.0181  0.4511
   27DOPE   C37 3449   5.285   0.394  16.058 -0.2830 -0.0275  0.2056
   27DOPE   H7X 3450   5.273   0.325  15.972  3.4658 -0.0146 -0.5126
   27DOPE   H7Y 3451   5.202   0.467  16.069 -2.3622 -2.0870 -0.9955
   27DOPE   C38 3452   5.421   0.463  16.033 -0.0684  0.4306  0.3785
   27DOPE   H8X 3453   5.431   0.513  15.935 -0.7237 -0.1067  0.0297
   27DOPE   H8Y 3454   5.494   0.380  16.025  1.5677  1.5536  2.6529
   27DOPE   C39 3455   5.470   0.547  16.148  0.3005  0.5003  0.0873
   27DOPE   H9X 3456   5.387   0.582  16.211 -0.9738 -0.1454 -1.1740
   27DOPE  C310 3457   5.596   0.571  16.183  0.4344 -0.2764  0.4269
   27DOPE  H10X 3458   5.611   0.640  16.266  1.7324 -0.9494  0.7751
   27DOPE  C311 3459   5.722   0.518  16.115  0.8394  0.0193 -0.7242
   27DOPE  H11X 3460   5.812   0.490  16.173  1.0807 -1.3538 -1.7236
   27DOPE  H11Y 3461   5.695   0.420  16.070 -0.6661 -0.0082  0.1506
   27DOPE  C312 3462   5.769   0.610  15.997  0.2475 -0.1342 -0.9727
   27DOPE  H12X 3463   5.807   0.702  16.046 -3.2310  0.8746  0.0829
   27DOPE  H12Y 3464   5.680   0.644  15.941  0.0583 -1.8451 -1.7885
   27DOPE  C313 3465   5.870   0.535  15.903  0.0938  0.3056 -0.1904
   27DOPE  H13X 3466   5.938   0.470  15.963 -0.9297 -0.4081  0.2197
   27DOPE  H13Y 3467   5.809   0.462  15.846  0.1791 -0.8999  1.1880
   27DOPE  C314 3468   5.953   0.633  15.820  0.2146 -0.2883 -0.3149
   27DOPE  H14X 3469   5.986   0.718  15.884 -0.5196  0.9058 -1.4695
   27DOPE  H14Y 3470   5.878   0.676  15.750 -0.1904 -0.0920  0.2292
   27DOPE  C315 3471   6.071   0.566  15.759  0.0798  0.5243 -0.1714
   27DOPE  H15X 3472   6.102   0.630  15.675  2.5472  0.8779  0.9235
   27DOPE  H15Y 3473   6.038   0.471  15.711 -0.0124 -0.2853  1.4003
   27DOPE  C316 3474   6.197   0.541  15.846 -0.1270  0.1127 -0.3391
   27DOPE  H16X 3475   6.194   0.441  15.895  2.9439  0.6442  1.2058
   27DOPE  H16Y 3476   6.204   0.613  15.930  0.3469  0.5921 -0.7856
   27DOPE  C317 3477   6.325   0.532  15.762  0.1168  0.2867  0.5575
   27DOPE  H17X 3478   6.320   0.623  15.698 -3.0822 -0.6775 -0.8109
   27DOPE  H17Y 3479   6.411   0.534  15.832 -0.8122  1.7812  1.7287
   27DOPE  C318 3480   6.323   0.409  15.670 -0.7594  0.6165 -0.3369
   27DOPE  H18X 3481   6.327   0.320  15.737  1.0417  1.2535  0.4593
   27DOPE  H18Y 3482   6.228   0.403  15.612 -1.8960 -2.6005  1.5666
   27DOPE  H18Z 3483   6.414   0.403  15.607 -0.9950 -0.3938 -0.6022
   28DOPE     N 3484   6.860   5.259  16.938 -0.2551 -0.3661  0.6275
   28DOPE   HN1 3485   6.861   5.158  16.965 -0.9440 -1.6283 -3.4298
   28DOPE   HN2 3486   6.772   5.288  16.889  0.7243  1.4794 -0.1347
   28DOPE   HN3 3487   6.928   5.260  16.859 -1.2515 -2.7326 -0.3754
   28DOPE   C12 3488   6.899   5.345  17.060  0.6199 -0.2203 -0.2807
   28DOPE  H12A 3489   7.010   5.345  17.048  0.5772  1.2419 -0.8643
   28DOPE  H12B 3490   6.868   5.292  17.153 -0.1471  0.4213 -0.1683
   28DOPE   C11 3491   6.847   5.488  17.065 -0.0489 -0.3919 -0.6789
   28DOPE  H11A 3492   6.905   5.535  17.148  2.4764  0.1437 -2.6405
   28DOPE  H11B 3493   6.739   5.476  17.090  0.3994 -0.5655  1.3961
   28DOPE     P 3494   6.939   5.687  16.915  0.3200 -0.0356 -0.0788
   28DOPE   O13 3495   7.088   5.672  16.932 -0.2386  0.1638  0.2084
   28DOPE   O14 3496   6.880   5.794  16.998  0.3500  0.1246  0.6931
   28DOPE   O11 3497   6.903   5.718  16.766  0.2237  0.0765  0.9119
   28DOPE   O12 3498   6.873   5.546  16.941  0.4917 -0.5452 -0.1680
   28DOPE    C1 3499   6.921   5.617  16.666  0.8436  0.6962  0.2799
   28DOPE    HA 3500   6.877   5.521  16.701 -1.7700  2.1384  1.1984
   28DOPE    HB 3501   7.030   5.613  16.647  0.7079  0.5941 -0.5322
   28DOPE    C2 3502   6.833   5.648  16.530 -0.1912  0.2709 -0.5134
   28DOPE    HS 3503   6.853   5.559  16.467 -0.0245  0.8917 -1.3410
   28DOPE   O21 3504   6.885   5.769  16.474 -0.5115  0.1452 -0.5798
   28DOPE   C21 3505   7.009   5.762  16.423 -0.3551  0.1930  0.1518
   28DOPE   O22 3506   7.072   5.660  16.402  0.1787 -0.4769  0.0658
   28DOPE   C22 3507   7.054   5.898  16.400  0.0255 -0.0854  0.1086
   28DOPE   H2R 3508   7.070   5.954  16.495  0.6362  2.0981 -1.2181
   28DOPE   H2S 3509   6.985   5.948  16.330  0.7117 -1.9118 -1.9682
   28DOPE    C3 3510   6.679   5.657  16.563  0.5842  0.1518  0.0848
   28DOPE    HX 3511   6.663   5.737  16.638  0.5605 -0.0485  0.2942
   28DOPE    HY 3512   6.644   5.560  16.606 -1.6542  1.0322  0.3505
   28DOPE   O31 3513   6.605   5.669  16.437 -0.6156 -0.1041 -0.0224
   28DOPE   C31 3514   6.559   5.558  16.377  0.1915  1.1237  0.1259
   28DOPE   O32 3515   6.594   5.444  16.395 -0.4484  0.3306  0.3657
   28DOPE   C32 3516   6.451   5.589  16.275  0.3029  0.2010 -0.0495
   28DOPE   H2X 3517   6.403   5.672  16.332  0.4609  0.0086  0.3707
   28DOPE   H2Y 3518   6.509   5.634  16.192 -0.5307 -0.8426 -1.2312
   28DOPE   C23 3519   7.186   5.903  16.323  0.8024  0.0552 -0.3204
   28DOPE   H3R 3520   7.216   6.004  16.288 -0.0504 -0.1358 -1.6725
   28DOPE   H3S 3521   7.168   5.839  16.234 -0.7509 -0.0711  0.0653
   28DOPE   C24 3522   7.320   5.846  16.390 -0.2730 -0.8569 -0.0237
   28DOPE   H4R 3523   7.313   5.739  16.419  1.5730 -0.5175  1.8971
   28DOPE   H4S 3524   7.353   5.895  16.484  2.4072  0.2582 -1.4202
   28DOPE   C25 3525   7.436   5.878  16.295  0.1268 -0.5838 -0.1746
   28DOPE   H5R 3526   7.446   5.988  16.280 -0.7370 -0.7035 -1.9082
   28DOPE   H5S 3527   7.421   5.831  16.195  0.5465 -2.2833  0.5269
   28DOPE   C26 3528   7.569   5.819  16.356  0.3358 -0.2537 -0.2160
   28DOPE   H6R 3529   7.573   5.709  16.373  2.2860 -0.7474 -2.9891
   28DOPE   H6S 3530   7.577   5.852  16.461  1.6186 -1.2100  0.0211
   28DOPE   C27 3531   7.694   5.856  16.273 -0.0064 -0.2909 -0.2330
   28DOPE   H7R 3532   7.785   5.837  16.334  0.1493  2.1665  0.4140
   28DOPE   H7S 3533   7.688   5.966  16.260 -1.5315 -0.2043  0.8879
   28DOPE   C28 3534   7.695   5.789  16.131  0.0504 -0.2325  0.5064
   28DOPE   H8R 3535   7.599   5.814  16.082 -0.4723 -0.3331  1.4574
   28DOPE   H8S 3536   7.702   5.684  16.168 -1.6461  0.3291  2.6031
   28DOPE   C29 3537   7.805   5.825  16.037 -0.2478  0.3129 -0.5227
   28DOPE   H9R 3538   7.837   5.929  16.026  0.7763 -0.0954 -1.6536
   28DOPE  C210 3539   7.880   5.734  15.972 -0.1101  0.4403  0.0639
   28DOPE  H10R 3540   7.953   5.774  15.900  0.4360  0.9300  0.8660
   28DOPE  C211 3541   7.861   5.584  15.990  0.2304 -0.1443  0.1086
   28DOPE  H11R 3542   7.753   5.557  15.991  0.5649 -1.5673  0.5673
   28DOPE  H11S 3543   7.903   5.546  16.085  0.4667 -1.3581 -0.4563
   28DOPE  C212 3544   7.939   5.510  15.873  0.2529 -0.7284  0.3934
   28DOPE  H12R 3545   7.916   5.402  15.881 -1.7129 -0.3548  0.2451
   28DOPE  H12S 3546   8.048   5.523  15.890  0.2820  0.1310 -0.3838
   28DOPE  C213 3547   7.899   5.554  15.731 -1.1547 -0.1853 -0.2444
   28DOPE  H13R 3548   7.971   5.635  15.705 -0.6796 -0.1691  1.0452
   28DOPE  H13S 3549   7.801   5.606  15.733 -0.0181  2.0796  1.3884
   28DOPE  C214 3550   7.908   5.440  15.639  0.4659 -0.5514 -0.3779
   28DOPE  H14R 3551   7.825   5.372  15.669 -1.1653  0.8906 -1.4190
   28DOPE  H14S 3552   8.013   5.404  15.646  1.7627  2.9807  0.3305
   28DOPE  C215 3553   7.876   5.487  15.494  0.0526  0.1080  0.1887
   28DOPE  H15R 3554   7.929   5.583  15.476 -1.4855  0.9968  0.2092
   28DOPE  H15S 3555   7.770   5.515  15.476  0.2498  0.7241 -0.0240
   28DOPE  C216 3556   7.908   5.376  15.395 -0.6297 -0.6386 -0.3992
   28DOPE  H16R 3557   7.835   5.294  15.416 -2.8082  0.8206 -1.7789
   28DOPE  H16S 3558   8.010   5.342  15.423 -0.0893  2.1414  1.3453
   28DOPE  C217 3559   7.911   5.411  15.252 -0.5090 -0.0916 -0.2043
   28DOPE  H17R 3560   7.950   5.512  15.229 -2.6532  0.2228 -3.1081
   28DOPE  H17S 3561   7.804   5.407  15.221 -0.2604 -1.9555 -0.9583
   28DOPE  C218 3562   7.981   5.309  15.163 -0.6124 -0.1158 -0.0219
   28DOPE  H18R 3563   8.083   5.286  15.201 -0.2772 -1.0513 -1.3974
   28DOPE  H18S 3564   7.990   5.340  15.057  0.6935  3.2946  0.9778
   28DOPE  H18T 3565   7.925   5.213  15.158 -0.2334 -0.6571  3.5300
   28DOPE   C33 3566   6.364   5.468  16.231 -0.0400 -0.6296 -0.4819
   28DOPE   H3X 3567   6.279   5.517  16.179  1.4358  1.9464 -0.6803
   28DOPE   H3Y 3568   6.332   5.417  16.324  1.4007  1.0076  0.9982
   28DOPE   C34 3569   6.437   5.370  16.137  0.0043  0.4692 -0.0619
   28DOPE   H4X 3570   6.497   5.435  16.069 -1.9942  2.3199 -0.1377
   28DOPE   H4Y 3571   6.506   5.305  16.195  0.7673  0.4439 -0.9597
   28DOPE   C35 3572   6.335   5.295  16.049  0.5670  0.5655  0.1373
   28DOPE   H5X 3573   6.391   5.244  15.968  0.5265  0.6488  0.0574
   28DOPE   H5Y 3574   6.262   5.358  15.994 -0.5765 -0.3333  0.5877
   28DOPE   C36 3575   6.253   5.188  16.119 -0.6781  0.6058 -0.1987
   28DOPE   H6X 3576   6.174   5.237  16.180 -1.3352 -0.9604  0.2619
   28DOPE   H6Y 3577   6.320   5.133  16.188 -0.0344 -0.9103 -1.9303
   28DOPE   C37 3578   6.187   5.083  16.028 -0.4102 -0.1167  0.0376
   28DOPE   H7X 3579   6.098   5.054  16.087  0.8931 -2.1720  1.0924
   28DOPE   H7Y 3580   6.145   5.141  15.943  1.0441  0.9898  0.0484
   28DOPE   C38 3581   6.281   4.975  15.980 -0.1559 -0.1784 -0.0646
   28DOPE   H8X 3582   6.340   4.936  16.066  0.8733 -0.8114 -1.0443
   28DOPE   H8Y 3583   6.347   5.024  15.906  0.4646  0.3507  0.8276
   28DOPE   C39 3584   6.210   4.857  15.915  0.0531 -0.4787 -0.0053
   28DOPE   H9X 3585   6.167   4.785  15.986 -0.5836  2.3991  2.7132
   28DOPE  C310 3586   6.182   4.850  15.783  0.5784  0.0749 -0.3299
   28DOPE  H10X 3587   6.118   4.771  15.739 -1.2586  0.6825  1.1119
   28DOPE  C311 3588   6.210   4.964  15.691  0.5925  0.6590 -0.1861
   28DOPE  H11X 3589   6.118   5.003  15.643  1.4875  1.2107 -1.5186
   28DOPE  H11Y 3590   6.263   5.055  15.726 -0.9552  1.6328 -0.2882
   28DOPE  C312 3591   6.288   4.913  15.567  0.3824 -0.8154 -0.0994
   28DOPE  H12X 3592   6.382   4.866  15.602 -0.5618 -1.2276  2.0484
   28DOPE  H12Y 3593   6.317   5.004  15.509  1.8591 -0.8450  0.5412
   28DOPE  C313 3594   6.211   4.815  15.485  0.6173  0.3664 -0.0567
   28DOPE  H13X 3595   6.195   4.715  15.530  0.4339 -0.3937 -1.7259
   28DOPE  H13Y 3596   6.107   4.854  15.472  0.8389  0.5645 -1.4767
   28DOPE  C314 3597   6.265   4.791  15.345 -0.3616 -0.3009  0.5579
   28DOPE  H14X 3598   6.357   4.729  15.345  1.1720  1.8482 -0.1202
   28DOPE  H14Y 3599   6.304   4.885  15.300 -0.0590 -0.0149  1.3942
   28DOPE  C315 3600   6.151   4.733  15.260  0.0534 -0.2108  0.4034
   28DOPE  H15X 3601   6.083   4.820  15.265  0.7078  0.2686  1.2008
   28DOPE  H15Y 3602   6.099   4.645  15.305 -0.0443  0.7086  2.2160
   28DOPE  C316 3603   6.188   4.713  15.114 -0.0733  0.2795 -0.3637
   28DOPE  H16X 3604   6.258   4.628  15.103 -1.3192 -0.8589  0.1730
   28DOPE  H16Y 3605   6.247   4.803  15.086  2.1049 -0.2602  2.0965
   28DOPE  C317 3606   6.074   4.682  15.015 -0.5777 -0.5521 -0.6571
   28DOPE  H17X 3607   6.112   4.682  14.911 -1.1247  1.9360 -0.9003
   28DOPE  H17Y 3608   6.032   4.584  15.047 -1.7833  0.1442 -0.0694
   28DOPE  C318 3609   5.975   4.792  15.016  0.3137 -0.4434 -0.9062
   28DOPE  H18X 3610   6.022   4.891  15.000  0.4671 -0.5483 -1.1086
   28DOPE  H18Y 3611   5.905   4.785  14.929 -2.4622 -1.4160  1.2335
   28DOPE  H18Z 3612   5.918   4.806  15.111  0.1339 -2.2795 -0.7001
   29DOPE     N 3613   7.337   7.075  17.336  0.8245  0.8261  0.4518
   29DOPE   HN1 3614   7.341   6.989  17.394 -2.7777 -2.0127 -2.9442
   29DOPE   HN2 3615   7.296   7.057  17.242 -1.3895 -1.0971  1.6889
   29DOPE   HN3 3616   7.431   7.094  17.294  0.7875 -2.6064 -1.5297
   29DOPE   C12 3617   7.261   7.188  17.399 -0.3871 -0.7837 -0.7075
   29DOPE  H12A 3618   7.297   7.200  17.504  1.7812 -1.6617 -1.2893
   29DOPE  H12B 3619   7.151   7.170  17.397 -0.2068 -2.2881  0.4945
   29DOPE   C11 3620   7.288   7.304  17.307  0.2769  0.2001 -0.6389
   29DOPE  H11A 3621   7.219   7.384  17.342 -1.1376 -1.7517  1.3498
   29DOPE  H11B 3622   7.265   7.274  17.203 -1.0520 -0.3383 -0.2112
   29DOPE     P 3623   7.477   7.482  17.258  0.0264  0.4458 -0.2488
   29DOPE   O13 3624   7.616   7.503  17.297 -0.5292  0.0329 -0.8914
   29DOPE   O14 3625   7.390   7.583  17.307  0.8186 -0.5178  0.1617
   29DOPE   O11 3626   7.466   7.476  17.104  0.2976  0.4817  0.3827
   29DOPE   O12 3627   7.429   7.342  17.314  0.5100  0.3517 -1.0612
   29DOPE    C1 3628   7.495   7.356  17.024  0.3352  0.1467  0.3747
   29DOPE    HA 3629   7.447   7.267  17.071 -0.3235  2.1374  3.8781
   29DOPE    HB 3630   7.600   7.340  16.995 -0.2886 -1.2201 -1.2391
   29DOPE    C2 3631   7.422   7.369  16.881 -0.4334 -0.4577 -0.8045
   29DOPE    HS 3632   7.408   7.269  16.836  0.2466 -0.8221 -0.2412
   29DOPE   O21 3633   7.499   7.453  16.790  0.2841  0.0845  0.0690
   29DOPE   C21 3634   7.607   7.396  16.744 -0.0681 -0.1716  0.1119
   29DOPE   O22 3635   7.635   7.278  16.749 -0.2161  0.4746 -0.3388
   29DOPE   C22 3636   7.706   7.491  16.677  0.9259 -0.3769  0.1449
   29DOPE   H2R 3637   7.773   7.437  16.608  1.4977  1.9121 -1.1894
   29DOPE   H2S 3638   7.770   7.545  16.750  2.9282 -1.2112 -0.9342
   29DOPE    C3 3639   7.275   7.427  16.905 -0.3913 -0.4715  0.2325
   29DOPE    HX 3640   7.287   7.537  16.896  1.6017 -0.6525  0.1345
   29DOPE    HY 3641   7.233   7.399  17.003 -1.8867 -1.4343 -0.6372
   29DOPE   O31 3642   7.182   7.372  16.802 -0.3265  0.4183 -0.3091
   29DOPE   C31 3643   7.138   7.248  16.823  0.0973 -0.3932 -0.2012
   29DOPE   O32 3644   7.161   7.184  16.924  0.0415 -0.4999  0.1149
   29DOPE   C32 3645   7.070   7.189  16.694  0.0635  0.6248  0.3354
   29DOPE   H2X 3646   7.149   7.194  16.616  0.9803 -1.6980  1.0328
   29DOPE   H2Y 3647   7.045   7.083  16.710  1.6061  0.1168 -0.3999
   29DOPE   C23 3648   7.635   7.609  16.592  0.0112  0.6995  0.2421
   29DOPE   H3R 3649   7.555   7.651  16.657 -0.4864  0.6262 -0.3095
   29DOPE   H3S 3650   7.595   7.550  16.506  0.4789  0.3150  0.2872
   29DOPE   C24 3651   7.714   7.730  16.556 -0.7977 -0.4240  0.6764
   29DOPE   H4R 3652   7.808   7.701  16.504 -1.3174  1.6092 -1.6040
   29DOPE   H4S 3653   7.737   7.783  16.650 -0.1457 -1.3372  1.0479
   29DOPE   C25 3654   7.639   7.825  16.466  0.3442  0.6499  0.1634
   29DOPE   H5R 3655   7.534   7.832  16.501 -0.2892 -4.0828 -0.1402
   29DOPE   H5S 3656   7.631   7.777  16.367  1.0672 -0.9727  0.8549
   29DOPE   C26 3657   7.694   7.966  16.466 -0.5954  0.5131 -0.2656
   29DOPE   H6R 3658   7.804   7.968  16.446 -0.9048 -0.4581 -2.2419
   29DOPE   H6S 3659   7.680   7.994  16.573  0.5405  0.0051  0.0368
   29DOPE   C27 3660   7.629   8.065  16.361 -0.2004 -0.1185  0.0426
   29DOPE   H7R 3661   7.542   8.118  16.404 -0.4079  0.3678 -0.9370
   29DOPE   H7S 3662   7.595   7.998  16.279  1.2615 -1.0696  0.1664
   29DOPE   C28 3663   7.732   8.171  16.304 -0.6337  0.4486 -0.0618
   29DOPE   H8R 3664   7.813   8.120  16.247 -2.1707  0.2275 -2.1280
   29DOPE   H8S 3665   7.769   8.234  16.388 -0.8459  0.4159  0.0579
   29DOPE   C29 3666   7.659   8.259  16.210  0.1429  0.1909 -0.0279
   29DOPE   H9R 3667   7.606   8.338  16.264 -1.1650  0.4400 -1.5994
   29DOPE  C210 3668   7.648   8.252  16.077 -0.1501  0.5844  0.5344
   29DOPE  H10R 3669   7.567   8.309  16.028 -2.2498  0.1444  3.2446
   29DOPE  C211 3670   7.698   8.147  15.979  0.7387 -0.4550  0.4501
   29DOPE  H11R 3671   7.708   8.051  16.034 -1.0341 -0.7559  0.2882
   29DOPE  H11S 3672   7.797   8.177  15.938  1.2967 -1.3843  1.0799
   29DOPE  C212 3673   7.600   8.131  15.857 -0.4055  0.1607  0.1082
   29DOPE  H12R 3674   7.650   8.055  15.794  1.8239  0.5465  1.3361
   29DOPE  H12S 3675   7.582   8.227  15.802  0.3309 -0.0644 -0.5382
   29DOPE  C213 3676   7.453   8.085  15.886  0.4215  0.0191  1.2808
   29DOPE  H13R 3677   7.411   8.173  15.939 -2.2973  0.4439 -1.3230
   29DOPE  H13S 3678   7.449   7.991  15.946  2.3941 -2.0532 -1.5421
   29DOPE  C214 3679   7.378   8.063  15.755 -0.4252 -0.5540 -0.0945
   29DOPE  H14R 3680   7.431   7.985  15.697  1.0114  1.1683 -1.1744
   29DOPE  H14S 3681   7.388   8.151  15.689 -0.1234 -2.2870 -2.4698
   29DOPE  C215 3682   7.235   8.041  15.774 -0.5049 -0.0080 -0.2732
   29DOPE  H15R 3683   7.173   8.129  15.802 -3.5373 -1.7155 -1.1862
   29DOPE  H15S 3684   7.228   7.972  15.861 -2.3813  0.5151  0.0219
   29DOPE  C216 3685   7.169   7.970  15.656  0.0267  0.6202 -0.3116
   29DOPE  H16R 3686   7.074   7.921  15.689  0.0806  1.4735  1.1901
   29DOPE  H16S 3687   7.235   7.886  15.625  0.7694  0.6357  1.1367
   29DOPE  C217 3688   7.138   8.066  15.542  0.3438  1.1089  0.4574
   29DOPE  H17R 3689   7.233   8.102  15.498  1.4973 -0.3125  1.6875
   29DOPE  H17S 3690   7.083   8.155  15.579  0.8251  1.3947  0.4872
   29DOPE  C218 3691   7.046   8.000  15.435  0.3216 -0.0993  0.0147
   29DOPE  H18R 3692   7.001   8.078  15.370 -0.1854  0.6141  1.1921
   29DOPE  H18S 3693   6.954   7.950  15.471 -0.8792  1.2463 -1.0589
   29DOPE  H18T 3694   7.098   7.930  15.367  0.1465 -0.0875 -0.1325
   29DOPE   C33 3695   6.939   7.266  16.660  0.1587  0.1659 -0.4064
   29DOPE   H3X 3696   6.935   7.377  16.663  0.4402  0.1493  1.2719
   29DOPE   H3Y 3697   6.873   7.237  16.744  1.5825 -0.9232  0.3693
   29DOPE   C34 3698   6.875   7.223  16.523  0.3753 -0.4350  0.6420
   29DOPE   H4X 3699   6.865   7.115  16.499 -0.3249 -0.0193 -1.1436
   29DOPE   H4Y 3700   6.775   7.272  16.516  1.5266  2.1505  1.1441
   29DOPE   C35 3701   6.968   7.282  16.415 -0.3426 -0.3563  0.5830
   29DOPE   H5X 3702   7.049   7.207  16.398 -1.5646 -1.4403 -0.8223
   29DOPE   H5Y 3703   7.015   7.378  16.445  0.0123 -0.6205  0.8832
   29DOPE   C36 3704   6.895   7.316  16.283 -0.3656  0.8220  0.0339
   29DOPE   H6X 3705   6.838   7.411  16.296 -0.9459  0.3984  0.6450
   29DOPE   H6Y 3706   6.817   7.241  16.258  1.4431 -1.0527 -0.2929
   29DOPE   C37 3707   6.993   7.315  16.163 -0.3438  0.1967  0.5330
   29DOPE   H7X 3708   7.063   7.400  16.177 -1.0522  0.6455  1.4436
   29DOPE   H7Y 3709   7.041   7.215  16.172 -3.3339 -1.6484 -2.0605
   29DOPE   C38 3710   6.925   7.331  16.021 -0.8373  0.4722 -0.7359
   29DOPE   H8X 3711   6.880   7.431  16.006 -0.0343  1.1567  1.1740
   29DOPE   H8Y 3712   6.852   7.247  16.023  1.4924 -1.6920  0.3092
   29DOPE   C39 3713   7.021   7.298  15.907 -0.3183 -0.3354  0.3808
   29DOPE   H9X 3714   7.054   7.193  15.910 -1.7402 -0.7729  1.0928
   29DOPE  C310 3715   7.074   7.382  15.811  0.0957 -0.5052 -0.0979
   29DOPE  H10X 3716   7.147   7.341  15.739  1.0313 -0.1854  0.6471
   29DOPE  C311 3717   7.046   7.533  15.787 -0.0153  0.5175  0.2828
   29DOPE  H11X 3718   6.968   7.567  15.859 -0.9338  0.8704 -0.8465
   29DOPE  H11Y 3719   7.128   7.608  15.797  0.3795  0.2128 -0.6112
   29DOPE  C312 3720   7.001   7.547  15.643  0.2935  0.0500 -0.7148
   29DOPE  H12X 3721   6.987   7.656  15.632  2.2893  0.4276 -0.0344
   29DOPE  H12Y 3722   6.904   7.493  15.631 -0.7879  1.8357 -0.3149
   29DOPE  C313 3723   7.107   7.510  15.543  0.0564  1.0224  0.1483
   29DOPE  H13X 3724   7.202   7.556  15.577  0.1446  1.0830 -0.1800
   29DOPE  H13Y 3725   7.123   7.400  15.539  0.4456  1.1114 -1.4788
   29DOPE  C314 3726   7.073   7.559  15.396 -0.1193 -0.7059 -0.1757
   29DOPE  H14X 3727   7.006   7.646  15.411 -0.4979 -0.9465 -0.4555
   29DOPE  H14Y 3728   7.025   7.482  15.332  0.1389 -0.7659 -0.2982
   29DOPE  C315 3729   7.190   7.609  15.315 -0.2130 -0.7744 -0.2308
   29DOPE  H15X 3730   7.255   7.674  15.378 -0.0835  0.5774 -1.6718
   29DOPE  H15Y 3731   7.146   7.668  15.231 -0.9214 -0.1913  0.5374
   29DOPE  C316 3732   7.255   7.488  15.251 -0.1855  0.1140 -0.1316
   29DOPE  H16X 3733   7.192   7.452  15.167  1.6208 -0.7004 -1.1967
   29DOPE  H16Y 3734   7.282   7.404  15.320  2.9987  0.6128 -0.6114
   29DOPE  C317 3735   7.388   7.531  15.180 -0.1328  0.1380  0.6623
   29DOPE  H17X 3736   7.362   7.624  15.125 -0.4039  1.5616  3.0580
   29DOPE  H17Y 3737   7.462   7.563  15.256  1.1224 -0.6720 -0.1692
   29DOPE  C318 3738   7.449   7.424  15.092 -0.5828 -0.8703  0.2288
   29DOPE  H18X 3739   7.402   7.425  14.991 -1.3546 -0.1233  0.5810
   29DOPE  H18Y 3740   7.559   7.433  15.083 -0.9013  1.1137 -3.8794
   29DOPE  H18Z 3741   7.430   7.323  15.135  2.3590 -1.9056 -0.6569
   30DOPE     N 3742   0.174   6.868  17.324  0.7859  0.2592  0.1871
   30DOPE   HN1 3743   0.221   6.807  17.394 -1.7708 -0.5185  1.3594
   30DOPE   HN2 3744   0.221   6.961  17.326  0.9616  0.1611  0.9430
   30DOPE   HN3 3745   0.078   6.879  17.364  0.7599 -0.4242  0.3309
   30DOPE   C12 3746   0.181   6.795  17.200  0.0387  1.0225  0.0955
   30DOPE  H12A 3747   0.286   6.760  17.189 -0.0375  0.4445  1.0605
   30DOPE  H12B 3748   0.147   6.866  17.122 -1.9715  2.9264  2.5358
   30DOPE   C11 3749   0.088   6.671  17.206  0.1869  0.4757  0.2421
   30DOPE  H11A 3750   0.126   6.607  17.288 -2.2503  0.5783  1.5487
   30DOPE  H11B 3751   0.099   6.611  17.114  0.0281 -1.0715  1.1903
   30DOPE     P 3752  -0.151   6.738  17.139  0.5411  0.0620  0.2443
   30DOPE   O13 3753  -0.103   6.851  17.050  0.0840 -0.0211 -0.2445
   30DOPE   O14 3754  -0.282   6.753  17.214  0.0295  0.0633 -0.2621
   30DOPE   O11 3755  -0.156   6.602  17.060  0.2840 -0.5255 -0.1209
   30DOPE   O12 3756  -0.043   6.710  17.246  0.2264 -1.1184 -0.2353
   30DOPE    C1 3757  -0.115   6.584  16.928 -0.3214 -0.3433  0.0447
   30DOPE    HA 3758  -0.059   6.488  16.932  0.0123 -0.2378 -1.6010
   30DOPE    HB 3759  -0.046   6.665  16.896 -3.0464  2.2031  0.2088
   30DOPE    C2 3760  -0.235   6.581  16.828 -0.0579 -0.2905 -0.6245
   30DOPE    HS 3761  -0.193   6.556  16.728  0.7032  3.2469 -1.3315
   30DOPE   O21 3762  -0.302   6.705  16.826 -0.9622  0.1894 -0.3782
   30DOPE   C21 3763  -0.226   6.796  16.765  0.9887  0.3141  0.9343
   30DOPE   O22 3764  -0.124   6.772  16.700  0.7489  0.1894  0.1748
   30DOPE   C22 3765  -0.293   6.927  16.776 -0.0243 -0.3777 -0.4255
   30DOPE   H2R 3766  -0.268   6.970  16.875  0.5717 -4.7874  1.5571
   30DOPE   H2S 3767  -0.403   6.916  16.788 -0.0262 -0.2639 -0.3393
   30DOPE    C3 3768  -0.337   6.476  16.880  1.5809 -0.6031  0.9225
   30DOPE    HX 3769  -0.393   6.518  16.966 -2.6042 -3.4666 -0.0592
   30DOPE    HY 3770  -0.290   6.381  16.912 -1.6940 -2.7440 -0.1027
   30DOPE   O31 3771  -0.441   6.458  16.776  0.1847 -0.1047 -0.4210
   30DOPE   C31 3772  -0.395   6.377  16.674 -0.0600 -0.1620 -0.0422
   30DOPE   O32 3773  -0.292   6.311  16.670 -0.2485  0.7135 -0.4044
   30DOPE   C32 3774  -0.487   6.388  16.555 -0.0806  0.1112 -0.0811
   30DOPE   H2X 3775  -0.465   6.293  16.501 -1.9371 -0.1817 -0.4085
   30DOPE   H2Y 3776  -0.591   6.402  16.591 -0.3244  0.5909 -0.9409
   30DOPE   C23 3777  -0.267   7.024  16.658 -0.4315  0.3997 -0.0075
   30DOPE   H3R 3778  -0.159   7.038  16.640 -0.6492  2.7550  0.1560
   30DOPE   H3S 3779  -0.296   7.126  16.693  1.8097  0.8385  0.6923
   30DOPE   C24 3780  -0.328   6.986  16.521  0.1556  0.1758  0.1192
   30DOPE   H4R 3781  -0.438   6.976  16.528  0.2488  0.2973  4.1766
   30DOPE   H4S 3782  -0.289   6.888  16.484 -0.7560  0.4765 -1.7534
   30DOPE   C25 3783  -0.303   7.097  16.421  0.5795  0.0852  0.4926
   30DOPE   H5R 3784  -0.195   7.123  16.425  0.5230  0.2715  0.7902
   30DOPE   H5S 3785  -0.371   7.183  16.438  0.3156 -0.2495  1.1739
   30DOPE   C26 3786  -0.332   7.036  16.281  0.0714  0.4829 -0.2212
   30DOPE   H6R 3787  -0.439   7.008  16.275  0.1707 -1.1409  3.4501
   30DOPE   H6S 3788  -0.279   6.941  16.255 -0.2648 -0.1370  1.3009
   30DOPE   C27 3789  -0.304   7.129  16.163  0.1104 -0.2816 -0.1070
   30DOPE   H7R 3790  -0.195   7.146  16.150  0.0583  1.7697  1.5617
   30DOPE   H7S 3791  -0.342   7.232  16.181 -1.2080  0.0584 -3.9335
   30DOPE   C28 3792  -0.366   7.101  16.023  0.0846  0.6479 -0.8345
   30DOPE   H8R 3793  -0.351   7.196  15.967 -1.4516  2.0718  1.0454
   30DOPE   H8S 3794  -0.474   7.089  16.043  0.6270 -1.7303  1.1274
   30DOPE   C29 3795  -0.315   6.972  15.957  0.4926 -0.3034  0.9250
   30DOPE   H9R 3796  -0.209   6.945  15.970  0.3083 -1.0587  0.8775
   30DOPE  C210 3797  -0.389   6.882  15.884  0.1780 -0.2044 -0.2519
   30DOPE  H10R 3798  -0.341   6.807  15.820 -1.3126  1.5340 -3.6616
   30DOPE  C211 3799  -0.535   6.905  15.850 -0.3105  0.3994  0.5731
   30DOPE  H11R 3800  -0.553   6.922  15.742  3.7144  2.4548  0.0493
   30DOPE  H11S 3801  -0.572   7.002  15.891 -0.4916  0.1194  1.0924
   30DOPE  C212 3802  -0.622   6.789  15.906  0.1281  0.1024 -0.5052
   30DOPE  H12R 3803  -0.600   6.691  15.859  2.0154 -0.3632  1.1833
   30DOPE  H12S 3804  -0.727   6.818  15.884 -0.3703  0.9806  2.5510
   30DOPE  C213 3805  -0.633   6.777  16.057 -0.3913  0.3982  0.1352
   30DOPE  H13R 3806  -0.533   6.765  16.103  0.3238  2.4669 -0.7368
   30DOPE  H13S 3807  -0.690   6.684  16.076  0.5607 -0.5637 -1.4510
   30DOPE  C214 3808  -0.705   6.894  16.126 -0.6806  1.2517  0.4233
   30DOPE  H14R 3809  -0.805   6.913  16.081 -0.3017 -1.1513 -1.6856
   30DOPE  H14S 3810  -0.637   6.980  16.107 -0.1554  0.8382  0.3929
   30DOPE  C215 3811  -0.710   6.891  16.276 -0.0606  0.7379  0.3413
   30DOPE  H15R 3812  -0.728   6.995  16.310  0.7356  0.7665  0.7072
   30DOPE  H15S 3813  -0.611   6.860  16.316 -0.5927 -0.2784  0.9129
   30DOPE  C216 3814  -0.815   6.793  16.330  0.4811 -0.0106  0.8178
   30DOPE  H16R 3815  -0.802   6.693  16.283 -0.6345  0.5136 -0.7372
   30DOPE  H16S 3816  -0.917   6.823  16.297  0.6847  0.5926  0.7273
   30DOPE  C217 3817  -0.822   6.794  16.487 -0.4310  0.3207  0.8322
   30DOPE  H17R 3818  -0.917   6.742  16.513  0.3569 -0.9570  1.2964
   30DOPE  H17S 3819  -0.812   6.898  16.523  1.4072 -0.7718  3.9443
   30DOPE  C218 3820  -0.711   6.713  16.549 -0.9720 -0.2292 -0.0751
   30DOPE  H18R 3821  -0.727   6.716  16.659 -0.9856 -0.6800 -0.0657
   30DOPE  H18S 3822  -0.609   6.740  16.515 -1.2851 -0.1753 -1.0094
   30DOPE  H18T 3823  -0.722   6.607  16.519  0.4220 -1.0541  2.0738
   30DOPE   C33 3824  -0.446   6.508  16.455 -0.4372 -0.4482  0.3325
   30DOPE   H3X 3825  -0.431   6.597  16.520 -3.6394  0.1626  0.3760
   30DOPE   H3Y 3826  -0.533   6.524  16.388  1.0037  1.8626 -1.1455
   30DOPE   C34 3827  -0.315   6.492  16.375 -0.3765  0.2341 -0.1592
   30DOPE   H4X 3828  -0.231   6.507  16.447  1.1022 -0.8523 -1.5728
   30DOPE   H4Y 3829  -0.296   6.390  16.335  0.5888 -0.0876  1.0446
   30DOPE   C35 3830  -0.286   6.603  16.277  0.1470  1.0120 -0.4467
   30DOPE   H5X 3831  -0.259   6.696  16.332 -1.9659  1.7907 -0.6460
   30DOPE   H5Y 3832  -0.377   6.627  16.219  1.1106  1.0364 -2.0013
   30DOPE   C36 3833  -0.179   6.562  16.174 -0.5469  1.2448 -0.2402
   30DOPE   H6X 3834  -0.214   6.466  16.129 -0.5533  1.1050  0.0650
   30DOPE   H6Y 3835  -0.084   6.545  16.229  0.3625  2.6379 -1.3098
   30DOPE   C37 3836  -0.156   6.662  16.068  0.8081  0.5022  0.1997
   30DOPE   H7X 3837  -0.243   6.665  15.999 -0.4351 -1.2584  1.5977
   30DOPE   H7Y 3838  -0.152   6.763  16.115 -3.5042  1.2675 -0.6563
   30DOPE   C38 3839  -0.029   6.636  15.986  0.0176  0.0906 -0.4288
   30DOPE   H8X 3840  -0.012   6.531  15.954  0.3780  0.4186 -1.3679
   30DOPE   H8Y 3841   0.057   6.642  16.056 -0.2936 -3.1127  0.3540
   30DOPE   C39 3842  -0.019   6.732  15.865  0.2568 -0.6559  0.0346
   30DOPE   H9X 3843  -0.084   6.820  15.866 -0.4203 -1.0599  3.6282
   30DOPE  C310 3844   0.064   6.703  15.761 -0.4509  0.3238 -0.2397
   30DOPE  H10X 3845   0.049   6.761  15.669 -1.2051 -1.1081 -1.0479
   30DOPE  C311 3846   0.162   6.590  15.754 -0.8963 -0.9775  0.0232
   30DOPE  H11X 3847   0.264   6.631  15.771 -1.5980  1.0058 -0.2423
   30DOPE  H11Y 3848   0.147   6.521  15.840  0.0424  1.0753  1.9459
   30DOPE  C312 3849   0.156   6.525  15.619 -0.2536  0.2470  0.2595
   30DOPE  H12X 3850   0.244   6.459  15.607 -0.2119  0.6919 -2.4123
   30DOPE  H12Y 3851   0.170   6.604  15.542  0.1616 -0.2261 -0.1520
   30DOPE  C313 3852   0.036   6.430  15.587 -0.0178 -0.3556 -0.4881
   30DOPE  H13X 3853   0.036   6.367  15.678 -0.1993  1.0973  0.5664
   30DOPE  H13Y 3854  -0.068   6.470  15.586 -0.4069 -1.3570 -1.2743
   30DOPE  C314 3855   0.046   6.354  15.458  0.5046 -0.6568  0.8981
   30DOPE  H14X 3856   0.144   6.303  15.449  1.6979  1.8509 -2.4698
   30DOPE  H14Y 3857   0.054   6.427  15.374  0.8754 -2.9030 -1.1244
   30DOPE  C315 3858  -0.067   6.256  15.436  0.1119  0.3869 -0.2816
   30DOPE  H15X 3859  -0.170   6.297  15.440  0.6370  1.9412 -1.5496
   30DOPE  H15Y 3860  -0.064   6.177  15.515  0.6157  0.3746 -0.3101
   30DOPE  C316 3861  -0.064   6.192  15.295 -0.6744  0.3002 -0.2305
   30DOPE  H16X 3862  -0.145   6.116  15.297  0.0576 -0.5649 -1.6441
   30DOPE  H16Y 3863   0.034   6.138  15.290  0.5907  2.1895  2.0708
   30DOPE  C317 3864  -0.077   6.270  15.169  0.5632 -0.6248 -0.2319
   30DOPE  H17X 3865  -0.177   6.318  15.179  0.9960 -0.1043  2.0454
   30DOPE  H17Y 3866  -0.006   6.355  15.167 -0.0472 -0.0821  0.5596
   30DOPE  C318 3867  -0.065   6.200  15.038  0.1240  0.7073 -0.4991
   30DOPE  H18X 3868  -0.115   6.101  15.039  1.5074 -0.0073 -0.0397
   30DOPE  H18Y 3869  -0.118   6.257  14.958 -1.5881 -0.6262 -0.3704
   30DOPE  H18Z 3870   0.041   6.177  15.012 -0.5610 -0.8889 -2.1444
   31DOPE     N 3871   1.358   2.923  12.995  0.0226 -0.4952  0.6040
   31DOPE   HN1 3872   1.360   2.821  12.974 -0.4253 -0.1468 -1.3904
   31DOPE   HN2 3873   1.457   2.952  13.013  0.4801 -2.5263  1.6290
   31DOPE   HN3 3874   1.301   2.947  13.079  1.0828 -1.0529  1.5028
   31DOPE   C12 3875   1.297   2.985  12.868 -0.0574 -0.4471 -0.2014
   31DOPE  H12A 3876   1.189   2.961  12.867  0.6827 -4.5049 -0.4176
   31DOPE  H12B 3877   1.344   2.945  12.776 -2.0056  0.3063 -1.5878
   31DOPE   C11 3878   1.310   3.141  12.859 -0.8152  0.9182  0.5223
   31DOPE  H11A 3879   1.256   3.170  12.766  0.9578  2.5103 -0.0655
   31DOPE  H11B 3880   1.419   3.154  12.844 -0.5214 -1.3922  0.2151
   31DOPE     P 3881   1.242   3.369  12.966  0.1839 -0.2506  0.0824
   31DOPE   O13 3882   1.096   3.400  12.996 -0.3017  0.4189  0.5861
   31DOPE   O14 3883   1.295   3.424  12.838  0.1390  0.1543 -0.2789
   31DOPE   O11 3884   1.331   3.414  13.084 -0.0259  0.0900 -0.1943
   31DOPE   O12 3885   1.270   3.218  12.971  0.0272  0.1356 -0.1628
   31DOPE    C1 3886   1.462   3.363  13.102  0.1719 -0.1898  0.1176
   31DOPE    HA 3887   1.534   3.444  13.126  2.6336 -0.8822 -4.0293
   31DOPE    HB 3888   1.505   3.309  13.015 -1.4655 -0.4488 -0.5645
   31DOPE    C2 3889   1.463   3.246  13.212 -0.2941  0.2135  0.2026
   31DOPE    HS 3890   1.408   3.161  13.167 -0.6177  1.3126 -1.5632
   31DOPE   O21 3891   1.390   3.287  13.325  0.0543  0.2273 -0.5062
   31DOPE   C21 3892   1.327   3.195  13.393 -0.4687 -0.2974 -0.0553
   31DOPE   O22 3893   1.324   3.075  13.372  0.1664 -0.0870 -0.7766
   31DOPE   C22 3894   1.239   3.261  13.501 -0.1864  0.3461 -0.3944
   31DOPE   H2R 3895   1.198   3.176  13.560 -1.7970  0.2324 -1.6034
   31DOPE   H2S 3896   1.150   3.303  13.450  0.1148  1.1996 -0.2393
   31DOPE    C3 3897   1.611   3.202  13.257 -0.3504 -0.6322 -0.2916
   31DOPE    HX 3898   1.649   3.294  13.306 -1.0900 -1.0594  1.1138
   31DOPE    HY 3899   1.671   3.178  13.166  0.4930  2.9187 -0.8260
   31DOPE   O31 3900   1.623   3.099  13.358 -0.4689  0.4214  0.1972
   31DOPE   C31 3901   1.596   2.980  13.318 -0.5460 -0.0209 -0.3658
   31DOPE   O32 3902   1.559   2.946  13.206 -0.1997 -0.2742  0.6863
   31DOPE   C32 3903   1.606   2.882  13.433 -0.3543 -0.6359  0.1605
   31DOPE   H2X 3904   1.702   2.827  13.426  0.3985  0.7565 -1.0094
   31DOPE   H2Y 3905   1.607   2.933  13.532  0.2115 -0.5515  0.1149
   31DOPE   C23 3906   1.308   3.364  13.592  0.6755  0.2400  0.5658
   31DOPE   H3R 3907   1.343   3.452  13.534 -2.0234  0.6018 -0.6655
   31DOPE   H3S 3908   1.396   3.326  13.648  0.0996 -0.6751  0.8675
   31DOPE   C24 3909   1.190   3.416  13.678 -0.0604 -0.2678  0.2845
   31DOPE   H4R 3910   1.097   3.401  13.620 -0.3706  1.4018  0.3206
   31DOPE   H4S 3911   1.207   3.520  13.713  1.0886 -0.5788  0.7138
   31DOPE   C25 3912   1.188   3.324  13.795 -0.4961 -0.4019  0.8957
   31DOPE   H5R 3913   1.281   3.336  13.855  1.2948  1.0682 -1.9313
   31DOPE   H5S 3914   1.194   3.219  13.758  0.5054 -0.6699  1.7629
   31DOPE   C26 3915   1.064   3.334  13.887  0.4138  0.6075  0.2912
   31DOPE   H6R 3916   1.044   3.238  13.940  1.4841  0.7825  1.0512
   31DOPE   H6S 3917   0.983   3.359  13.815  0.2547 -2.9582 -0.9569
   31DOPE   C27 3918   1.076   3.437  14.000  0.0217  0.5778 -0.1670
   31DOPE   H7R 3919   1.121   3.525  13.948  1.5020  1.3410  2.2720
   31DOPE   H7S 3920   1.161   3.404  14.063  0.6960 -0.3339 -1.5145
   31DOPE   C28 3921   0.942   3.489  14.055 -0.1610 -0.4082 -0.4942
   31DOPE   H8R 3922   0.879   3.527  13.971 -1.0301  1.2497  0.8321
   31DOPE   H8S 3923   0.967   3.581  14.113 -1.0327 -0.0952 -0.5953
   31DOPE   C29 3924   0.867   3.380  14.131  0.0442 -0.7943 -0.4342
   31DOPE   H9R 3925   0.863   3.278  14.090 -0.4355 -0.6525 -0.7445
   31DOPE  C210 3926   0.807   3.390  14.251 -0.1296  0.0527 -0.5432
   31DOPE  H10R 3927   0.760   3.300  14.294 -1.0905  1.0520  0.5810
   31DOPE  C211 3928   0.793   3.513  14.333 -0.8056  1.0828 -0.5701
   31DOPE  H11R 3929   0.686   3.533  14.354 -1.1880  0.9041 -2.1784
   31DOPE  H11S 3930   0.819   3.601  14.271  0.0702  1.0609 -0.2451
   31DOPE  C212 3931   0.879   3.496  14.462  0.6211  0.9318 -0.1077
   31DOPE  H12R 3932   0.860   3.589  14.520  1.2475  1.7215 -1.1346
   31DOPE  H12S 3933   0.986   3.504  14.433  0.3289 -1.2348 -2.0582
   31DOPE  C213 3934   0.856   3.366  14.535  0.3079 -0.7750  0.3583
   31DOPE  H13R 3935   0.897   3.283  14.474 -0.6912 -0.0819 -1.3366
   31DOPE  H13S 3936   0.749   3.340  14.545 -0.1179 -0.0307 -1.7510
   31DOPE  C214 3937   0.934   3.359  14.664 -0.4932  0.2439 -0.1644
   31DOPE  H14R 3938   0.880   3.425  14.735  1.0114  0.8368  0.4713
   31DOPE  H14S 3939   1.040   3.390  14.651 -0.4104 -1.0449 -3.1545
   31DOPE  C215 3940   0.932   3.218  14.716  0.4833 -0.7724 -0.2243
   31DOPE  H15R 3941   1.002   3.154  14.656  0.5753  0.6289 -1.6787
   31DOPE  H15S 3942   0.831   3.172  14.716 -0.3229  0.9346 -0.2008
   31DOPE  C216 3943   0.986   3.209  14.869 -0.0213 -0.1633 -0.0718
   31DOPE  H16R 3944   1.075   3.273  14.887 -1.3142  1.6218  0.2348
   31DOPE  H16S 3945   1.006   3.101  14.884 -1.0975 -0.3933 -0.1938
   31DOPE  C217 3946   0.881   3.237  14.974 -0.3121  0.4352 -0.1562
   31DOPE  H17R 3947   0.792   3.185  14.933  0.0644 -1.2861  1.1022
   31DOPE  H17S 3948   0.860   3.346  14.975  0.3549  0.5699  1.0540
   31DOPE  C218 3949   0.914   3.201  15.116  0.4230  0.4158 -0.1527
   31DOPE  H18R 3950   0.999   3.267  15.141 -0.1934  1.0916  0.2115
   31DOPE  H18S 3951   0.954   3.097  15.112  0.0099  0.2900 -2.0745
   31DOPE  H18T 3952   0.826   3.207  15.184 -0.2729  0.7910 -1.0727
   31DOPE   C33 3953   1.491   2.771  13.427  0.3289  0.1779 -1.0565
   31DOPE   H3X 3954   1.478   2.725  13.327  1.9882  0.0917 -1.2566
   31DOPE   H3Y 3955   1.393   2.821  13.443  0.2033  0.6432 -3.0152
   31DOPE   C34 3956   1.521   2.665  13.537 -0.2817 -0.6240  0.5872
   31DOPE   H4X 3957   1.438   2.591  13.534  0.1808 -1.1761  1.2114
   31DOPE   H4Y 3958   1.615   2.609  13.516  0.7154  0.5644  1.7367
   31DOPE   C35 3959   1.530   2.726  13.677 -0.7462 -0.5083 -0.5735
   31DOPE   H5X 3960   1.446   2.786  13.717 -0.7510 -1.7632  1.4468
   31DOPE   H5Y 3961   1.627   2.780  13.683 -0.0625 -1.8289  1.3364
   31DOPE   C36 3962   1.533   2.602  13.779  0.4202  0.5839 -0.0878
   31DOPE   H6X 3963   1.624   2.552  13.740 -0.9427 -0.7464 -1.7045
   31DOPE   H6Y 3964   1.449   2.531  13.770  0.2748  0.6516  0.6526
   31DOPE   C37 3965   1.542   2.643  13.919  0.3769  0.0429 -0.0680
   31DOPE   H7X 3966   1.650   2.662  13.935  0.6283 -0.9556 -0.4685
   31DOPE   H7Y 3967   1.482   2.736  13.922 -0.3794 -0.4093 -0.7672
   31DOPE   C38 3968   1.478   2.544  14.013 -0.0987  0.4899  0.1766
   31DOPE   H8X 3969   1.372   2.532  13.983  0.0611  1.6189 -0.9247
   31DOPE   H8Y 3970   1.473   2.584  14.117  1.2575 -0.3099  0.5737
   31DOPE   C39 3971   1.544   2.406  14.018  0.2110 -0.0309  0.0528
   31DOPE   H9X 3972   1.541   2.342  13.928  1.5161  0.1299 -0.1268
   31DOPE  C310 3973   1.608   2.353  14.119  0.4463 -0.1039 -0.4057
   31DOPE  H10X 3974   1.653   2.256  14.092  2.3602  1.0196 -1.5075
   31DOPE  C311 3975   1.633   2.405  14.260  0.7506 -0.6744  0.5675
   31DOPE  H11X 3976   1.720   2.473  14.246 -0.1883  0.0344 -2.3686
   31DOPE  H11Y 3977   1.552   2.472  14.297 -0.7928 -1.1178 -1.8077
   31DOPE  C312 3978   1.654   2.293  14.364 -0.6620 -0.3129 -0.2009
   31DOPE  H12X 3979   1.690   2.327  14.463 -1.5340 -0.3069  0.1217
   31DOPE  H12Y 3980   1.727   2.216  14.331  0.5435 -0.0027  1.5913
   31DOPE  C313 3981   1.525   2.212  14.393 -0.3012  0.1335 -0.4232
   31DOPE  H13X 3982   1.455   2.284  14.441 -0.6115 -0.2604 -0.2882
   31DOPE  H13Y 3983   1.480   2.188  14.294  0.1005 -0.4517 -0.4681
   31DOPE  C314 3984   1.536   2.079  14.473  0.3094 -0.0425 -0.9496
   31DOPE  H14X 3985   1.606   2.016  14.414  0.1179  0.1852 -1.4230
   31DOPE  H14Y 3986   1.437   2.029  14.472  0.7759 -1.0793  0.8434
   31DOPE  C315 3987   1.574   2.096  14.623  0.0700  0.5120 -0.2325
   31DOPE  H15X 3988   1.489   2.152  14.667  1.1137  1.6248  0.4220
   31DOPE  H15Y 3989   1.658   2.165  14.645  0.5341 -0.8023  2.4912
   31DOPE  C316 3990   1.595   1.968  14.706 -0.4172  0.1250 -0.4398
   31DOPE  H16X 3991   1.515   1.893  14.684  0.7530 -1.6610  1.0714
   31DOPE  H16Y 3992   1.598   1.988  14.815 -1.7456 -0.2990 -0.3060
   31DOPE  C317 3993   1.730   1.902  14.671 -0.1208  0.2910 -0.4007
   31DOPE  H17X 3994   1.742   1.804  14.722  1.4774  1.0844  0.8476
   31DOPE  H17Y 3995   1.714   1.870  14.566 -1.1225  2.4934 -0.9823
   31DOPE  C318 3996   1.855   1.980  14.688 -0.0052 -0.0498  0.0669
   31DOPE  H18X 3997   1.847   2.023  14.791  0.9581 -1.0263  0.5719
   31DOPE  H18Y 3998   1.945   1.922  14.660  0.4154  0.0079  1.2415
   31DOPE  H18Z 3999   1.862   2.060  14.611  2.3987 -1.4492 -1.2817
   32DOPE     N 4000   4.314   2.367  12.820  0.2752 -0.2299 -0.9436
   32DOPE   HN1 4001   4.300   2.420  12.732  0.1301  1.4294  0.0272
   32DOPE   HN2 4002   4.412   2.391  12.846  0.6873 -1.6448 -1.0866
   32DOPE   HN3 4003   4.308   2.263  12.818 -1.9807 -0.2976  2.1480
   32DOPE   C12 4004   4.216   2.407  12.932  0.1725  0.4450  0.7448
   32DOPE  H12A 4005   4.122   2.358  12.898  0.8411 -2.6447  2.9332
   32DOPE  H12B 4006   4.214   2.518  12.932  0.7784  0.5175 -1.8415
   32DOPE   C11 4007   4.260   2.334  13.063  0.6393 -0.1222  0.4087
   32DOPE  H11A 4008   4.197   2.353  13.152  0.6871 -0.8029  0.5954
   32DOPE  H11B 4009   4.345   2.395  13.100  0.1233  0.0777  1.2845
   32DOPE     P 4010   4.220   2.072  13.093  0.1560 -0.0770  0.1866
   32DOPE   O13 4011   4.329   1.970  13.110 -0.4065  0.3491  0.5987
   32DOPE   O14 4012   4.103   2.032  13.010  0.0513  0.7918  0.5066
   32DOPE   O11 4013   4.171   2.117  13.235  0.4646  0.6253 -0.2402
   32DOPE   O12 4014   4.292   2.199  13.038  0.0278 -0.3939  0.2286
   32DOPE    C1 4015   4.241   2.142  13.350  0.0572 -0.2832  0.0066
   32DOPE    HA 4016   4.293   2.238  13.331 -0.3862 -0.2481 -1.1165
   32DOPE    HB 4017   4.318   2.065  13.370 -0.9297 -0.8091  2.0355
   32DOPE    C2 4018   4.151   2.145  13.478  0.2708  0.7523  0.5697
   32DOPE    HS 4019   4.102   2.048  13.498 -1.2301  1.7015  1.6341
   32DOPE   O21 4020   4.057   2.253  13.469  0.7225 -0.0925 -0.7029
   32DOPE   C21 4021   3.946   2.239  13.536 -0.1936 -0.3617  0.1860
   32DOPE   O22 4022   3.904   2.137  13.592  0.2347  0.1038 -0.0838
   32DOPE   C22 4023   3.882   2.382  13.541  0.2880  0.5591  0.4197
   32DOPE   H2R 4024   3.858   2.424  13.441  2.5461 -0.7256 -0.7303
   32DOPE   H2S 4025   3.968   2.445  13.573 -0.4958  1.0518  1.6541
   32DOPE    C3 4026   4.242   2.173  13.605 -0.3048  0.1233  0.2202
   32DOPE    HX 4027   4.287   2.272  13.583  0.2706 -0.0419  0.6175
   32DOPE    HY 4028   4.321   2.095  13.604 -1.7507 -1.4570 -2.5673
   32DOPE   O31 4029   4.169   2.173  13.727 -0.0630 -0.2979 -0.2630
   32DOPE   C31 4030   4.171   2.055  13.784  0.2331  0.4309  0.2022
   32DOPE   O32 4031   4.231   1.958  13.748 -0.4389  0.1196 -0.7162
   32DOPE   C32 4032   4.085   2.064  13.911  0.3878  0.4862  0.0390
   32DOPE   H2X 4033   3.978   2.081  13.884  0.2319 -1.8236 -0.9678
   32DOPE   H2Y 4034   4.113   1.975  13.970 -0.1617  0.4580  0.2604
   32DOPE   C23 4035   3.758   2.388  13.645  0.4572  0.1977  0.2300
   32DOPE   H3R 4036   3.682   2.316  13.607 -1.0475  0.6475  2.2320
   32DOPE   H3S 4037   3.709   2.487  13.630 -1.1200 -0.8163 -1.8358
   32DOPE   C24 4038   3.790   2.365  13.797  0.0878 -0.0963 -0.7543
   32DOPE   H4R 4039   3.885   2.418  13.822  1.0767 -2.0506 -0.2062
   32DOPE   H4S 4040   3.813   2.260  13.822  1.1347  0.2647 -0.1383
   32DOPE   C25 4041   3.679   2.414  13.887  0.2273  0.5608 -0.7746
   32DOPE   H5R 4042   3.581   2.370  13.859 -2.3028  2.8842  3.2378
   32DOPE   H5S 4043   3.655   2.519  13.859 -2.5178  0.0786 -0.5655
   32DOPE   C26 4044   3.694   2.391  14.035  0.3844  0.1681  0.0163
   32DOPE   H6R 4045   3.801   2.387  14.063  0.3506 -1.9175  0.0028
   32DOPE   H6S 4046   3.660   2.288  14.057  1.9726 -0.5657 -0.8433
   32DOPE   C27 4047   3.614   2.489  14.118 -0.2303 -0.2603  0.1501
   32DOPE   H7R 4048   3.508   2.471  14.090 -0.6485 -1.2051  2.1693
   32DOPE   H7S 4049   3.647   2.589  14.083  0.7103 -0.0850  1.4796
   32DOPE   C28 4050   3.659   2.477  14.271 -0.1990 -0.5691  0.5049
   32DOPE   H8R 4051   3.596   2.553  14.322  0.5201 -0.4009  1.1733
   32DOPE   H8S 4052   3.763   2.515  14.282 -0.3974  0.7068 -1.5324
   32DOPE   C29 4053   3.649   2.341  14.338 -0.5522 -0.0132 -0.5581
   32DOPE   H9R 4054   3.743   2.285  14.346 -0.4334  0.2442 -0.0857
   32DOPE  C210 4055   3.544   2.307  14.420 -0.0262 -0.1652  0.2920
   32DOPE  H10R 4056   3.547   2.212  14.475  1.0347 -0.2320  0.1507
   32DOPE  C211 4057   3.418   2.390  14.430  0.4658  0.8640 -0.2673
   32DOPE  H11R 4058   3.336   2.317  14.413  0.1542  1.1840 -0.1544
   32DOPE  H11S 4059   3.413   2.475  14.359  3.7088  2.0385  0.7198
   32DOPE  C212 4060   3.374   2.438  14.572 -0.4324  0.1224  0.6178
   32DOPE  H12R 4061   3.457   2.492  14.623 -0.8396 -0.0391  1.4676
   32DOPE  H12S 4062   3.345   2.341  14.617  0.3155 -0.9226 -1.0363
   32DOPE  C213 4063   3.264   2.543  14.566  0.2216 -0.7065  0.4557
   32DOPE  H13R 4064   3.196   2.524  14.480  0.8239  1.8062 -0.6848
   32DOPE  H13S 4065   3.317   2.639  14.545 -1.2049 -0.3210 -1.7161
   32DOPE  C214 4066   3.196   2.578  14.699 -0.2383 -0.2077 -0.5132
   32DOPE  H14R 4067   3.264   2.553  14.783  1.3139  1.0208 -1.3518
   32DOPE  H14S 4068   3.100   2.523  14.711  0.4075 -1.1799  0.4281
   32DOPE  C215 4069   3.163   2.729  14.721  0.5161 -0.9443 -0.2838
   32DOPE  H15R 4070   3.114   2.777  14.634  1.1909  2.8918  1.2224
   32DOPE  H15S 4071   3.260   2.780  14.736  0.8322 -1.4452 -0.5942
   32DOPE  C216 4072   3.075   2.756  14.848  0.4964  0.5782 -0.3577
   32DOPE  H16R 4073   3.077   2.863  14.878 -0.6533  0.2175  1.1265
   32DOPE  H16S 4074   3.123   2.713  14.938 -1.4046 -0.4811  0.2152
   32DOPE  C217 4075   2.933   2.692  14.851  0.2614  0.5523 -0.8046
   32DOPE  H17R 4076   2.952   2.583  14.838  1.7339  0.7952 -0.8236
   32DOPE  H17S 4077   2.870   2.733  14.769 -1.7699 -0.7591  0.0251
   32DOPE  C218 4078   2.860   2.707  14.988  0.2990  0.7575  1.1026
   32DOPE  H18R 4079   2.833   2.814  15.003  2.1179  1.4141  0.0710
   32DOPE  H18S 4080   2.926   2.669  15.069  0.2606 -0.9095  0.4049
   32DOPE  H18T 4081   2.783   2.627  14.991  3.1774 -2.2520  0.8029
   32DOPE   C33 4082   4.100   2.187  14.009 -0.0600 -0.0294 -0.5676
   32DOPE   H3X 4083   4.029   2.161  14.091  0.4171 -1.3642 -0.5502
   32DOPE   H3Y 4084   4.059   2.273  13.951 -0.1322  0.7559  0.6174
   32DOPE   C34 4085   4.250   2.216  14.053 -0.2708  0.5593  0.0735
   32DOPE   H4X 4086   4.282   2.120  14.098 -1.9728  0.1091  0.3801
   32DOPE   H4Y 4087   4.303   2.241  13.959 -2.8753  0.7668 -1.4467
   32DOPE   C35 4088   4.277   2.329  14.154  0.9814 -0.9016 -0.1804
   32DOPE   H5X 4089   4.253   2.425  14.102 -0.2808 -2.1112 -1.9293
   32DOPE   H5Y 4090   4.386   2.323  14.174  0.9564  0.5037  0.5312
   32DOPE   C36 4091   4.182   2.327  14.277 -0.3240  0.5152 -0.0603
   32DOPE   H6X 4092   4.192   2.230  14.331 -0.4729  1.4920  1.7742
   32DOPE   H6Y 4093   4.078   2.335  14.240 -0.7075 -2.4858  0.1180
   32DOPE   C37 4094   4.231   2.442  14.371  0.0886  0.0514 -0.5160
   32DOPE   H7X 4095   4.339   2.422  14.390 -0.1513 -0.5259  0.2796
   32DOPE   H7Y 4096   4.231   2.548  14.340  2.0796 -0.0800 -1.1052
   32DOPE   C38 4097   4.167   2.422  14.515  0.2135  0.1124 -0.0577
   32DOPE   H8X 4098   4.207   2.501  14.582  0.0683  0.9350 -0.9223
   32DOPE   H8Y 4099   4.222   2.336  14.558 -0.5678 -0.8420 -0.9162
   32DOPE   C39 4100   4.019   2.399  14.530 -0.2009  0.3120  0.1246
   32DOPE   H9X 4101   3.961   2.428  14.441  1.4547  0.9842 -0.7735
   32DOPE  C310 4102   3.960   2.332  14.623 -0.3557 -0.6512 -0.6449
   32DOPE  H10X 4103   3.852   2.311  14.615 -0.5348 -0.1722  0.2988
   32DOPE  C311 4104   4.010   2.262  14.754  1.0000  0.1152  0.6473
   32DOPE  H11X 4105   4.120   2.254  14.760  1.0664 -0.6926 -1.0826
   32DOPE  H11Y 4106   3.978   2.316  14.846 -0.2470  0.0939  0.2478
   32DOPE  C312 4107   3.959   2.118  14.756 -0.1388  0.0215 -0.2478
   32DOPE  H12X 4108   3.980   2.061  14.663  1.5758  0.4682 -0.1731
   32DOPE  H12Y 4109   3.849   2.122  14.764 -0.1141  1.3884 -0.3049
   32DOPE  C313 4110   4.014   2.049  14.883 -0.4004 -0.2551 -0.7391
   32DOPE  H13X 4111   4.121   2.027  14.866 -0.2286  0.0403 -0.0763
   32DOPE  H13Y 4112   4.013   2.121  14.967  2.2218  0.0574 -0.9000
   32DOPE  C314 4113   3.930   1.929  14.919  0.9043  0.8980 -0.0667
   32DOPE  H14X 4114   3.909   1.859  14.834 -0.0843  1.5590 -0.3787
   32DOPE  H14Y 4115   3.836   1.976  14.954  0.3504  0.3667 -0.7967
   32DOPE  C315 4116   4.002   1.842  15.026 -0.8006 -0.2776  0.4063
   32DOPE  H15X 4117   4.050   1.901  15.106 -0.3742 -0.3249  0.1866
   32DOPE  H15Y 4118   4.071   1.780  14.964 -2.0817 -1.0290 -0.3107
   32DOPE  C316 4119   3.901   1.757  15.091  0.1372  0.2925  0.3577
   32DOPE  H16X 4120   3.848   1.690  15.020  2.6821  0.1445 -1.5595
   32DOPE  H16Y 4121   3.824   1.823  15.136 -0.2021  0.3366 -0.2854
   32DOPE  C317 4122   3.957   1.688  15.217  0.1396  1.2973  0.1933
   32DOPE  H17X 4123   3.979   1.771  15.288  1.5110  2.4330 -1.4744
   32DOPE  H17Y 4124   3.869   1.629  15.249  1.4940 -1.9126 -1.5973
   32DOPE  C318 4125   4.081   1.602  15.187 -0.7898 -0.4490 -0.4784
   32DOPE  H18X 4126   4.123   1.567  15.284  0.1288 -0.5506 -0.9027
   32DOPE  H18Y 4127   4.052   1.521  15.117 -1.1263  2.4558 -3.9727
   32DOPE  H18Z 4128   4.156   1.668  15.139  0.0494  2.4273  4.1610
   33DOPE     N 4129   2.676   2.153  12.371 -0.0544 -0.2204  0.4352
   33DOPE   HN1 4130   2.737   2.228  12.410  0.5727 -2.0961  3.3930
   33DOPE   HN2 4131   2.684   2.137  12.268 -2.6353  0.2475  0.1100
   33DOPE   HN3 4132   2.578   2.186  12.381  0.5435  1.6678  0.4376
   33DOPE   C12 4133   2.704   2.034  12.449  0.4156  0.4637  0.7827
   33DOPE  H12A 4134   2.813   2.013  12.455  0.2914 -0.1249  1.0544
   33DOPE  H12B 4135   2.648   1.953  12.398 -3.4365  3.1721  0.2668
   33DOPE   C11 4136   2.649   2.050  12.587 -0.4648 -0.0345 -0.1393
   33DOPE  H11A 4137   2.694   1.967  12.647  3.0529  0.8659 -1.2873
   33DOPE  H11B 4138   2.539   2.043  12.594 -0.4195 -0.5822  0.1225
   33DOPE     P 4139   2.799   2.199  12.754 -0.3926 -0.4918  0.0702
   33DOPE   O13 4140   2.802   2.345  12.787 -0.3129 -0.3380 -0.5192
   33DOPE   O14 4141   2.926   2.130  12.717  0.0795 -0.0354 -0.5948
   33DOPE   O11 4142   2.739   2.119  12.882 -0.1613  0.4696 -0.1250
   33DOPE   O12 4143   2.688   2.182  12.636 -0.3044 -0.0621  0.9457
   33DOPE    C1 4144   2.620   2.159  12.948  0.0818  0.4942 -0.0226
   33DOPE    HA 4145   2.555   2.069  12.954 -0.7806  0.8928 -2.2642
   33DOPE    HB 4146   2.559   2.231  12.889 -0.6404  0.3937  0.5900
   33DOPE    C2 4147   2.643   2.217  13.089  0.2586 -0.0021 -0.9587
   33DOPE    HS 4148   2.543   2.227  13.138  0.9252  1.8720  0.1269
   33DOPE   O21 4149   2.702   2.341  13.092  0.4818  0.5095  0.6451
   33DOPE   C21 4150   2.621   2.445  13.057  0.3057 -0.2687 -0.6258
   33DOPE   O22 4151   2.504   2.439  13.033 -0.0730  0.3619  0.4122
   33DOPE   C22 4152   2.696   2.571  13.085 -0.5808  0.5397  0.5344
   33DOPE   H2R 4153   2.710   2.627  12.990  1.6122 -2.1994 -0.9363
   33DOPE   H2S 4154   2.797   2.546  13.125 -0.2282 -1.2034 -1.2881
   33DOPE    C3 4155   2.712   2.117  13.185 -0.6739 -0.4470 -0.0823
   33DOPE    HX 4156   2.813   2.108  13.138  0.1337  1.9251  1.0109
   33DOPE    HY 4157   2.664   2.017  13.174  1.0819 -1.3897  0.3741
   33DOPE   O31 4158   2.711   2.168  13.320 -0.0454  0.0671 -0.2112
   33DOPE   C31 4159   2.835   2.190  13.372 -0.5571  0.1581  1.0016
   33DOPE   O32 4160   2.941   2.151  13.322  0.0979 -0.0162  0.5591
   33DOPE   C32 4161   2.827   2.245  13.512 -0.2435  0.1044 -0.5301
   33DOPE   H2X 4162   2.865   2.349  13.506 -0.1869  0.2134  1.0960
   33DOPE   H2Y 4163   2.720   2.243  13.543 -0.0522 -1.1305  0.1320
   33DOPE   C23 4164   2.622   2.654  13.194 -0.0582  0.2895 -0.3035
   33DOPE   H3R 4165   2.522   2.670  13.148 -0.3490 -0.6225 -0.0120
   33DOPE   H3S 4166   2.678   2.750  13.204 -1.4688  0.9844  1.4591
   33DOPE   C24 4167   2.615   2.588  13.335  0.6176 -0.1250 -0.3552
   33DOPE   H4R 4168   2.724   2.575  13.352  0.5846 -1.4105 -1.0078
   33DOPE   H4S 4169   2.556   2.495  13.328  0.8108 -0.1405 -2.1542
   33DOPE   C25 4170   2.550   2.679  13.442 -0.1622 -0.3281  0.5361
   33DOPE   H5R 4171   2.442   2.683  13.415  0.4306  1.2955 -1.8340
   33DOPE   H5S 4172   2.594   2.779  13.425 -0.0719 -0.6777 -1.5852
   33DOPE   C26 4173   2.570   2.630  13.582  1.3876 -0.0876 -0.3333
   33DOPE   H6R 4174   2.535   2.525  13.580  0.9775  0.0561 -0.7542
   33DOPE   H6S 4175   2.506   2.674  13.662  0.8821 -3.0846  1.0503
   33DOPE   C27 4176   2.715   2.623  13.628  0.1362 -0.8521  0.4879
   33DOPE   H7R 4177   2.757   2.726  13.617  0.7042 -1.2112 -0.9819
   33DOPE   H7S 4178   2.779   2.567  13.557  0.8106  0.6447 -0.1404
   33DOPE   C28 4179   2.730   2.581  13.780  0.2924  0.3542 -0.1351
   33DOPE   H8R 4180   2.680   2.652  13.850 -0.6862  1.0906 -1.5296
   33DOPE   H8S 4181   2.835   2.599  13.812 -0.2842  2.7863  0.6460
   33DOPE   C29 4182   2.694   2.436  13.811  0.0254 -0.3190  0.2466
   33DOPE   H9R 4183   2.758   2.364  13.758 -0.7371 -0.7774 -0.0769
   33DOPE  C210 4184   2.583   2.390  13.881 -1.0379  0.3376  0.2534
   33DOPE  H10R 4185   2.592   2.286  13.916  1.8879  0.4091 -0.0161
   33DOPE  C211 4186   2.473   2.470  13.945  0.1331 -0.2927  0.2067
   33DOPE  H11R 4187   2.373   2.425  13.928 -0.1108  1.1684 -2.9880
   33DOPE  H11S 4188   2.460   2.570  13.898 -0.8132 -0.3442  0.3392
   33DOPE  C212 4189   2.494   2.506  14.093  0.1333  0.2915 -0.5147
   33DOPE  H12R 4190   2.413   2.575  14.124  0.4489  1.1390 -1.5250
   33DOPE  H12S 4191   2.592   2.556  14.112  1.4293 -2.1078 -0.4152
   33DOPE  C213 4192   2.507   2.386  14.182  0.2596  0.3517  0.1662
   33DOPE  H13R 4193   2.609   2.351  14.157  0.8543  1.8899  0.2870
   33DOPE  H13S 4194   2.427   2.311  14.167 -0.1020  0.8114 -0.2301
   33DOPE  C214 4195   2.502   2.421  14.332  0.2652 -0.2053 -0.9426
   33DOPE  H14R 4196   2.407   2.479  14.338  0.3437 -0.1494 -0.0289
   33DOPE  H14S 4197   2.591   2.482  14.357  0.4469 -0.2497 -1.4733
   33DOPE  C215 4198   2.496   2.289  14.421  0.4066 -0.1668  1.0728
   33DOPE  H15R 4199   2.577   2.220  14.390  0.3135  0.1755  0.0505
   33DOPE  H15S 4200   2.400   2.240  14.396 -0.9858  0.9224  3.8266
   33DOPE  C216 4201   2.497   2.308  14.573  0.4683  0.4656  0.1138
   33DOPE  H16R 4202   2.442   2.221  14.615  2.4048 -1.5419 -1.3045
   33DOPE  H16S 4203   2.442   2.402  14.596 -1.7442 -0.8342  0.4476
   33DOPE  C217 4204   2.641   2.300  14.636 -0.5446 -0.3891  0.0140
   33DOPE  H17R 4205   2.694   2.388  14.593  0.4081 -1.2622 -0.6497
   33DOPE  H17S 4206   2.695   2.210  14.600  1.3827  0.6420  0.1679
   33DOPE  C218 4207   2.637   2.302  14.790 -0.3387 -0.3230  0.4453
   33DOPE  H18R 4208   2.616   2.201  14.831 -0.9250  0.2463  1.6023
   33DOPE  H18S 4209   2.563   2.372  14.835 -0.9621  0.4067 -1.6010
   33DOPE  H18T 4210   2.741   2.327  14.818  0.5297 -2.8076 -0.3496
   33DOPE   C33 4211   2.909   2.177  13.625  0.5878 -0.1047  0.6410
   33DOPE   H3X 4212   2.933   2.253  13.702 -0.8220  0.0699  0.9286
   33DOPE   H3Y 4213   3.008   2.143  13.586  0.0287 -1.2437  0.1754
   33DOPE   C34 4214   2.824   2.065  13.688 -0.3444 -0.0048  0.6474
   33DOPE   H4X 4215   2.733   2.100  13.740 -1.4342 -0.7186 -0.7124
   33DOPE   H4Y 4216   2.787   1.980  13.626  0.7616 -1.9027  2.4460
   33DOPE   C35 4217   2.913   1.995  13.790 -0.1046  0.6075 -0.1220
   33DOPE   H5X 4218   2.948   2.071  13.863 -0.1530 -1.5669  2.3029
   33DOPE   H5Y 4219   3.000   1.950  13.738 -0.3073 -0.4956  0.4613
   33DOPE   C36 4220   2.845   1.884  13.868 -0.1563  0.6655 -0.2364
   33DOPE   H6X 4221   2.831   1.784  13.821  1.6479 -0.9973  2.5182
   33DOPE   H6Y 4222   2.743   1.919  13.893 -0.0546 -0.5939  2.2938
   33DOPE   C37 4223   2.904   1.837  14.004 -0.0833 -0.1272  0.3974
   33DOPE   H7X 4224   2.843   1.755  14.048  1.3058 -1.3304  0.1423
   33DOPE   H7Y 4225   3.007   1.799  13.985 -1.4385 -4.2199  0.2060
   33DOPE   C38 4226   2.903   1.951  14.105  0.4903 -0.3642  0.3503
   33DOPE   H8X 4227   2.984   2.023  14.080  1.4949 -1.5275  0.1651
   33DOPE   H8Y 4228   2.940   1.907  14.200  1.3250  0.1993  0.3027
   33DOPE   C39 4229   2.763   2.004  14.121 -0.1890 -0.2867 -0.3245
   33DOPE   H9X 4230   2.718   2.052  14.033  0.0557 -0.2623 -0.4391
   33DOPE  C310 4231   2.691   2.010  14.232  0.2232 -0.1812 -0.3648
   33DOPE  H10X 4232   2.592   2.057  14.224  0.2750 -0.1849 -1.1179
   33DOPE  C311 4233   2.713   1.944  14.374  0.1764  0.1627 -0.2283
   33DOPE  H11X 4234   2.805   1.881  14.377 -0.9953 -1.5839  0.8955
   33DOPE  H11Y 4235   2.732   2.024  14.449  0.0139  1.0008 -1.0544
   33DOPE  C312 4236   2.584   1.869  14.424 -0.2473  0.4263 -0.0561
   33DOPE  H12X 4237   2.556   1.790  14.351  4.9864 -1.5682 -0.3050
   33DOPE  H12Y 4238   2.500   1.942  14.420 -2.4574 -1.9370  0.6918
   33DOPE  C313 4239   2.583   1.819  14.574  0.6057  0.0265  0.1440
   33DOPE  H13X 4240   2.685   1.778  14.594  0.4464  0.7320  2.7010
   33DOPE  H13Y 4241   2.586   1.911  14.636 -1.9296  0.1085  0.2224
   33DOPE  C314 4242   2.479   1.714  14.628  0.1403  0.1192  0.1130
   33DOPE  H14X 4243   2.504   1.684  14.732 -0.6236 -3.9237 -0.7266
   33DOPE  H14Y 4244   2.494   1.616  14.577  2.4668  0.6353 -0.3105
   33DOPE  C315 4245   2.332   1.755  14.617  0.2551  0.5654  0.0757
   33DOPE  H15X 4246   2.272   1.689  14.683  0.4940 -0.1008 -0.3666
   33DOPE  H15Y 4247   2.288   1.742  14.516  0.4532 -4.2731  0.3913
   33DOPE  C316 4248   2.300   1.904  14.656 -0.3239 -0.4364 -0.3539
   33DOPE  H16X 4249   2.195   1.931  14.634 -0.1421 -0.4722 -1.2976
   33DOPE  H16Y 4250   2.361   1.981  14.604 -0.3580  1.2431  1.9071
   33DOPE  C317 4251   2.332   1.930  14.807  0.0364 -0.0842 -0.4220
   33DOPE  H17X 4252   2.412   1.862  14.843 -0.6902 -0.8971 -0.3021
   33DOPE  H17Y 4253   2.369   2.034  14.821 -1.0395  0.2731 -0.1043
   33DOPE  C318 4254   2.210   1.912  14.897  0.0199 -0.9281 -0.1832
   33DOPE  H18X 4255   2.144   2.001  14.888 -0.0793 -0.6372  2.5228
   33DOPE  H18Y 4256   2.152   1.825  14.861  1.8216 -1.6847 -1.4154
   33DOPE  H18Z 4257   2.235   1.902  15.005  0.6404  1.1224 -0.0914
   34DOPE     N 4258   0.886   3.361  12.840 -0.2206 -0.2814  0.4657
   34DOPE   HN1 4259   0.816   3.434  12.863  1.6080  1.6428  0.2126
   34DOPE   HN2 4260   0.850   3.264  12.849  1.4116 -0.7862  2.0176
   34DOPE   HN3 4261   0.958   3.376  12.913 -0.6747 -1.7004  1.2324
   34DOPE   C12 4262   0.944   3.390  12.699  0.1580  0.3520  0.0781
   34DOPE  H12A 4263   0.862   3.372  12.625 -0.2740  3.0066 -0.1714
   34DOPE  H12B 4264   1.035   3.326  12.690  0.6380  0.9208  0.8158
   34DOPE   C11 4265   0.973   3.540  12.679  0.5461  0.0450  0.2406
   34DOPE  H11A 4266   1.008   3.550  12.574  0.7006 -0.7840  0.2053
   34DOPE  H11B 4267   1.049   3.570  12.753 -1.3210  2.3965  1.3221
   34DOPE     P 4268   0.856   3.772  12.677 -0.0607  0.1684 -0.2713
   34DOPE   O13 4269   0.714   3.825  12.673  0.0706  0.4122  0.0807
   34DOPE   O14 4270   0.938   3.807  12.562 -0.1433  0.5958  0.5598
   34DOPE   O11 4271   0.932   3.827  12.807  0.7817 -0.7859 -0.0829
   34DOPE   O12 4272   0.849   3.613  12.700  0.6414 -0.2755  0.0977
   34DOPE    C1 4273   0.913   3.778  12.939 -0.6886  0.1167 -0.1953
   34DOPE    HA 4274   0.931   3.669  12.941 -0.9418  0.0099 -2.0484
   34DOPE    HB 4275   0.814   3.794  12.988 -0.7205  0.9158 -0.5079
   34DOPE    C2 4276   1.035   3.817  13.032  0.1567  0.1901  0.1759
   34DOPE    HS 4277   1.022   3.767  13.130  0.5519  0.1535  0.2115
   34DOPE   O21 4278   1.042   3.960  13.049  0.2826 -0.3185 -0.2957
   34DOPE   C21 4279   0.936   4.009  13.124 -0.3611 -0.0908 -0.4951
   34DOPE   O22 4280   0.848   3.942  13.168  0.4799 -0.0856  0.3960
   34DOPE   C22 4281   0.956   4.154  13.151  0.0131 -0.0582  0.4035
   34DOPE   H2R 4282   0.914   4.214  13.067 -1.2644 -1.4663 -0.0100
   34DOPE   H2S 4283   1.062   4.186  13.162  0.2054  0.5263 -2.3720
   34DOPE    C3 4284   1.171   3.774  12.980  0.0211 -0.1245 -0.7718
   34DOPE    HX 4285   1.192   3.825  12.883  1.6611 -1.2154 -1.0277
   34DOPE    HY 4286   1.178   3.669  12.944  0.1139  0.2355 -1.8543
   34DOPE   O31 4287   1.272   3.805  13.082 -0.7518 -0.2314 -0.0284
   34DOPE   C31 4288   1.398   3.817  13.039  0.8403  0.3084 -0.5743
   34DOPE   O32 4289   1.433   3.778  12.931 -0.2444 -0.1958  0.2977
   34DOPE   C32 4290   1.478   3.887  13.147  0.1267 -0.2874 -0.7222
   34DOPE   H2X 4291   1.520   3.981  13.104  1.6058  1.0041  3.0772
   34DOPE   H2Y 4292   1.403   3.922  13.221 -2.2146  0.0725 -3.0949
   34DOPE   C23 4293   0.873   4.206  13.272  0.7450 -0.0521 -0.1701
   34DOPE   H3R 4294   0.922   4.295  13.316  1.1552 -0.8925  1.1344
   34DOPE   H3S 4295   0.867   4.129  13.352 -1.0222 -1.1894 -1.3353
   34DOPE   C24 4296   0.726   4.253  13.229 -0.6983  0.5712 -0.1199
   34DOPE   H4R 4297   0.675   4.165  13.184  3.1557 -1.4022 -1.0211
   34DOPE   H4S 4298   0.732   4.333  13.152  1.6915  1.8541  1.2795
   34DOPE   C25 4299   0.654   4.328  13.338 -0.0770 -0.2902 -0.3209
   34DOPE   H5R 4300   0.556   4.355  13.292 -0.1642  1.0305  0.5793
   34DOPE   H5S 4301   0.707   4.421  13.366 -0.8309 -0.3003  1.2751
   34DOPE   C26 4302   0.632   4.252  13.469 -0.0310  1.0625  0.0684
   34DOPE   H6R 4303   0.731   4.221  13.511 -1.5258 -1.5508  2.0233
   34DOPE   H6S 4304   0.583   4.154  13.448  0.4650  1.3510 -2.6897
   34DOPE   C27 4305   0.562   4.322  13.587  0.2702  0.1177  0.6883
   34DOPE   H7R 4306   0.463   4.359  13.553  0.7783  0.9296  0.0692
   34DOPE   H7S 4307   0.611   4.419  13.606 -0.5922  1.5961 -3.4498
   34DOPE   C28 4308   0.554   4.234  13.715  0.3068  0.0581 -0.0682
   34DOPE   H8R 4309   0.653   4.187  13.734  0.5605  0.7849  0.4827
   34DOPE   H8S 4310   0.488   4.148  13.691  0.1067  0.4821 -1.0977
   34DOPE   C29 4311   0.500   4.312  13.834  0.6140 -0.1340  0.0565
   34DOPE   H9R 4312   0.425   4.385  13.800  0.8695 -1.1127 -2.9111
   34DOPE  C210 4313   0.534   4.297  13.964  0.4049 -0.4116  0.3111
   34DOPE  H10R 4314   0.489   4.373  14.029  0.1059 -0.8960  0.6804
   34DOPE  C211 4315   0.628   4.198  14.024 -0.3166  0.7247 -1.0972
   34DOPE  H11R 4316   0.705   4.246  14.087  0.4562  0.2383 -1.6564
   34DOPE  H11S 4317   0.693   4.155  13.945  3.1824 -0.1687  2.0264
   34DOPE  C212 4318   0.562   4.082  14.103  0.1508 -0.1294  0.1811
   34DOPE  H12R 4319   0.521   4.024  14.018  0.9758 -0.2312 -0.1561
   34DOPE  H12S 4320   0.477   4.123  14.161 -1.0396 -1.1273 -0.7961
   34DOPE  C213 4321   0.669   4.009  14.182  0.8493 -0.3700 -1.1272
   34DOPE  H13R 4322   0.734   4.088  14.228  0.2185 -1.8062  2.6244
   34DOPE  H13S 4323   0.721   3.945  14.109  0.4472 -1.5094 -0.4374
   34DOPE  C214 4324   0.599   3.934  14.299  0.0193 -0.4972  0.1183
   34DOPE  H14R 4325   0.641   3.832  14.309  2.0053  0.3272  0.5712
   34DOPE  H14S 4326   0.494   3.912  14.272 -0.4410  1.9713 -0.4023
   34DOPE  C215 4327   0.593   4.003  14.437  0.2638 -0.0679  0.7831
   34DOPE  H15R 4328   0.527   3.946  14.505  1.2898 -1.6670  0.5028
   34DOPE  H15S 4329   0.562   4.109  14.429  1.6836  0.3351  0.1809
   34DOPE  C216 4330   0.733   4.006  14.495  0.2949  0.4559 -0.3917
   34DOPE  H16R 4331   0.793   4.078  14.435 -0.2746  0.4341 -0.9997
   34DOPE  H16S 4332   0.772   3.902  14.495  0.8942  0.6448  1.2976
   34DOPE  C217 4333   0.727   4.057  14.643 -0.0436 -0.0216 -0.6891
   34DOPE  H17R 4334   0.687   3.979  14.711 -0.6925  1.8397  1.1556
   34DOPE  H17S 4335   0.659   4.143  14.660 -0.9538 -1.2858  2.9936
   34DOPE  C218 4336   0.866   4.099  14.678 -0.0298 -0.5145 -0.3608
   34DOPE  H18R 4337   0.939   4.018  14.657  1.1126  0.1213  1.0119
   34DOPE  H18S 4338   0.868   4.135  14.783 -0.0801  0.1609 -0.5839
   34DOPE  H18T 4339   0.892   4.186  14.613  2.5961 -0.2780  0.8609
   34DOPE   C33 4340   1.595   3.810  13.198 -0.1207  0.1863 -0.5800
   34DOPE   H3X 4341   1.648   3.889  13.256 -0.9694  0.1075  0.3182
   34DOPE   H3Y 4342   1.650   3.757  13.117  2.1283 -3.5223  3.0174
   34DOPE   C34 4343   1.551   3.708  13.308  0.7523  0.0163 -0.1120
   34DOPE   H4X 4344   1.487   3.758  13.385 -0.1880  0.2956 -1.0402
   34DOPE   H4Y 4345   1.495   3.630  13.252  2.3094 -1.9285  0.9552
   34DOPE   C35 4346   1.661   3.625  13.374  0.0200 -0.0313  0.0931
   34DOPE   H5X 4347   1.726   3.698  13.427  0.7378  0.5209 -1.4972
   34DOPE   H5Y 4348   1.719   3.576  13.293  0.4638 -0.1978  0.5081
   34DOPE   C36 4349   1.615   3.522  13.473  0.3205 -0.1796  0.0838
   34DOPE   H6X 4350   1.563   3.439  13.421  1.6915 -1.3626  0.5412
   34DOPE   H6Y 4351   1.533   3.569  13.532 -0.8674  0.4451 -1.9594
   34DOPE   C37 4352   1.732   3.477  13.562  0.2999 -0.2353  0.6358
   34DOPE   H7X 4353   1.797   3.412  13.499  0.6329  0.1791  0.5395
   34DOPE   H7Y 4354   1.790   3.572  13.571  0.1674  0.4555 -3.7191
   34DOPE   C38 4355   1.678   3.418  13.695 -0.0390 -0.6909  0.0173
   34DOPE   H8X 4356   1.600   3.341  13.679 -0.9404 -0.1658  1.6496
   34DOPE   H8Y 4357   1.617   3.499  13.741 -1.1517 -0.8036 -1.2211
   34DOPE   C39 4358   1.782   3.384  13.798  0.1920 -0.9217  0.5603
   34DOPE   H9X 4359   1.857   3.464  13.808 -1.2865  0.3560  1.8208
   34DOPE  C310 4360   1.785   3.283  13.883 -0.4462 -1.4836 -0.5583
   34DOPE  H10X 4361   1.872   3.282  13.951 -0.2651  0.0117 -0.7456
   34DOPE  C311 4362   1.700   3.159  13.885  1.2359 -0.5242  0.2878
   34DOPE  H11X 4363   1.692   3.099  13.791  0.9362 -1.7874  1.0975
   34DOPE  H11Y 4364   1.734   3.083  13.958 -3.6314 -2.5420  0.8440
   34DOPE  C312 4365   1.549   3.165  13.919 -0.0233 -0.8270  0.5752
   34DOPE  H12X 4366   1.494   3.215  13.836  0.0407 -0.4061  0.7851
   34DOPE  H12Y 4367   1.528   3.230  14.006  0.1342 -1.2926  0.9645
   34DOPE  C313 4368   1.482   3.029  13.942  0.4529  0.2702 -0.5283
   34DOPE  H13X 4369   1.486   2.975  13.845  0.3702  0.8779 -0.8732
   34DOPE  H13Y 4370   1.542   2.978  14.021 -0.0017 -1.4188 -1.2276
   34DOPE  C314 4371   1.334   3.046  13.973 -0.1802 -0.2350 -0.4343
   34DOPE  H14X 4372   1.280   3.086  13.884  1.5089 -0.2134 -1.4945
   34DOPE  H14Y 4373   1.326   3.121  14.054  0.2296  0.9611 -1.4528
   34DOPE  C315 4374   1.264   2.910  14.015 -0.0775 -0.0025  0.5138
   34DOPE  H15X 4375   1.305   2.863  14.107 -1.0857  0.0672  1.0199
   34DOPE  H15Y 4376   1.275   2.846  13.925  1.6403  1.1657 -0.1497
   34DOPE  C316 4377   1.115   2.930  14.040  0.5702  0.1278 -0.5392
   34DOPE  H16X 4378   1.079   2.978  13.947 -1.5909 -0.5327 -0.0921
   34DOPE  H16Y 4379   1.089   3.004  14.119 -0.9486  0.6777 -1.5249
   34DOPE  C317 4380   1.041   2.797  14.059  0.5287 -0.0201  0.5369
   34DOPE  H17X 4381   0.933   2.816  14.044  0.5225 -1.5607 -1.9389
   34DOPE  H17Y 4382   1.073   2.731  13.976  0.1639 -2.0597  1.9433
   34DOPE  C318 4383   1.070   2.724  14.187  0.5032  0.3165  0.3811
   34DOPE  H18X 4384   1.003   2.637  14.201  0.6950  0.0823 -0.1348
   34DOPE  H18Y 4385   1.177   2.693  14.182  1.0731  2.3293 -2.3487
   34DOPE  H18Z 4386   1.055   2.789  14.276 -0.1508  0.7752 -0.0593
   35DOPE     N 4387   5.147   1.846  12.956  0.5769 -0.2258  0.1771
   35DOPE   HN1 4388   5.184   1.942  12.938 -2.0583  0.5111 -1.9364
   35DOPE   HN2 4389   5.218   1.771  12.965  1.7314  0.8883  0.7187
   35DOPE   HN3 4390   5.088   1.832  12.871  0.1656 -2.2195  0.7576
   35DOPE   C12 4391   5.052   1.841  13.078 -0.3215 -0.8754 -0.0200
   35DOPE  H12A 4392   5.097   1.790  13.166  0.9602  1.0188  0.4723
   35DOPE  H12B 4393   4.964   1.789  13.033 -1.5552  0.6485  0.5293
   35DOPE   C11 4394   5.029   1.987  13.123 -0.1310 -0.2062 -0.7337
   35DOPE  H11A 4395   5.123   2.036  13.154 -1.2761  1.1525  0.7750
   35DOPE  H11B 4396   4.961   1.983  13.211 -0.3298 -1.4311 -0.9221
   35DOPE     P 4397   4.816   2.073  13.000 -0.1642 -0.2673 -0.1066
   35DOPE   O13 4398   4.755   1.953  12.935 -0.5001 -0.1412 -0.6767
   35DOPE   O14 4399   4.784   2.197  12.925 -0.3586 -0.4283  0.0751
   35DOPE   O11 4400   4.740   2.096  13.147 -0.4839 -0.3823 -0.0735
   35DOPE   O12 4401   4.971   2.063  13.024  0.6258  0.3020 -0.2266
   35DOPE    C1 4402   4.798   2.199  13.234  0.1153  0.0514  0.1004
   35DOPE    HA 4403   4.820   2.296  13.185  0.0992 -0.4086 -0.8344
   35DOPE    HB 4404   4.887   2.162  13.289 -1.2220 -3.6431  0.0655
   35DOPE    C2 4405   4.697   2.238  13.338  0.4843  0.8822 -0.5305
   35DOPE    HS 4406   4.732   2.314  13.411 -0.7112  0.7959  0.1464
   35DOPE   O21 4407   4.645   2.126  13.411 -0.5841 -0.5173 -0.1078
   35DOPE   C21 4408   4.732   2.055  13.478 -0.1105 -0.1487  0.2495
   35DOPE   O22 4409   4.852   2.075  13.488 -0.0707 -0.3755 -0.5324
   35DOPE   C22 4410   4.674   1.944  13.557 -0.3949  0.4289  0.3045
   35DOPE   H2R 4411   4.709   1.848  13.513  3.0208  0.4260  2.6615
   35DOPE   H2S 4412   4.563   1.949  13.556 -0.3799  0.6556 -0.0085
   35DOPE    C3 4413   4.573   2.316  13.280 -0.7061  0.4636 -0.2419
   35DOPE    HX 4414   4.501   2.327  13.363 -1.7512 -3.5615 -0.4412
   35DOPE    HY 4415   4.516   2.263  13.200  1.1466  0.8601 -1.9249
   35DOPE   O31 4416   4.614   2.437  13.218  0.6179 -0.6842  0.2488
   35DOPE   C31 4417   4.612   2.543  13.301  0.0679 -0.5906  0.0611
   35DOPE   O32 4418   4.553   2.544  13.407 -0.2254  0.6668 -0.2961
   35DOPE   C32 4419   4.700   2.661  13.243  0.2767 -0.0851  0.2329
   35DOPE   H2X 4420   4.809   2.639  13.249 -0.1255 -2.0117  1.2259
   35DOPE   H2Y 4421   4.677   2.659  13.134  0.2764 -1.2309  0.2477
   35DOPE   C23 4422   4.722   1.947  13.705 -0.6281  0.6880 -0.5715
   35DOPE   H3R 4423   4.830   1.974  13.703 -0.4603  0.1055  0.0270
   35DOPE   H3S 4424   4.706   1.847  13.751 -0.7583  1.4245  1.0777
   35DOPE   C24 4425   4.650   2.063  13.784  0.7924 -0.2974  0.3185
   35DOPE   H4R 4426   4.542   2.056  13.758  0.5314  0.1331  1.2456
   35DOPE   H4S 4427   4.670   2.166  13.749 -1.1949  0.0909  0.2115
   35DOPE   C25 4428   4.658   2.049  13.939  0.3852  0.0343 -0.0940
   35DOPE   H5R 4429   4.620   2.144  13.983  2.3642  1.7158 -1.7742
   35DOPE   H5S 4430   4.765   2.041  13.969  0.9779 -2.6952 -2.5741
   35DOPE   C26 4431   4.581   1.923  13.990  0.4324 -0.4143  0.0311
   35DOPE   H6R 4432   4.609   1.826  13.944  1.9583  0.1125 -0.1856
   35DOPE   H6S 4433   4.476   1.940  13.956  0.9038  2.4315 -0.3158
   35DOPE   C27 4434   4.568   1.907  14.142 -0.6056 -0.0033  0.7952
   35DOPE   H7R 4435   4.530   1.999  14.192  0.6453  1.5391 -0.9590
   35DOPE   H7S 4436   4.671   1.886  14.180 -1.2166 -3.1310  0.9564
   35DOPE   C28 4437   4.487   1.784  14.182  0.3683 -0.1815  0.0620
   35DOPE   H8R 4438   4.512   1.743  14.283  1.5739 -1.7918 -0.8463
   35DOPE   H8S 4439   4.498   1.702  14.107 -2.0114 -0.7051  0.2153
   35DOPE   C29 4440   4.342   1.830  14.185  0.2307 -0.2340  0.4519
   35DOPE   H9R 4441   4.279   1.789  14.104  1.4202  2.2733 -1.9408
   35DOPE  C210 4442   4.279   1.894  14.293 -0.5957  0.4574  0.6646
   35DOPE  H10R 4443   4.172   1.920  14.286 -0.9984 -0.5986  2.3334
   35DOPE  C211 4444   4.344   1.948  14.424  0.3532  0.3214  0.1923
   35DOPE  H11R 4445   4.305   2.048  14.452 -1.5085 -0.4867  0.6345
   35DOPE  H11S 4446   4.455   1.947  14.426  0.3586  1.0505  0.3667
   35DOPE  C212 4447   4.304   1.857  14.538  0.5448  0.4842 -0.8767
   35DOPE  H12R 4448   4.346   1.755  14.536  0.1324  0.0836  2.8857
   35DOPE  H12S 4449   4.196   1.834  14.547  1.0738 -1.2197  3.7454
   35DOPE  C213 4450   4.336   1.924  14.673  0.1267  0.0089  0.1369
   35DOPE  H13R 4451   4.309   1.862  14.761 -2.2315  1.6198  0.6420
   35DOPE  H13S 4452   4.273   2.015  14.680  0.4855  0.3852 -1.2423
   35DOPE  C214 4453   4.477   1.970  14.695 -0.3405 -0.7803 -1.0997
   35DOPE  H14R 4454   4.475   2.079  14.674 -3.1077  0.2809  3.2732
   35DOPE  H14S 4455   4.554   1.918  14.634  0.2347 -1.4487  0.1698
   35DOPE  C215 4456   4.516   1.951  14.844  0.4359  0.3539  0.1919
   35DOPE  H15R 4457   4.621   1.986  14.845  1.5154 -2.5454 -0.6478
   35DOPE  H15S 4458   4.524   1.843  14.870 -0.3217 -0.5631 -2.9142
   35DOPE  C216 4459   4.437   2.026  14.951 -0.4628 -0.0223  0.5267
   35DOPE  H16R 4460   4.331   1.990  14.953  0.0254 -1.5561  0.4706
   35DOPE  H16S 4461   4.432   2.132  14.921  1.7442 -0.3014 -1.0498
   35DOPE  C217 4462   4.497   2.014  15.096 -0.5332 -0.0863  0.5412
   35DOPE  H17R 4463   4.497   1.906  15.120  2.1126 -0.4707 -0.8632
   35DOPE  H17S 4464   4.436   2.066  15.173 -0.3796  0.4758  0.2958
   35DOPE  C218 4465   4.639   2.069  15.127  0.4013 -0.0943  0.0138
   35DOPE  H18R 4466   4.661   2.055  15.235 -1.7917 -1.8770  0.3000
   35DOPE  H18S 4467   4.658   2.175  15.101  0.8449  0.1621  1.3152
   35DOPE  H18T 4468   4.721   2.017  15.072  1.4597  1.0497  0.4694
   35DOPE   C33 4469   4.651   2.796  13.292  0.5342  0.1302 -0.3265
   35DOPE   H3X 4470   4.652   2.791  13.403  0.6609  0.3745 -0.3150
   35DOPE   H3Y 4471   4.542   2.811  13.275  0.1518  0.6774  2.1752
   35DOPE   C34 4472   4.729   2.917  13.242 -0.1389 -0.0716 -0.4932
   35DOPE   H4X 4473   4.734   2.917  13.131 -0.8934 -1.6468 -0.5481
   35DOPE   H4Y 4474   4.675   3.010  13.270  0.8687  0.1145  0.9844
   35DOPE   C35 4475   4.869   2.934  13.303 -0.5909 -0.4452 -0.5384
   35DOPE   H5X 4476   4.932   3.017  13.264  0.8233 -0.9005  0.7022
   35DOPE   H5Y 4477   4.930   2.841  13.294  1.4696  0.8544 -0.6051
   35DOPE   C36 4478   4.862   2.948  13.455  0.0343  0.2702 -0.0188
   35DOPE   H6X 4479   4.814   2.863  13.508  0.8077 -0.1879 -0.0376
   35DOPE   H6Y 4480   4.803   3.037  13.483 -0.9665 -0.0500 -1.0161
   35DOPE   C37 4481   4.998   2.959  13.519 -0.3076  0.2039 -0.0427
   35DOPE   H7X 4482   5.059   2.872  13.485  0.7189  2.1592 -3.6757
   35DOPE   H7Y 4483   5.053   3.053  13.500  1.6384 -1.0491 -0.9426
   35DOPE   C38 4484   4.980   2.960  13.671  0.4145 -0.0291 -0.3397
   35DOPE   H8X 4485   4.948   2.858  13.703 -3.0350  1.1425  0.3406
   35DOPE   H8Y 4486   4.902   3.032  13.704  1.5266  0.2018  1.9558
   35DOPE   C39 4487   5.119   2.997  13.730 -0.8776  0.6644  0.1899
   35DOPE   H9X 4488   5.191   2.917  13.708 -0.2838  1.2701 -0.0573
   35DOPE  C310 4489   5.157   3.100  13.808 -0.3917  0.0558  0.1187
   35DOPE  H10X 4490   5.264   3.114  13.830 -0.5716  0.7221  0.6286
   35DOPE  C311 4491   5.068   3.212  13.846 -0.1252 -0.7166  0.0676
   35DOPE  H11X 4492   5.114   3.309  13.817  0.0019 -0.0602  2.2534
   35DOPE  H11Y 4493   4.961   3.203  13.818 -0.3375 -2.1118  1.1738
   35DOPE  C312 4494   5.056   3.221  13.996  0.4073 -0.5285  0.8363
   35DOPE  H12X 4495   5.017   3.133  14.050  1.1760 -0.8957  0.8051
   35DOPE  H12Y 4496   4.982   3.302  14.015 -0.7757 -1.1930 -0.7235
   35DOPE  C313 4497   5.189   3.253  14.071 -0.3003  0.0461 -0.4597
   35DOPE  H13X 4498   5.258   3.166  14.060 -1.7153 -1.4213  1.5271
   35DOPE  H13Y 4499   5.231   3.348  14.033  0.1275  0.7309  1.6151
   35DOPE  C314 4500   5.163   3.271  14.217 -0.0019  0.1566  0.2439
   35DOPE  H14X 4501   5.164   3.176  14.275  2.7695 -1.1592 -1.7145
   35DOPE  H14Y 4502   5.067   3.323  14.232 -0.2672  0.0953 -1.1206
   35DOPE  C315 4503   5.266   3.365  14.282 -0.0845  0.2171 -0.1245
   35DOPE  H15X 4504   5.257   3.471  14.253  0.9896 -0.0096 -1.3682
   35DOPE  H15Y 4505   5.365   3.329  14.247  0.0927 -1.5615  1.9569
   35DOPE  C316 4506   5.253   3.362  14.439  0.2778  0.0719  0.6650
   35DOPE  H16X 4507   5.327   3.432  14.484  0.6782 -1.0096  1.7670
   35DOPE  H16Y 4508   5.277   3.264  14.487 -0.0543 -0.6518 -0.5903
   35DOPE  C317 4509   5.122   3.413  14.501 -0.6062 -0.0183 -0.5534
   35DOPE  H17X 4510   5.093   3.498  14.435  0.8222  0.5412 -0.4940
   35DOPE  H17Y 4511   5.046   3.333  14.485 -0.2398 -0.3229 -0.8009
   35DOPE  C318 4512   5.120   3.458  14.649  0.2581  0.3715 -0.2788
   35DOPE  H18X 4513   5.146   3.375  14.718  1.9029  1.4005  0.3969
   35DOPE  H18Y 4514   5.182   3.549  14.664 -1.9521  1.8142  0.5598
   35DOPE  H18Z 4515   5.016   3.493  14.664 -0.0787 -0.8372  0.2535
   36DOPE     N 4516   6.671   3.989  12.700 -0.2252  0.1147  0.2092
   36DOPE   HN1 4517   6.756   3.930  12.714 -0.2115 -1.0777 -3.6764
   36DOPE   HN2 4518   6.680   4.039  12.609  2.6714 -1.9311 -0.8185
   36DOPE   HN3 4519   6.652   4.060  12.773 -0.2737 -0.3058  0.6082
   36DOPE   C12 4520   6.548   3.906  12.686 -0.4561  0.1671  0.6184
   36DOPE  H12A 4521   6.569   3.820  12.619 -0.1330 -2.3178  3.6360
   36DOPE  H12B 4522   6.470   3.969  12.639  0.0008 -0.5489 -1.1668
   36DOPE   C11 4523   6.504   3.845  12.818 -0.5670 -1.1232 -0.4090
   36DOPE  H11A 4524   6.587   3.777  12.850  0.6196  0.5707  0.2573
   36DOPE  H11B 4525   6.417   3.777  12.802  0.0873 -1.6871 -1.6630
   36DOPE     P 4526   6.332   3.992  12.950  0.1093  0.1877 -0.2336
   36DOPE   O13 4527   6.258   3.990  12.821  0.6184 -0.5723  0.1891
   36DOPE   O14 4528   6.343   4.118  13.021  0.8128  0.4465 -0.0936
   36DOPE   O11 4529   6.280   3.879  13.052 -0.4420  0.0943  0.3487
   36DOPE   O12 4530   6.481   3.941  12.920 -1.0049 -0.1721 -0.2743
   36DOPE    C1 4531   6.354   3.826  13.154  0.5240  0.0747 -0.2842
   36DOPE    HA 4532   6.455   3.873  13.155  0.0829  1.0495 -0.7600
   36DOPE    HB 4533   6.368   3.717  13.134  0.9260  0.1532 -0.4373
   36DOPE    C2 4534   6.290   3.856  13.296  0.2846 -0.5412  0.3757
   36DOPE    HS 4535   6.265   3.964  13.303  0.0464 -0.4647 -1.2587
   36DOPE   O21 4536   6.375   3.798  13.396 -0.1972  0.8955 -0.5298
   36DOPE   C21 4537   6.374   3.860  13.516 -0.5671 -0.1772 -0.0945
   36DOPE   O22 4538   6.307   3.959  13.539 -0.8353  0.3471 -0.6237
   36DOPE   C22 4539   6.458   3.781  13.613  0.3190  0.1267 -0.0564
   36DOPE   H2R 4540   6.536   3.724  13.558 -0.4890  0.2185 -1.3182
   36DOPE   H2S 4541   6.395   3.704  13.664  0.6380  0.2380  0.5257
   36DOPE    C3 4542   6.152   3.782  13.302 -1.0158 -0.0486 -0.2086
   36DOPE    HX 4543   6.160   3.681  13.256  0.9742  0.2293 -0.5663
   36DOPE    HY 4544   6.076   3.830  13.236  0.5903 -0.2800 -2.3310
   36DOPE   O31 4545   6.111   3.767  13.439  0.1599 -0.2793  0.3278
   36DOPE   C31 4546   6.025   3.849  13.485  0.2796  0.0492 -0.2655
   36DOPE   O32 4547   5.966   3.935  13.423 -1.0612  0.0852  0.4127
   36DOPE   C32 4548   6.004   3.824  13.634 -0.1350 -0.6752 -0.3011
   36DOPE   H2X 4549   5.928   3.747  13.657  0.1498 -0.9422 -0.2463
   36DOPE   H2Y 4550   6.093   3.783  13.686 -1.0821 -3.2936 -0.6016
   36DOPE   C23 4551   6.516   3.866  13.733 -0.0777 -0.1577 -0.6556
   36DOPE   H3R 4552   6.431   3.897  13.798  1.9806  1.4217  1.4603
   36DOPE   H3S 4553   6.583   3.951  13.709  3.2745 -2.0175  1.3218
   36DOPE   C24 4554   6.602   3.790  13.834 -0.4102  0.4695  0.3922
   36DOPE   H4R 4555   6.704   3.769  13.796 -0.4386  0.0360  0.5427
   36DOPE   H4S 4556   6.548   3.693  13.845  2.1372 -1.7276 -3.9546
   36DOPE   C25 4557   6.615   3.868  13.960  0.6973 -1.0828 -0.1048
   36DOPE   H5R 4558   6.515   3.896  14.001 -0.1163 -0.1516 -2.5347
   36DOPE   H5S 4559   6.668   3.960  13.929 -1.5092  0.2682 -0.0772
   36DOPE   C26 4560   6.697   3.790  14.060  0.3207  0.6442 -0.3249
   36DOPE   H6R 4561   6.794   3.757  14.018  0.9320  0.4908  1.1482
   36DOPE   H6S 4562   6.645   3.693  14.073  2.2643 -0.2819  0.9008
   36DOPE   C27 4563   6.736   3.852  14.198 -0.2013 -1.0509  0.7111
   36DOPE   H7R 4564   6.645   3.896  14.244  0.7717  1.0546  0.7008
   36DOPE   H7S 4565   6.804   3.938  14.181 -1.3801 -0.5016 -1.8962
   36DOPE   C28 4566   6.781   3.752  14.308 -0.0467  0.0055  0.3960
   36DOPE   H8R 4567   6.688   3.699  14.338 -0.4685 -0.7124 -1.9390
   36DOPE   H8S 4568   6.807   3.816  14.394  1.4643  0.8197 -0.6124
   36DOPE   C29 4569   6.895   3.658  14.275  0.3133  0.2454  0.6213
   36DOPE   H9R 4570   6.875   3.582  14.198  1.2886  2.0661 -1.5366
   36DOPE  C210 4571   7.027   3.657  14.318 -0.0041 -0.4602  0.2996
   36DOPE  H10R 4572   7.080   3.562  14.304  2.5768  1.0680 -1.0967
   36DOPE  C211 4573   7.086   3.743  14.425 -0.3395 -0.4248  0.0143
   36DOPE  H11R 4574   7.037   3.843  14.421  0.6094  0.0197 -1.9455
   36DOPE  H11S 4575   7.194   3.768  14.414 -0.6707  1.2296  0.2359
   36DOPE  C212 4576   7.068   3.672  14.554  0.4021  0.2030 -0.6190
   36DOPE  H12R 4577   7.117   3.573  14.562 -0.6560 -0.2522  0.4687
   36DOPE  H12S 4578   6.962   3.639  14.566 -0.3706  1.2745 -3.5386
   36DOPE  C213 4579   7.115   3.749  14.679 -0.0795  0.0346  0.1833
   36DOPE  H13R 4580   7.219   3.784  14.664 -0.8176  2.3035 -0.0426
   36DOPE  H13S 4581   7.110   3.668  14.755 -1.9264 -1.0753 -1.0246
   36DOPE  C214 4582   7.032   3.867  14.715 -1.0132 -0.5187  0.3191
   36DOPE  H14R 4583   7.029   3.938  14.630 -2.8197  1.9685  2.3086
   36DOPE  H14S 4584   7.087   3.918  14.797 -0.6242  0.7083 -0.6648
   36DOPE  C215 4585   6.888   3.844  14.743  0.1316  0.1068 -0.4220
   36DOPE  H15R 4586   6.876   3.768  14.822  0.5058 -0.5805 -1.0133
   36DOPE  H15S 4587   6.844   3.799  14.651  0.2631  0.6221 -0.7480
   36DOPE  C216 4588   6.805   3.970  14.782  0.0791 -0.1761  0.0204
   36DOPE  H16R 4589   6.825   4.053  14.712 -1.5621  0.0334 -0.2255
   36DOPE  H16S 4590   6.853   4.004  14.877  0.6056 -0.2165 -0.2266
   36DOPE  C217 4591   6.655   3.941  14.778  0.4078 -0.2732  0.3127
   36DOPE  H17R 4592   6.642   3.854  14.846 -2.1417 -0.0983  0.1249
   36DOPE  H17S 4593   6.616   3.917  14.677  0.0192  0.3188  0.3207
   36DOPE  C218 4594   6.571   4.054  14.853  0.4357  0.5618  0.5125
   36DOPE  H18R 4595   6.591   4.155  14.812 -3.0265  0.6283 -1.3935
   36DOPE  H18S 4596   6.595   4.060  14.961 -1.7960  0.2991  1.0649
   36DOPE  H18T 4597   6.462   4.032  14.843  0.2191  1.7733 -0.0374
   36DOPE   C33 4598   5.930   3.945  13.711  0.3571 -0.1345  0.5069
   36DOPE   H3X 4599   5.864   3.999  13.639  1.9690 -0.0455 -0.9710
   36DOPE   H3Y 4600   6.000   4.024  13.744  1.2154 -0.9088  0.5635
   36DOPE   C34 4601   5.853   3.903  13.839 -0.2793  0.6303 -0.3573
   36DOPE   H4X 4602   5.800   3.991  13.880 -2.2182 -0.8412  0.4774
   36DOPE   H4Y 4603   5.773   3.828  13.820 -2.2856  2.4863  0.3022
   36DOPE   C35 4604   5.949   3.847  13.942 -0.2240 -0.1864  0.6821
   36DOPE   H5X 4605   5.994   3.934  13.995 -1.4867  1.4490 -0.8270
   36DOPE   H5Y 4606   6.036   3.794  13.897  0.1486  0.8417  0.1731
   36DOPE   C36 4607   5.899   3.735  14.027 -0.3979 -0.2033 -0.2916
   36DOPE   H6X 4608   5.804   3.764  14.076 -1.1446 -2.8049 -0.0567
   36DOPE   H6Y 4609   5.975   3.713  14.105 -1.5649 -3.1990  0.1545
   36DOPE   C37 4610   5.878   3.602  13.957 -0.4685  0.1873 -0.3883
   36DOPE   H7X 4611   5.792   3.606  13.886  1.1759 -1.6589 -2.6371
   36DOPE   H7Y 4612   5.962   3.584  13.886  0.5310  1.3805  0.4684
   36DOPE   C38 4613   5.873   3.486  14.062  0.6374  0.2264  0.7269
   36DOPE   H8X 4614   5.946   3.499  14.145 -1.0226  1.3222  2.0695
   36DOPE   H8Y 4615   5.908   3.397  14.006 -0.0102  1.0403 -1.0484
   36DOPE   C39 4616   5.730   3.479  14.124 -1.2231  0.3692  0.4140
   36DOPE   H9X 4617   5.648   3.503  14.055 -0.8260 -1.8435 -0.8967
   36DOPE  C310 4618   5.688   3.456  14.246 -0.0260  0.0169 -0.0738
   36DOPE  H10X 4619   5.582   3.471  14.275  0.2129 -1.8881  2.0808
   36DOPE  C311 4620   5.778   3.416  14.358  0.6627 -0.6568  0.2999
   36DOPE  H11X 4621   5.878   3.391  14.316 -0.3432  1.0024 -3.5521
   36DOPE  H11Y 4622   5.791   3.511  14.414 -2.5245 -0.5957  1.1257
   36DOPE  C312 4623   5.725   3.308  14.459  0.2054 -0.4303  0.5084
   36DOPE  H12X 4624   5.771   3.208  14.448 -0.3181 -0.6456  0.2425
   36DOPE  H12Y 4625   5.617   3.295  14.435  1.0397 -0.9887 -3.6182
   36DOPE  C313 4626   5.730   3.358  14.605  0.5612  0.3636 -0.8903
   36DOPE  H13X 4627   5.836   3.372  14.633  0.1747 -0.8499  1.5031
   36DOPE  H13Y 4628   5.672   3.453  14.601  1.3205  0.8873  0.2008
   36DOPE  C314 4629   5.665   3.257  14.702  0.4088 -0.0726 -0.5106
   36DOPE  H14X 4630   5.732   3.169  14.710  1.1689  0.6733  3.0327
   36DOPE  H14Y 4631   5.562   3.235  14.667 -0.5789  0.7410  1.7518
   36DOPE  C315 4632   5.658   3.311  14.848 -0.5901 -0.0464 -0.6505
   36DOPE  H15X 4633   5.757   3.354  14.877 -2.4346  2.1357  3.1275
   36DOPE  H15Y 4634   5.624   3.238  14.923  3.7470 -0.2091  1.4629
   36DOPE  C316 4635   5.565   3.436  14.863 -0.2839 -0.4933  0.3718
   36DOPE  H16X 4636   5.467   3.388  14.840  0.8118 -3.0261  0.7142
   36DOPE  H16Y 4637   5.588   3.522  14.797 -0.1829  1.3221  2.6692
   36DOPE  C317 4638   5.582   3.493  15.005  0.5380 -0.3398  0.0528
   36DOPE  H17X 4639   5.497   3.562  15.026 -0.6531 -1.4077 -1.0561
   36DOPE  H17Y 4640   5.562   3.410  15.076 -1.2391 -1.6572 -1.8619
   36DOPE  C318 4641   5.712   3.564  15.041 -0.0043 -0.9495  0.1818
   36DOPE  H18X 4642   5.700   3.625  15.133  0.5644 -0.1270 -0.2803
   36DOPE  H18Y 4643   5.805   3.503  15.054  2.0902  1.8769 -0.5163
   36DOPE  H18Z 4644   5.733   3.626  14.952 -0.4121 -0.6862  0.2691
   37DOPE     N 4645   1.882   2.707  12.433  0.5158 -0.0031  0.0623
   37DOPE   HN1 4646   1.940   2.723  12.518  2.8700  0.3958 -1.5404
   37DOPE   HN2 4647   1.795   2.659  12.464  0.6049  0.7024  1.4586
   37DOPE   HN3 4648   1.938   2.640  12.376  0.9531 -1.0108  1.6239
   37DOPE   C12 4649   1.838   2.835  12.363 -0.0920  0.2612  0.6772
   37DOPE  H12A 4650   1.734   2.860  12.395 -0.2796 -0.8665  1.0155
   37DOPE  H12B 4651   1.828   2.813  12.255 -1.3140 -0.4062  0.9091
   37DOPE   C11 4652   1.938   2.946  12.396 -0.3009 -0.0768  0.5280
   37DOPE  H11A 4653   1.891   3.041  12.365 -0.1700  0.4916  1.9735
   37DOPE  H11B 4654   2.034   2.926  12.343  0.3077 -0.7563  1.8197
   37DOPE     P 4655   2.064   3.071  12.574 -0.2315  0.4268  0.2047
   37DOPE   O13 4656   2.010   3.190  12.509 -0.0225 -0.4745 -0.1111
   37DOPE   O14 4657   2.206   3.026  12.544  0.4764  0.1349 -0.3312
   37DOPE   O11 4658   2.047   3.099  12.723  0.0919 -0.5659 -0.5269
   37DOPE   O12 4659   1.964   2.951  12.538 -0.1107 -0.1001  0.2057
   37DOPE    C1 4660   2.045   2.992  12.820 -0.6202  0.8973  0.1259
   37DOPE    HA 4661   2.148   2.957  12.846 -1.0725  0.4286  1.3571
   37DOPE    HB 4662   1.985   2.903  12.791  0.5524 -0.2861  1.1945
   37DOPE    C2 4663   1.980   3.044  12.954  0.1557  0.0096  0.1954
   37DOPE    HS 4664   1.896   3.115  12.933 -0.0526  0.3616  1.9943
   37DOPE   O21 4665   2.076   3.114  13.040  1.0448  0.2016  0.4939
   37DOPE   C21 4666   2.027   3.198  13.140  0.4222  0.5586 -0.4622
   37DOPE   O22 4667   1.910   3.229  13.149 -0.0379  0.6612 -0.6117
   37DOPE   C22 4668   2.131   3.235  13.234 -0.2110  0.2333 -0.5655
   37DOPE   H2R 4669   2.210   3.286  13.175 -0.3086  2.1443  0.8545
   37DOPE   H2S 4670   2.180   3.148  13.282 -0.1544  0.9026  0.6320
   37DOPE    C3 4671   1.908   2.932  13.038 -1.0251  0.6377  0.5438
   37DOPE    HX 4672   1.829   2.900  12.966 -0.1009 -4.2580  1.3668
   37DOPE    HY 4673   1.854   2.972  13.127 -0.6575  2.1599  0.1164
   37DOPE   O31 4674   2.000   2.825  13.065  0.5488  0.4108  0.3707
   37DOPE   C31 4675   2.039   2.827  13.186  0.5503  0.8615 -1.2076
   37DOPE   O32 4676   2.000   2.901  13.278  0.0689 -0.3778  0.2511
   37DOPE   C32 4677   2.138   2.706  13.207  0.5020  0.3804  0.4056
   37DOPE   H2X 4678   2.092   2.615  13.164 -0.4128  1.1219 -0.2310
   37DOPE   H2Y 4679   2.222   2.742  13.143  1.3936 -2.0174  0.1259
   37DOPE   C23 4680   2.086   3.334  13.341  0.1713 -0.5885  1.1800
   37DOPE   H3R 4681   2.010   3.289  13.409 -1.1874 -0.7476 -0.3812
   37DOPE   H3S 4682   2.038   3.417  13.286 -0.5167 -1.6869  0.0678
   37DOPE   C24 4683   2.200   3.379  13.430  0.2712  0.1242  0.4416
   37DOPE   H4R 4684   2.274   3.439  13.373 -0.2352 -0.5249 -0.9650
   37DOPE   H4S 4685   2.243   3.282  13.464 -0.2117  0.0930  0.9711
   37DOPE   C25 4686   2.143   3.439  13.564 -0.4047  1.0336  0.1418
   37DOPE   H5R 4687   2.095   3.350  13.609 -0.9341  0.6912 -1.0522
   37DOPE   H5S 4688   2.077   3.524  13.535 -1.8854 -0.5502 -1.4167
   37DOPE   C26 4689   2.249   3.488  13.668 -0.5959  0.0722 -0.0982
   37DOPE   H6R 4690   2.202   3.539  13.755  3.9633  1.2896  1.9247
   37DOPE   H6S 4691   2.315   3.565  13.624 -0.4919  0.1792  0.2450
   37DOPE   C27 4692   2.320   3.376  13.735  0.0353  0.4571  0.2287
   37DOPE   H7R 4693   2.383   3.320  13.662  0.5259  1.0472  0.1938
   37DOPE   H7S 4694   2.246   3.301  13.771 -0.9779  0.0379 -2.4706
   37DOPE   C28 4695   2.412   3.420  13.852 -0.4520  0.2550  0.1420
   37DOPE   H8R 4696   2.362   3.456  13.945 -0.1230 -0.4945  0.6112
   37DOPE   H8S 4697   2.470   3.508  13.816  1.3396 -0.9264  0.0708
   37DOPE   C29 4698   2.509   3.315  13.901 -0.9761 -0.4157  0.1550
   37DOPE   H9R 4699   2.584   3.298  13.821 -1.5760  0.5508 -0.6395
   37DOPE  C210 4700   2.532   3.255  14.017 -0.4587  0.5709  0.0927
   37DOPE  H10R 4701   2.601   3.171  14.036 -0.7874 -0.0156 -1.2306
   37DOPE  C211 4702   2.441   3.260  14.135 -0.2185 -0.5845  0.0625
   37DOPE  H11R 4703   2.384   3.168  14.162 -0.5986  0.0948  1.7680
   37DOPE  H11S 4704   2.359   3.335  14.122  0.9676  0.6157 -0.7367
   37DOPE  C212 4705   2.513   3.313  14.263  0.0646  0.2423 -1.3434
   37DOPE  H12R 4706   2.602   3.370  14.230  0.3486  0.0263 -0.9547
   37DOPE  H12S 4707   2.558   3.230  14.321 -0.8108 -0.4757 -1.6592
   37DOPE  C213 4708   2.418   3.380  14.358 -0.4200  0.4037  0.4426
   37DOPE  H13R 4709   2.345   3.302  14.386  0.9420 -1.0286  0.1626
   37DOPE  H13S 4710   2.373   3.466  14.305  0.3993 -0.0120 -0.9832
   37DOPE  C214 4711   2.486   3.415  14.495 -0.4614  0.2192 -0.0239
   37DOPE  H14R 4712   2.574   3.477  14.468  0.9323 -1.1063  1.2459
   37DOPE  H14S 4713   2.536   3.320  14.523  1.1516  0.9062 -0.4777
   37DOPE  C215 4714   2.397   3.495  14.598 -0.3647  0.1238  0.5993
   37DOPE  H15R 4715   2.307   3.437  14.626 -0.5506  0.9336  1.7474
   37DOPE  H15S 4716   2.354   3.586  14.550  0.0653 -0.1786 -0.3830
   37DOPE  C216 4717   2.475   3.537  14.721  0.5216 -0.1190  0.4401
   37DOPE  H16R 4718   2.568   3.578  14.677 -0.6850  0.9405 -1.2357
   37DOPE  H16S 4719   2.501   3.452  14.788  1.2628  2.4732  3.7483
   37DOPE  C217 4720   2.424   3.658  14.790  0.7135 -0.5894 -0.0640
   37DOPE  H17R 4721   2.325   3.646  14.839 -0.3090 -0.5253 -2.0234
   37DOPE  H17S 4722   2.404   3.751  14.733 -0.3127 -1.8645 -1.9025
   37DOPE  C218 4723   2.518   3.699  14.907  0.1303 -0.0708 -0.1953
   37DOPE  H18R 4724   2.555   3.602  14.947 -2.5804 -1.2387 -0.2454
   37DOPE  H18S 4725   2.463   3.753  14.988  0.6620  1.2941 -0.7156
   37DOPE  H18T 4726   2.591   3.770  14.865 -0.5295  0.1540 -0.9975
   37DOPE   C33 4727   2.181   2.685  13.357 -0.5099  0.2053 -0.0297
   37DOPE   H3X 4728   2.207   2.783  13.401 -2.1216 -1.3234  5.1418
   37DOPE   H3Y 4729   2.267   2.615  13.373 -1.6921 -1.0216  1.3120
   37DOPE   C34 4730   2.069   2.627  13.449  0.2115  0.4840  0.2743
   37DOPE   H4X 4731   1.984   2.699  13.454 -1.4000 -1.2501 -0.6617
   37DOPE   H4Y 4732   2.034   2.532  13.404 -0.6834  0.6847  0.5166
   37DOPE   C35 4733   2.134   2.603  13.583  0.0609 -0.2085  0.0831
   37DOPE   H5X 4734   2.170   2.700  13.624 -0.5762 -0.0210  0.2039
   37DOPE   H5Y 4735   2.225   2.539  13.579  0.8476  0.7926  1.2584
   37DOPE   C36 4736   2.032   2.557  13.694  0.0988 -0.3684 -0.4697
   37DOPE   H6X 4737   1.960   2.476  13.670 -0.3124  0.1766 -1.1108
   37DOPE   H6Y 4738   1.979   2.649  13.726  1.0302 -0.3318  1.0445
   37DOPE   C37 4739   2.100   2.514  13.822 -0.5723  1.0349  0.2703
   37DOPE   H7X 4740   2.147   2.415  13.802  1.8809  1.7964  1.8424
   37DOPE   H7Y 4741   2.186   2.581  13.843 -0.1283  0.7534 -0.6006
   37DOPE   C38 4742   2.013   2.503  13.944  0.0643 -0.2332  0.5108
   37DOPE   H8X 4743   1.957   2.598  13.960 -1.7611 -1.4869  1.9925
   37DOPE   H8Y 4744   2.080   2.492  14.032  2.2691 -0.6398 -1.1369
   37DOPE   C39 4745   1.919   2.388  13.926  0.2739  0.3466 -0.1119
   37DOPE   H9X 4746   1.820   2.413  13.883 -0.0561 -0.1711  0.3423
   37DOPE  C310 4747   1.937   2.266  13.973  0.2206  0.4295  0.4198
   37DOPE  H10X 4748   1.856   2.193  13.956  0.5741 -0.0714  0.8597
   37DOPE  C311 4749   2.057   2.208  14.040  0.0232  0.2112 -0.0137
   37DOPE  H11X 4750   2.090   2.127  13.971 -0.1718 -1.6371  1.9602
   37DOPE  H11Y 4751   2.146   2.274  14.029  0.3366 -0.2408 -0.2542
   37DOPE  C312 4752   2.047   2.151  14.181  0.2620 -0.2831 -0.2403
   37DOPE  H12X 4753   2.137   2.090  14.201 -0.0896 -0.1278  2.2131
   37DOPE  H12Y 4754   1.954   2.091  14.191  1.7236 -2.3880  1.8363
   37DOPE  C313 4755   2.046   2.263  14.289 -0.3511 -0.1521  0.2321
   37DOPE  H13X 4756   2.136   2.324  14.268 -1.5934  1.9622  0.7506
   37DOPE  H13Y 4757   1.955   2.326  14.289 -0.0252  0.3375  0.8828
   37DOPE  C314 4758   2.056   2.207  14.426  0.3830  0.1667  0.2135
   37DOPE  H14X 4759   2.140   2.136  14.444  0.6074  0.7482  1.5945
   37DOPE  H14Y 4760   1.956   2.174  14.461  0.5895 -0.1924  0.4709
   37DOPE  C315 4761   2.092   2.319  14.525 -0.4655 -0.2494  1.0216
   37DOPE  H15X 4762   2.005   2.387  14.510 -0.8440 -0.7216  1.0515
   37DOPE  H15Y 4763   2.185   2.367  14.487 -1.9730  1.6391 -0.4945
   37DOPE  C316 4764   2.101   2.270  14.670  0.4455 -0.1152 -0.2990
   37DOPE  H16X 4765   2.173   2.186  14.670  0.9583  0.2497  2.0844
   37DOPE  H16Y 4766   2.003   2.233  14.704 -0.0395  1.6362  0.3125
   37DOPE  C317 4767   2.145   2.379  14.762 -0.1267 -0.1396 -0.2813
   37DOPE  H17X 4768   2.249   2.405  14.733 -0.1578  3.4181  2.1834
   37DOPE  H17Y 4769   2.086   2.471  14.742 -1.0357 -0.2344  1.6855
   37DOPE  C318 4770   2.141   2.334  14.907 -0.2327  0.1563 -0.0979
   37DOPE  H18X 4771   2.036   2.342  14.942 -0.1908 -4.5300  1.9665
   37DOPE  H18Y 4772   2.161   2.224  14.912 -1.5160 -0.0514  1.0302
   37DOPE  H18Z 4773   2.213   2.393  14.967 -1.7596  1.2809  0.6908
   38DOPE     N 4774   5.309   4.333  12.910  0.2687 -0.2913 -0.1393
   38DOPE   HN1 4775   5.285   4.300  12.815  0.0494 -1.2933  0.2450
   38DOPE   HN2 4776   5.372   4.415  12.914 -2.5191  2.0353 -0.2562
   38DOPE   HN3 4777   5.363   4.252  12.945  3.6473  1.2458 -1.4085
   38DOPE   C12 4778   5.192   4.360  13.008 -0.0836  0.8164 -0.6177
   38DOPE  H12A 4779   5.238   4.332  13.105 -1.7025  0.3842  0.0626
   38DOPE  H12B 4780   5.122   4.278  12.983  1.8357 -0.6666 -1.3476
   38DOPE   C11 4781   5.132   4.497  13.008  0.3662  0.0886 -0.8643
   38DOPE  H11A 4782   5.192   4.569  13.069 -1.9238 -0.8097  2.7463
   38DOPE  H11B 4783   5.034   4.483  13.057  0.3713 -1.0066 -1.1322
   38DOPE     P 4784   4.983   4.577  12.811  0.2774 -0.0207  0.0791
   38DOPE   O13 4785   4.887   4.464  12.818 -0.1084  0.1362 -0.3211
   38DOPE   O14 4786   5.026   4.631  12.682 -0.3381  0.8869 -0.0131
   38DOPE   O11 4787   4.941   4.694  12.908  0.0521 -0.0924 -0.3525
   38DOPE   O12 4788   5.120   4.536  12.878 -0.0919  0.0360  0.1164
   38DOPE    C1 4789   4.848   4.789  12.880  0.0481 -0.2263 -0.3841
   38DOPE    HA 4790   4.810   4.785  12.776 -2.5943  0.0081  0.4720
   38DOPE    HB 4791   4.891   4.889  12.904 -0.7207  0.5893 -2.1712
   38DOPE    C2 4792   4.718   4.771  12.972 -0.3826  0.4628 -0.0015
   38DOPE    HS 4793   4.680   4.875  12.967  1.1240  0.9929 -1.9861
   38DOPE   O21 4794   4.756   4.705  13.096 -0.0832  0.1630 -0.0724
   38DOPE   C21 4795   4.856   4.763  13.168 -0.1323 -0.2716 -0.1547
   38DOPE   O22 4796   4.902   4.873  13.146 -0.2984  0.5470 -0.7287
   38DOPE   C22 4797   4.902   4.667  13.278 -0.2097 -0.1909  1.1573
   38DOPE   H2R 4798   4.999   4.615  13.260 -0.4516 -0.5003  0.6965
   38DOPE   H2S 4799   4.830   4.583  13.289  0.2418 -0.6929  0.3702
   38DOPE    C3 4800   4.616   4.674  12.898 -0.0085 -0.2627 -0.4664
   38DOPE    HX 4801   4.672   4.582  12.870  0.3651 -0.9223  2.1717
   38DOPE    HY 4802   4.576   4.723  12.807 -3.6821 -1.0365  0.5636
   38DOPE   O31 4803   4.499   4.650  12.977 -0.4807 -0.1922 -0.1688
   38DOPE   C31 4804   4.491   4.526  13.023 -0.0843  0.3707 -0.5976
   38DOPE   O32 4805   4.553   4.430  12.991 -0.4157 -0.2279  0.1361
   38DOPE   C32 4806   4.378   4.520  13.132  0.2692 -0.4129  1.0959
   38DOPE   H2X 4807   4.285   4.539  13.073 -0.0832  0.1132  1.8164
   38DOPE   H2Y 4808   4.374   4.411  13.155  0.4987 -0.6911 -0.1049
   38DOPE   C23 4809   4.915   4.747  13.406 -0.0865  0.6141 -0.4780
   38DOPE   H3R 4810   4.874   4.850  13.398  1.1647  1.2358  0.6471
   38DOPE   H3S 4811   5.023   4.767  13.425 -0.6360  1.4396  2.2514
   38DOPE   C24 4812   4.851   4.678  13.522  0.1792  0.4223 -0.2595
   38DOPE   H4R 4813   4.865   4.570  13.501  1.3594  0.8971 -2.1502
   38DOPE   H4S 4814   4.741   4.697  13.524 -0.0369 -0.7584  0.0038
   38DOPE   C25 4815   4.911   4.707  13.652 -0.0148 -0.2875 -0.8513
   38DOPE   H5R 4816   4.975   4.797  13.651  2.5009 -1.9909 -0.9900
   38DOPE   H5S 4817   4.991   4.631  13.657  0.2112 -0.0630 -1.0584
   38DOPE   C26 4818   4.819   4.689  13.772  0.9332 -0.5955 -0.0300
   38DOPE   H6R 4819   4.790   4.583  13.783  0.4856 -0.3400  1.3421
   38DOPE   H6S 4820   4.730   4.751  13.749  1.6157  0.2520 -0.4757
   38DOPE   C27 4821   4.883   4.718  13.911 -0.1803 -0.5281  0.0747
   38DOPE   H7R 4822   4.928   4.820  13.918 -0.2604 -0.4640 -0.3215
   38DOPE   H7S 4823   4.967   4.646  13.922  0.3547  0.2490  1.4163
   38DOPE   C28 4824   4.795   4.707  14.034  0.0490 -0.4811 -0.5875
   38DOPE   H8R 4825   4.707   4.774  14.049 -0.3464 -1.3943  1.4927
   38DOPE   H8S 4826   4.865   4.726  14.117 -1.2062  2.1275 -0.0252
   38DOPE   C29 4827   4.729   4.566  14.037  0.3223 -0.1141  0.2810
   38DOPE   H9R 4828   4.654   4.547  13.959 -0.4302  0.5850  0.8167
   38DOPE  C210 4829   4.750   4.473  14.127 -0.3997  0.2171 -0.3797
   38DOPE  H10R 4830   4.696   4.379  14.111  0.3348  0.0826 -2.3694
   38DOPE  C211 4831   4.863   4.471  14.223  0.4853  0.2976 -0.2570
   38DOPE  H11R 4832   4.949   4.535  14.194  0.4835  0.3920 -0.0570
   38DOPE  H11S 4833   4.909   4.369  14.219  0.1511  0.1210  0.2475
   38DOPE  C212 4834   4.816   4.501  14.362 -1.2027 -0.0184 -0.3715
   38DOPE  H12R 4835   4.720   4.457  14.397 -0.0646 -1.3611  1.2399
   38DOPE  H12S 4836   4.792   4.610  14.361 -1.0755  0.0086 -0.7093
   38DOPE  C213 4837   4.927   4.469  14.468  0.1602 -0.1944  0.1153
   38DOPE  H13R 4838   5.028   4.506  14.441  1.3674 -2.6865  0.8867
   38DOPE  H13S 4839   4.945   4.360  14.476 -1.2274 -0.6235 -1.9657
   38DOPE  C214 4840   4.911   4.528  14.608  0.6300 -1.0264  0.3116
   38DOPE  H14R 4841   5.005   4.521  14.667  0.7136  1.8924  0.6816
   38DOPE  H14S 4842   4.849   4.452  14.661  3.0531 -2.7488  0.8631
   38DOPE  C215 4843   4.860   4.667  14.621 -0.1189  0.1240  0.2352
   38DOPE  H15R 4844   4.756   4.677  14.581 -0.6874 -0.4837  1.5029
   38DOPE  H15S 4845   4.929   4.730  14.561  2.0055 -2.7962 -0.6167
   38DOPE  C216 4846   4.856   4.712  14.768  0.6854  0.6343  0.8839
   38DOPE  H16R 4847   4.957   4.690  14.809 -0.0557 -1.7090  1.5858
   38DOPE  H16S 4848   4.785   4.643  14.819  1.6920 -1.2353 -0.1409
   38DOPE  C217 4849   4.808   4.858  14.800 -0.1237  0.9310  0.9416
   38DOPE  H17R 4850   4.894   4.923  14.775  0.9595 -0.8766 -0.2359
   38DOPE  H17S 4851   4.782   4.883  14.905  0.4688  2.8487  0.6750
   38DOPE  C218 4852   4.689   4.905  14.708 -0.1141  0.3067  0.2981
   38DOPE  H18R 4853   4.720   4.944  14.608 -2.3645  0.4084 -0.4328
   38DOPE  H18S 4854   4.635   4.988  14.758 -0.7731  1.6918 -2.4745
   38DOPE  H18T 4855   4.627   4.813  14.701  1.0695 -0.6971  2.2292
   38DOPE   C33 4856   4.372   4.602  13.265  0.5041  0.7611  0.0025
   38DOPE   H3X 4857   4.266   4.603  13.297  0.1125 -0.2720 -1.1763
   38DOPE   H3Y 4858   4.397   4.709  13.252  0.9941  0.6659  0.1466
   38DOPE   C34 4859   4.457   4.548  13.379 -0.0154  0.2215  0.1822
   38DOPE   H4X 4860   4.428   4.442  13.395 -3.1348  0.6538 -1.6995
   38DOPE   H4Y 4861   4.563   4.564  13.353  0.3565 -1.8177  0.3182
   38DOPE   C35 4862   4.427   4.643  13.499 -0.0126 -0.1115 -0.4884
   38DOPE   H5X 4863   4.316   4.649  13.495 -0.0598 -0.2324  0.4972
   38DOPE   H5Y 4864   4.473   4.741  13.475 -1.5262  0.3196 -1.7616
   38DOPE   C36 4865   4.492   4.592  13.630  0.2971  0.0553 -0.4662
   38DOPE   H6X 4866   4.601   4.589  13.611  0.3795  1.5029 -0.2972
   38DOPE   H6Y 4867   4.464   4.486  13.648 -1.4850  0.5702 -0.0491
   38DOPE   C37 4868   4.463   4.696  13.744 -0.2485  0.0394  0.1582
   38DOPE   H7X 4869   4.538   4.687  13.825  1.2641 -1.7474 -1.3467
   38DOPE   H7Y 4870   4.490   4.794  13.698  0.6370  0.7536  2.1139
   38DOPE   C38 4871   4.311   4.704  13.776 -0.5824 -0.0830 -0.0530
   38DOPE   H8X 4872   4.256   4.754  13.694  1.1271  2.0349  0.0124
   38DOPE   H8Y 4873   4.298   4.775  13.860 -0.9632 -1.5279  1.1656
   38DOPE   C39 4874   4.251   4.569  13.816 -0.1545 -0.0411  0.0824
   38DOPE   H9X 4875   4.206   4.518  13.730 -2.4044  0.0382  1.1433
   38DOPE  C310 4876   4.248   4.508  13.937 -0.6921  0.4196 -0.1980
   38DOPE  H10X 4877   4.208   4.407  13.950  0.1638  0.1230  0.1886
   38DOPE  C311 4878   4.307   4.559  14.065  0.1591 -0.6363  0.1996
   38DOPE  H11X 4879   4.415   4.539  14.082 -0.2750 -2.5479  1.0371
   38DOPE  H11Y 4880   4.297   4.669  14.068  0.0418 -0.6329 -0.2639
   38DOPE  C312 4881   4.242   4.510  14.200  0.0140  0.2457 -0.1072
   38DOPE  H12X 4882   4.254   4.401  14.221 -2.1190 -0.2974 -1.4337
   38DOPE  H12Y 4883   4.135   4.531  14.181 -0.1149 -2.1077 -2.6596
   38DOPE  C313 4884   4.292   4.593  14.316  0.6216  0.0341  0.0640
   38DOPE  H13X 4885   4.242   4.692  14.310 -1.3148 -0.9768 -2.8732
   38DOPE  H13Y 4886   4.257   4.543  14.409  0.6308 -0.0381  0.0283
   38DOPE  C314 4887   4.445   4.615  14.329 -0.0201  0.0053  0.2413
   38DOPE  H14X 4888   4.473   4.675  14.240 -1.1516  0.6349  0.2962
   38DOPE  H14Y 4889   4.500   4.518  14.324  0.6506  0.4089 -0.3982
   38DOPE  C315 4890   4.479   4.700  14.453 -0.0085 -0.1133  0.2496
   38DOPE  H15X 4891   4.590   4.703  14.456  0.2263 -3.0449 -1.3958
   38DOPE  H15Y 4892   4.443   4.641  14.541  0.4851 -0.7445  0.0390
   38DOPE  C316 4893   4.415   4.835  14.447 -1.0914 -0.0943 -0.6089
   38DOPE  H16X 4894   4.453   4.892  14.534  0.7650  0.9611 -2.0451
   38DOPE  H16Y 4895   4.305   4.841  14.461 -0.9644  1.0183  0.0235
   38DOPE  C317 4896   4.461   4.927  14.334  0.1973 -0.2410  0.4759
   38DOPE  H17X 4897   4.431   4.884  14.236  2.6051  0.2190 -0.5396
   38DOPE  H17Y 4898   4.396   5.016  14.345 -1.5359 -1.3013 -0.6411
   38DOPE  C318 4899   4.611   4.961  14.333  0.2264  0.2199  0.0584
   38DOPE  H18X 4900   4.631   5.028  14.419  1.3099 -0.7815  0.6046
   38DOPE  H18Y 4901   4.679   4.875  14.349 -0.4951 -0.7160 -1.6539
   38DOPE  H18Z 4902   4.647   5.019  14.245  2.0428  0.3921  0.8581
   39DOPE     N 4903   1.242   2.063  12.496 -0.4788 -0.3384  0.1255
   39DOPE   HN1 4904   1.221   2.054  12.394  0.5821  1.0710 -0.2490
   39DOPE   HN2 4905   1.341   2.094  12.507 -0.1607 -1.5506  0.7486
   39DOPE   HN3 4906   1.240   1.973  12.548  0.1466  0.0561  0.8459
   39DOPE   C12 4907   1.147   2.155  12.563 -0.0295  0.0344 -0.2679
   39DOPE  H12A 4908   1.178   2.139  12.668  0.1352  2.2061  0.0596
   39DOPE  H12B 4909   1.044   2.120  12.539 -0.8374  0.5258  2.1737
   39DOPE   C11 4910   1.167   2.299  12.517  0.1447  0.4228  0.0538
   39DOPE  H11A 4911   1.101   2.371  12.571  1.7158  1.6959  0.3561
   39DOPE  H11B 4912   1.133   2.304  12.412  2.6403  1.7508 -0.7848
   39DOPE     P 4913   1.355   2.408  12.655 -0.0673 -0.2735  0.3795
   39DOPE   O13 4914   1.438   2.521  12.604  0.2830 -0.6092 -0.1256
   39DOPE   O14 4915   1.418   2.313  12.740  0.4985  0.8795 -0.1127
   39DOPE   O11 4916   1.222   2.460  12.718  0.3419  0.1781 -0.5123
   39DOPE   O12 4917   1.304   2.343  12.524 -0.0853  0.0337  0.6994
   39DOPE    C1 4918   1.154   2.390  12.820  0.4505  0.2937  0.0631
   39DOPE    HA 4919   1.173   2.280  12.822  0.6116  0.3176 -0.0663
   39DOPE    HB 4920   1.045   2.399  12.801  0.7100 -0.6649 -2.2852
   39DOPE    C2 4921   1.187   2.442  12.958 -1.0141  0.2727 -0.7102
   39DOPE    HS 4922   1.141   2.543  12.954 -2.5787 -0.4049 -0.4272
   39DOPE   O21 4923   1.330   2.439  12.987  0.0390  0.6873 -0.1372
   39DOPE   C21 4924   1.395   2.549  12.966 -0.0004  0.1953 -0.1945
   39DOPE   O22 4925   1.348   2.656  12.934  0.5940  0.1520  0.0150
   39DOPE   C22 4926   1.547   2.528  12.984  0.0915  0.2330  0.3371
   39DOPE   H2R 4927   1.587   2.542  12.881 -3.3920 -1.9963 -1.5392
   39DOPE   H2S 4928   1.573   2.422  13.005 -1.0978 -0.3471 -0.9284
   39DOPE    C3 4929   1.118   2.357  13.068 -0.0392 -0.0974  0.7048
   39DOPE    HX 4930   1.171   2.260  13.074  0.4687  0.2601  2.6285
   39DOPE    HY 4931   1.016   2.347  13.026 -0.5213  2.9632  0.9142
   39DOPE   O31 4932   1.105   2.428  13.193 -0.3303 -0.0108 -0.7010
   39DOPE   C31 4933   1.190   2.395  13.287 -0.7199 -0.1262 -0.0851
   39DOPE   O32 4934   1.282   2.314  13.279 -0.0177  0.1921 -0.1424
   39DOPE   C32 4935   1.184   2.505  13.393 -0.5997  0.5606 -0.3032
   39DOPE   H2X 4936   1.258   2.582  13.366  2.4178 -2.6902 -2.1441
   39DOPE   H2Y 4937   1.078   2.538  13.396  0.1917  3.3741 -0.7123
   39DOPE   C23 4938   1.609   2.616  13.101 -0.0353  0.1468  0.6778
   39DOPE   H3R 4939   1.557   2.590  13.195  0.1707  2.2165  1.3933
   39DOPE   H3S 4940   1.597   2.721  13.069  0.7642  0.0791  0.1058
   39DOPE   C24 4941   1.761   2.601  13.123 -0.5545  0.8280  0.4960
   39DOPE   H4R 4942   1.792   2.683  13.192  1.7871 -0.3350  0.9131
   39DOPE   H4S 4943   1.808   2.637  13.029  0.5134  1.5800  1.2807
   39DOPE   C25 4944   1.802   2.461  13.182 -0.2936 -0.0351  0.1307
   39DOPE   H5R 4945   1.913   2.449  13.181 -0.1957  0.8219 -0.6601
   39DOPE   H5S 4946   1.764   2.378  13.118  2.4742  0.0413 -1.7841
   39DOPE   C26 4947   1.760   2.445  13.326 -0.1716  0.0683  0.1081
   39DOPE   H6R 4948   1.650   2.459  13.339 -0.7050 -2.4791 -1.0274
   39DOPE   H6S 4949   1.808   2.515  13.398 -0.4702  0.4757 -0.0850
   39DOPE   C27 4950   1.784   2.303  13.374  0.3412  0.2190 -0.2709
   39DOPE   H7R 4951   1.894   2.287  13.371  0.5287  1.3406  0.2745
   39DOPE   H7S 4952   1.739   2.236  13.297  1.3642 -1.3089  0.4091
   39DOPE   C28 4953   1.738   2.263  13.517  0.0855 -0.5408 -0.2392
   39DOPE   H8R 4954   1.761   2.347  13.586  1.4792 -1.0832 -0.0241
   39DOPE   H8S 4955   1.796   2.178  13.558 -1.1835 -0.7452  1.2077
   39DOPE   C29 4956   1.587   2.233  13.527  0.2085  0.1318 -0.4097
   39DOPE   H9R 4957   1.529   2.296  13.458  1.4968  1.9116  0.0626
   39DOPE  C210 4958   1.528   2.129  13.587  0.1969 -0.5828 -0.0392
   39DOPE  H10R 4959   1.419   2.125  13.603  0.6035 -0.7672  3.1957
   39DOPE  C211 4960   1.591   2.046  13.693 -0.6921  0.5317 -0.0524
   39DOPE  H11R 4961   1.676   2.103  13.738 -0.9907  0.2171  0.9224
   39DOPE  H11S 4962   1.628   1.947  13.657 -3.5271 -0.6795  0.1069
   39DOPE  C212 4963   1.473   2.011  13.779 -0.2775  0.2132 -0.5483
   39DOPE  H12R 4964   1.385   1.969  13.726  0.1009 -0.3342 -0.7539
   39DOPE  H12S 4965   1.430   2.103  13.825  1.0849  0.2042  0.8424
   39DOPE  C213 4966   1.511   1.906  13.895 -0.2639 -0.4691 -0.2805
   39DOPE  H13R 4967   1.587   1.834  13.860  1.7404 -0.0081  2.7320
   39DOPE  H13S 4968   1.420   1.851  13.928 -0.9900  0.8022 -0.0975
   39DOPE  C214 4969   1.559   1.977  14.026  0.0551  0.3531  0.2268
   39DOPE  H14R 4970   1.490   2.060  14.055 -0.2712 -0.0536  0.6228
   39DOPE  H14S 4971   1.656   2.020  13.992  1.0383 -0.1907  2.1697
   39DOPE  C215 4972   1.574   1.875  14.144  0.6452  0.1622  0.2752
   39DOPE  H15R 4973   1.650   1.914  14.215 -1.0220  0.6682  1.8575
   39DOPE  H15S 4974   1.614   1.782  14.099  0.8172 -0.5525  1.8218
   39DOPE  C216 4975   1.442   1.848  14.212 -0.1422  0.5166  0.1190
   39DOPE  H16R 4976   1.379   1.811  14.128  2.2026 -3.6537 -0.0300
   39DOPE  H16S 4977   1.390   1.939  14.248 -3.6597 -0.5348 -1.8108
   39DOPE  C217 4978   1.453   1.746  14.333  0.4447 -0.2571 -0.1665
   39DOPE  H17R 4979   1.545   1.774  14.388  0.6234 -0.4340 -0.3748
   39DOPE  H17S 4980   1.460   1.645  14.288  0.8431 -0.0647 -0.5461
   39DOPE  C218 4981   1.324   1.750  14.422 -0.6603 -0.2107 -0.1425
   39DOPE  H18R 4982   1.235   1.697  14.382  0.5201 -0.9302 -1.9465
   39DOPE  H18S 4983   1.287   1.852  14.448 -1.4666 -1.0173  2.1168
   39DOPE  H18T 4984   1.355   1.702  14.517 -2.3609 -1.8412 -0.3553
   39DOPE   C33 4985   1.215   2.441  13.535 -0.6946  0.2567 -0.1364
   39DOPE   H3X 4986   1.250   2.526  13.596  1.5362 -0.4200 -0.3616
   39DOPE   H3Y 4987   1.300   2.370  13.544 -0.0780  0.7719 -1.4821
   39DOPE   C34 4988   1.106   2.369  13.610 -0.0065 -0.4348 -0.2071
   39DOPE   H4X 4989   1.015   2.433  13.616  1.5659  1.9172 -0.3336
   39DOPE   H4Y 4990   1.078   2.277  13.554  0.2081 -0.7114  0.1357
   39DOPE   C35 4991   1.149   2.336  13.756 -0.0411  0.1843  0.0465
   39DOPE   H5X 4992   1.195   2.429  13.794 -1.7543  0.5604  1.3307
   39DOPE   H5Y 4993   1.227   2.260  13.735 -2.5046 -1.5836 -3.9063
   39DOPE   C36 4994   1.046   2.267  13.842 -0.3905 -0.1808  0.6119
   39DOPE   H6X 4995   1.004   2.192  13.771  2.1714 -0.7828 -0.3901
   39DOPE   H6Y 4996   0.964   2.335  13.872 -1.7424 -1.2420 -0.5458
   39DOPE   C37 4997   1.106   2.186  13.964 -0.3313 -0.1664  0.4715
   39DOPE   H7X 4998   1.024   2.124  14.005 -0.1358 -1.0902 -0.4969
   39DOPE   H7Y 4999   1.185   2.119  13.923 -0.9489  0.2735 -1.5399
   39DOPE   C38 5000   1.170   2.260  14.086 -0.4064  0.4826  0.8218
   39DOPE   H8X 5001   1.270   2.295  14.053  0.0376 -1.8507 -0.5382
   39DOPE   H8Y 5002   1.201   2.188  14.164 -1.1387  2.7749  3.3945
   39DOPE   C39 5003   1.081   2.359  14.151  0.9458  0.0916 -0.1483
   39DOPE   H9X 5004   1.024   2.421  14.080 -0.1673 -2.2322 -1.4084
   39DOPE  C310 5005   1.051   2.366  14.278  0.0457 -0.2280 -0.1682
   39DOPE  H10X 5006   0.979   2.447  14.299 -0.0711 -0.2416 -0.5065
   39DOPE  C311 5007   1.113   2.301  14.401 -0.0623 -0.9988  0.2149
   39DOPE  H11X 5008   1.022   2.256  14.446 -1.6509  2.4879  0.8358
   39DOPE  H11Y 5009   1.187   2.219  14.389  1.8357  0.7122 -0.2522
   39DOPE  C312 5010   1.175   2.396  14.501 -0.6624 -0.2306  0.5336
   39DOPE  H12X 5011   1.100   2.477  14.518  0.2061  0.4267  1.3441
   39DOPE  H12Y 5012   1.268   2.442  14.461 -0.8514  1.0336  1.4646
   39DOPE  C313 5013   1.224   2.340  14.636 -1.1185 -0.3923 -0.1558
   39DOPE  H13X 5014   1.150   2.272  14.683 -0.3577 -0.5497  0.8574
   39DOPE  H13Y 5015   1.314   2.277  14.615  0.1198  0.5362  2.0040
   39DOPE  C314 5016   1.255   2.443  14.745  0.6325  0.0552 -0.4879
   39DOPE  H14X 5017   1.298   2.375  14.823 -0.4660 -0.5996 -0.4396
   39DOPE  H14Y 5018   1.156   2.486  14.771 -0.0620  0.0962 -3.0021
   39DOPE  C315 5019   1.358   2.552  14.726 -0.6575  0.5429  0.9667
   39DOPE  H15X 5020   1.351   2.628  14.806  1.8139  2.4800 -0.4895
   39DOPE  H15Y 5021   1.331   2.597  14.628 -0.4435 -0.2113  0.5437
   39DOPE  C316 5022   1.502   2.504  14.705 -0.3318  0.1970  0.2843
   39DOPE  H16X 5023   1.540   2.597  14.658 -0.1807 -0.7677 -1.5599
   39DOPE  H16Y 5024   1.508   2.419  14.634 -0.5990 -0.4193  0.9761
   39DOPE  C317 5025   1.597   2.466  14.820 -1.1006  0.0526 -0.4171
   39DOPE  H17X 5026   1.600   2.544  14.899  1.8226 -1.7858  1.5160
   39DOPE  H17Y 5027   1.565   2.367  14.858  1.7601 -1.1036 -0.7976
   39DOPE  C318 5028   1.735   2.451  14.764 -0.4520 -0.0770 -0.1025
   39DOPE  H18X 5029   1.806   2.404  14.836  1.4332  1.1318 -1.1001
   39DOPE  H18Y 5030   1.721   2.374  14.685  0.1820  1.7696 -2.1084
   39DOPE  H18Z 5031   1.780   2.545  14.725  0.6415 -0.3302  0.5295
   40DOPE     N 5032   2.661   5.272  12.603 -0.1672 -0.0000 -0.5088
   40DOPE   HN1 5033   2.631   5.228  12.692  0.1399 -2.2155 -1.4300
   40DOPE   HN2 5034   2.580   5.260  12.539 -1.7573 -0.4669  1.5000
   40DOPE   HN3 5035   2.745   5.222  12.567  0.0999  0.3248 -0.3492
   40DOPE   C12 5036   2.689   5.423  12.622  0.3505  0.3725 -0.0521
   40DOPE  H12A 5037   2.592   5.471  12.644  0.2379 -1.1217  3.3054
   40DOPE  H12B 5038   2.729   5.450  12.521 -3.4374  1.1394 -1.4988
   40DOPE   C11 5039   2.782   5.442  12.741  0.1275  0.3850 -0.9639
   40DOPE  H11A 5040   2.796   5.549  12.768 -1.7086  0.4329 -0.1009
   40DOPE  H11B 5041   2.880   5.399  12.709 -1.2601 -1.1117 -3.4839
   40DOPE     P 5042   2.809   5.314  12.981 -0.7115 -0.0262 -0.0212
   40DOPE   O13 5043   2.850   5.173  12.955  0.5979 -0.2569  0.0127
   40DOPE   O14 5044   2.713   5.334  13.093 -0.0863 -0.1407  0.1494
   40DOPE   O11 5045   2.941   5.410  12.988  0.0103  0.1612 -0.6032
   40DOPE   O12 5046   2.727   5.361  12.849  0.2799  0.1747 -0.0847
   40DOPE    C1 5047   2.943   5.500  13.096 -0.2920  0.2414  0.6904
   40DOPE    HA 5048   2.858   5.508  13.167  0.5343 -0.6499  1.8281
   40DOPE    HB 5049   2.966   5.599  13.052 -1.3835  0.1917 -0.0329
   40DOPE    C2 5050   3.061   5.465  13.195  0.6372  0.1469  0.1006
   40DOPE    HS 5051   3.156   5.469  13.138  1.4305 -0.2283  1.3501
   40DOPE   O21 5052   3.036   5.339  13.262 -0.3788 -0.7253 -0.4604
   40DOPE   C21 5053   3.148   5.279  13.300  0.1763  0.1054  0.2781
   40DOPE   O22 5054   3.266   5.320  13.277  0.4811  0.2169  0.0762
   40DOPE   C22 5055   3.110   5.167  13.391  0.1140 -0.0883  0.2027
   40DOPE   H2R 5056   3.058   5.097  13.323  0.0261  1.8200 -1.8284
   40DOPE   H2S 5057   3.054   5.214  13.474 -1.7287 -1.4740 -0.2076
   40DOPE    C3 5058   3.091   5.582  13.302  0.0378 -0.0115  0.1520
   40DOPE    HX 5059   3.100   5.680  13.250 -2.5108  0.1210 -0.1253
   40DOPE    HY 5060   3.191   5.563  13.347  1.7547 -0.3278 -3.4160
   40DOPE   O31 5061   2.994   5.581  13.405 -0.0246  0.5547  0.2499
   40DOPE   C31 5062   2.968   5.696  13.459  0.0070  0.1838 -0.9595
   40DOPE   O32 5063   3.047   5.789  13.462 -0.2837  0.4891 -0.4797
   40DOPE   C32 5064   2.835   5.698  13.526  0.2434  0.2451  0.6004
   40DOPE   H2X 5065   2.763   5.690  13.441  0.8751  2.3143 -0.2078
   40DOPE   H2Y 5066   2.818   5.618  13.600  0.8252  0.8335  1.3766
   40DOPE   C23 5067   3.237   5.076  13.441 -0.0687  0.0422 -0.1907
   40DOPE   H3R 5068   3.313   5.143  13.486  0.7348 -0.8990 -0.1152
   40DOPE   H3S 5069   3.282   5.021  13.355 -2.1637  0.0323 -1.3766
   40DOPE   C24 5070   3.206   4.962  13.541  0.2489 -0.4487 -0.8951
   40DOPE   H4R 5071   3.296   4.899  13.561  0.1835 -0.6647 -1.2693
   40DOPE   H4S 5072   3.117   4.900  13.517 -0.1520 -1.4470  2.5599
   40DOPE   C25 5073   3.170   5.028  13.684 -0.4141  0.3395 -0.3410
   40DOPE   H5R 5074   3.065   5.063  13.676  0.0249  1.6990 -0.4285
   40DOPE   H5S 5075   3.228   5.120  13.707 -1.6880  0.8158  1.0326
   40DOPE   C26 5076   3.184   4.921  13.795  0.3229 -0.1442  0.6337
   40DOPE   H6R 5077   3.287   4.887  13.821  0.9286 -0.1477 -1.5626
   40DOPE   H6S 5078   3.126   4.830  13.768 -0.1168  0.1311  0.6481
   40DOPE   C27 5079   3.121   4.979  13.924  0.1599 -0.5559 -0.0625
   40DOPE   H7R 5080   3.014   5.002  13.909 -0.2478 -1.9726  0.5037
   40DOPE   H7S 5081   3.172   5.069  13.963  0.5022 -1.5667  1.9717
   40DOPE   C28 5082   3.118   4.869  14.033 -0.1553 -0.4602 -0.9319
   40DOPE   H8R 5083   3.223   4.837  14.051  0.3348  1.3885 -0.2230
   40DOPE   H8S 5084   3.076   4.768  14.015 -0.2950 -0.8747  1.3788
   40DOPE   C29 5085   3.043   4.914  14.160 -0.2131  0.1108 -0.2667
   40DOPE   H9R 5086   2.969   4.995  14.149 -0.4596  0.3668  2.5877
   40DOPE  C210 5087   3.053   4.865  14.283 -0.5243  0.9668 -0.4899
   40DOPE  H10R 5088   2.979   4.889  14.361  0.3655 -1.4596  1.2205
   40DOPE  C211 5089   3.147   4.749  14.314 -0.2370 -0.2079 -0.0584
   40DOPE  H11R 5090   3.249   4.793  14.325 -0.8528  1.0155  0.9870
   40DOPE  H11S 5091   3.153   4.675  14.231  3.0811  1.7828 -1.8676
   40DOPE  C212 5092   3.113   4.668  14.439  0.8981  0.2796  0.4578
   40DOPE  H12R 5093   3.175   4.576  14.438 -1.7223 -1.6171 -1.3721
   40DOPE  H12S 5094   3.010   4.629  14.450  0.3437  1.4335 -0.3704
   40DOPE  C213 5095   3.140   4.753  14.566 -0.1823  0.2406 -0.2172
   40DOPE  H13R 5096   3.078   4.845  14.562  0.4907  0.8145  1.4731
   40DOPE  H13S 5097   3.248   4.778  14.563 -0.4204  1.2709 -0.4148
   40DOPE  C214 5098   3.106   4.680  14.698 -0.3873 -0.8971  0.1208
   40DOPE  H14R 5099   3.133   4.576  14.670  0.2386 -0.3043 -1.5707
   40DOPE  H14S 5100   2.996   4.681  14.713 -0.7694  2.0363 -2.1366
   40DOPE  C215 5101   3.181   4.718  14.834  0.3347 -0.9232  0.2649
   40DOPE  H15R 5102   3.275   4.661  14.823  0.8068  0.0499 -1.0436
   40DOPE  H15S 5103   3.125   4.671  14.918 -2.6492 -1.0083 -1.6344
   40DOPE  C216 5104   3.207   4.876  14.847  0.0486 -0.3424  0.3580
   40DOPE  H16R 5105   3.114   4.910  14.798 -0.2315 -0.9863  0.4297
   40DOPE  H16S 5106   3.295   4.911  14.788  1.4939 -1.7371  1.5686
   40DOPE  C217 5107   3.214   4.924  14.986 -0.8148  0.1429 -0.5775
   40DOPE  H17R 5108   3.124   4.887  15.039 -0.5052 -1.7495 -1.2966
   40DOPE  H17S 5109   3.217   5.035  14.993  1.5796  0.1320 -0.5835
   40DOPE  C218 5110   3.332   4.876  15.065  0.8394 -0.3388  0.0466
   40DOPE  H18R 5111   3.318   4.767  15.081  0.3822 -0.0972  1.3679
   40DOPE  H18S 5112   3.349   4.926  15.162  2.9321 -1.7853  0.4857
   40DOPE  H18T 5113   3.430   4.891  15.016  1.0843 -0.5599  0.4663
   40DOPE   C33 5114   2.807   5.830  13.600  0.1676 -0.2796  0.1209
   40DOPE   H3X 5115   2.828   5.907  13.524  1.0223 -0.7450 -0.1219
   40DOPE   H3Y 5116   2.871   5.849  13.688 -0.7684  0.0163  0.7575
   40DOPE   C34 5117   2.660   5.844  13.648 -0.4343 -0.5281  0.3878
   40DOPE   H4X 5118   2.651   5.943  13.698  0.2711 -0.0591 -0.3810
   40DOPE   H4Y 5119   2.586   5.831  13.567  1.1048 -0.9750 -1.0128
   40DOPE   C35 5120   2.614   5.752  13.757  0.0518  1.2738 -1.0359
   40DOPE   H5X 5121   2.624   5.645  13.728 -1.0251  0.3571  1.6533
   40DOPE   H5Y 5122   2.505   5.768  13.771 -0.7505 -1.1975 -3.5248
   40DOPE   C36 5123   2.689   5.774  13.894  0.1073 -0.3758 -0.0126
   40DOPE   H6X 5124   2.679   5.881  13.921 -1.9138 -0.3412 -0.7504
   40DOPE   H6Y 5125   2.797   5.754  13.877  0.0915  0.1868 -0.8158
   40DOPE   C37 5126   2.636   5.692  14.014 -0.1354  0.6384  0.1358
   40DOPE   H7X 5127   2.531   5.720  14.037 -0.2347 -0.4362  1.1273
   40DOPE   H7Y 5128   2.620   5.584  13.991 -1.3435  1.4922 -3.5888
   40DOPE   C38 5129   2.717   5.690  14.148  0.4947 -0.6495  0.3125
   40DOPE   H8X 5130   2.708   5.794  14.187  0.6949  0.4385 -2.3108
   40DOPE   H8Y 5131   2.822   5.670  14.119  1.2159  0.9635  1.6274
   40DOPE   C39 5132   2.666   5.593  14.246 -0.0901  0.7679  0.1897
   40DOPE   H9X 5133   2.601   5.514  14.208  1.0443 -1.5679  2.7420
   40DOPE  C310 5134   2.670   5.596  14.378 -0.5352  0.0808 -0.2537
   40DOPE  H10X 5135   2.600   5.528  14.428 -0.1707 -1.6113 -1.9543
   40DOPE  C311 5136   2.730   5.698  14.469 -0.4404  0.1907  0.7028
   40DOPE  H11X 5137   2.773   5.655  14.562  0.4537  1.1030  0.7292
   40DOPE  H11Y 5138   2.790   5.772  14.413 -0.2609  0.2499  0.9725
   40DOPE  C312 5139   2.611   5.780  14.542  0.5313 -0.6631  0.9447
   40DOPE  H12X 5140   2.538   5.712  14.590 -1.5742  1.2526  0.6315
   40DOPE  H12Y 5141   2.570   5.836  14.455  0.5857  0.8654  1.8573
   40DOPE  C313 5142   2.670   5.879  14.642  0.6360  0.2767 -0.4114
   40DOPE  H13X 5143   2.694   5.820  14.733 -0.1594 -1.6996 -1.4430
   40DOPE  H13Y 5144   2.766   5.922  14.605 -0.4006  1.4773 -1.7948
   40DOPE  C314 5145   2.582   5.992  14.700 -0.5899 -0.0149 -0.3595
   40DOPE  H14X 5146   2.478   5.968  14.731 -0.2764 -1.0963 -0.1216
   40DOPE  H14Y 5147   2.580   6.079  14.630  0.6509 -0.0411 -0.4425
   40DOPE  C315 5148   2.642   6.063  14.830 -0.5598 -0.0651  0.1246
   40DOPE  H15X 5149   2.743   6.102  14.805 -0.3269  0.4663  1.7675
   40DOPE  H15Y 5150   2.645   5.985  14.908 -0.5580 -0.2142 -0.0246
   40DOPE  C316 5151   2.560   6.191  14.873  0.3531  0.1629  0.3471
   40DOPE  H16X 5152   2.457   6.153  14.884  1.3774 -2.2802  2.4784
   40DOPE  H16Y 5153   2.564   6.266  14.791 -1.6940  0.8900  0.8524
   40DOPE  C317 5154   2.619   6.247  15.004  0.3864 -0.3715 -0.4689
   40DOPE  H17X 5155   2.730   6.258  14.998  0.6706 -1.3788  1.9698
   40DOPE  H17Y 5156   2.571   6.345  15.022 -3.3658 -1.7698 -1.8856
   40DOPE  C318 5157   2.583   6.153  15.121  0.1832  0.2855 -0.0474
   40DOPE  H18X 5158   2.588   6.202  15.220 -2.1536 -1.2077  0.9011
   40DOPE  H18Y 5159   2.480   6.111  15.119 -0.7070  2.3613 -1.2784
   40DOPE  H18Z 5160   2.654   6.068  15.118  0.1882  0.1602  2.0596
   41DOPE     N 5161   0.548   2.542  13.047 -0.4534  0.2071  0.7455
   41DOPE   HN1 5162   0.534   2.493  12.956  0.9478  0.4811  0.3681
   41DOPE   HN2 5163   0.548   2.645  13.035 -2.6769  0.1364 -0.3449
   41DOPE   HN3 5164   0.642   2.517  13.084  0.3638 -1.3298 -2.0427
   41DOPE   C12 5165   0.445   2.487  13.144  0.2885 -0.5138 -0.5541
   41DOPE  H12A 5166   0.424   2.388  13.097 -2.0279  0.4397 -1.7015
   41DOPE  H12B 5167   0.350   2.544  13.135 -1.4218 -2.8449  1.4232
   41DOPE   C11 5168   0.508   2.448  13.291 -0.2689 -0.2259 -0.0462
   41DOPE  H11A 5169   0.430   2.401  13.355 -0.4140  0.8923  0.6270
   41DOPE  H11B 5170   0.541   2.539  13.345 -1.0274 -0.2807  0.5377
   41DOPE     P 5171   0.769   2.389  13.285 -0.4144 -0.2046  0.0377
   41DOPE   O13 5172   0.781   2.493  13.183  0.0322  0.0291 -0.0797
   41DOPE   O14 5173   0.845   2.263  13.273 -0.3910 -0.1779  0.8075
   41DOPE   O11 5174   0.789   2.446  13.429  0.4577  0.0068 -0.3178
   41DOPE   O12 5175   0.617   2.357  13.271  0.3105 -0.5249  0.4067
   41DOPE    C1 5176   0.724   2.403  13.548 -0.1941  0.0840 -0.9490
   41DOPE    HA 5177   0.790   2.341  13.613 -0.0307  1.0533 -0.1672
   41DOPE    HB 5178   0.644   2.327  13.531 -0.1494 -0.2586  0.2934
   41DOPE    C2 5179   0.655   2.513  13.640  0.8910  0.2682 -0.5190
   41DOPE    HS 5180   0.565   2.554  13.588 -2.0212 -0.9553  3.1352
   41DOPE   O21 5181   0.747   2.614  13.678 -0.2784  0.5844  0.5826
   41DOPE   C21 5182   0.773   2.703  13.580 -0.5303  0.2761  0.5979
   41DOPE   O22 5183   0.712   2.714  13.478  0.4718 -0.3013 -0.2209
   41DOPE   C22 5184   0.910   2.768  13.608  0.6218  0.0171 -0.3167
   41DOPE   H2R 5185   0.989   2.691  13.596  0.8502 -0.2746  2.3802
   41DOPE   H2S 5186   0.901   2.804  13.712 -0.4242  0.2719 -0.4832
   41DOPE    C3 5187   0.602   2.452  13.770 -0.3223  0.2949  0.1095
   41DOPE    HX 5188   0.685   2.421  13.837  0.1158 -0.0049 -0.5600
   41DOPE    HY 5189   0.555   2.357  13.735  0.3227  0.0143 -0.0331
   41DOPE   O31 5190   0.518   2.525  13.855  0.8366 -0.2286 -0.1773
   41DOPE   C31 5191   0.393   2.530  13.801 -0.9199 -1.3856 -0.3621
   41DOPE   O32 5192   0.354   2.464  13.714  0.3435  0.2378  0.0224
   41DOPE   C32 5193   0.316   2.643  13.872 -0.2468  0.2565 -1.0478
   41DOPE   H2X 5194   0.383   2.731  13.858  0.9331 -0.9110 -3.4045
   41DOPE   H2Y 5195   0.219   2.658  13.821  0.5082  3.9731 -1.6919
   41DOPE   C23 5196   0.937   2.895  13.524 -0.0415 -0.0957  0.0944
   41DOPE   H3R 5197   0.925   2.868  13.417 -2.2927  0.7134  0.0803
   41DOPE   H3S 5198   1.040   2.936  13.535 -0.0641 -0.4000  1.6733
   41DOPE   C24 5199   0.831   3.001  13.553  0.2791 -0.3615  0.2394
   41DOPE   H4R 5200   0.728   2.960  13.552 -0.7042  1.8717  1.5628
   41DOPE   H4S 5201   0.834   3.063  13.461 -0.0374 -1.5353 -0.5823
   41DOPE   C25 5202   0.857   3.080  13.680  0.6062  0.6120 -0.1103
   41DOPE   H5R 5203   0.963   3.115  13.681  1.0368 -0.6308 -1.1587
   41DOPE   H5S 5204   0.843   3.017  13.771  2.1524 -0.6324 -0.6809
   41DOPE   C26 5205   0.761   3.204  13.696  0.4890  0.5364  0.0434
   41DOPE   H6R 5206   0.782   3.266  13.786 -1.9520 -0.2060  1.2111
   41DOPE   H6S 5207   0.660   3.158  13.702  0.1892  1.1894  0.0192
   41DOPE   C27 5208   0.764   3.296  13.575  0.8122  0.3448 -0.3228
   41DOPE   H7R 5209   0.681   3.260  13.511  2.0225  0.6454 -2.1388
   41DOPE   H7S 5210   0.856   3.293  13.513  1.4220 -0.1719  0.5958
   41DOPE   C28 5211   0.727   3.436  13.625 -0.0428 -0.4224  0.1754
   41DOPE   H8R 5212   0.806   3.466  13.698 -1.0758  0.9540  0.7797
   41DOPE   H8S 5213   0.625   3.436  13.671  0.3180 -1.4173  1.0163
   41DOPE   C29 5214   0.719   3.536  13.512 -0.1362 -0.4565  0.9837
   41DOPE   H9R 5215   0.631   3.526  13.447  0.9032 -0.1935 -0.5265
   41DOPE  C210 5216   0.793   3.652  13.494  0.1048  0.2059 -0.1725
   41DOPE  H10R 5217   0.773   3.714  13.406 -1.9964 -1.5380 -1.0051
   41DOPE  C211 5218   0.911   3.688  13.580  0.9162 -0.3804 -0.5659
   41DOPE  H11R 5219   0.992   3.741  13.525  0.4813 -0.6075 -1.4381
   41DOPE  H11S 5220   0.958   3.592  13.611 -0.6283 -0.3591  2.1621
   41DOPE  C212 5221   0.874   3.754  13.720  0.7991 -0.0546 -0.0910
   41DOPE  H12R 5222   0.800   3.688  13.769 -0.6403 -0.3644 -2.5186
   41DOPE  H12S 5223   0.816   3.847  13.698  0.1135 -0.7085 -1.1125
   41DOPE  C213 5224   0.993   3.795  13.805  0.3091  0.2960  0.1720
   41DOPE  H13R 5225   1.050   3.877  13.757 -3.8703  2.1960 -2.0404
   41DOPE  H13S 5226   1.052   3.702  13.821  0.7614  0.5449 -0.0325
   41DOPE  C214 5227   0.950   3.855  13.944 -1.0964 -0.4041 -0.4299
   41DOPE  H14R 5228   0.867   3.784  13.962 -0.8197 -0.4644  0.6766
   41DOPE  H14S 5229   0.899   3.951  13.919 -1.6161 -1.1531 -2.4442
   41DOPE  C215 5230   1.069   3.863  14.039  0.1197  0.4700 -1.2327
   41DOPE  H15R 5231   1.152   3.928  14.003 -0.1367  1.1092 -0.6767
   41DOPE  H15S 5232   1.110   3.762  14.062  1.1616  1.5124  2.1087
   41DOPE  C216 5233   1.031   3.922  14.169 -0.2104  0.3590  0.1943
   41DOPE  H16R 5234   0.974   3.841  14.219  1.0436 -0.5077  0.2636
   41DOPE  H16S 5235   0.973   4.016  14.160  0.3863  0.8785  1.5788
   41DOPE  C217 5236   1.149   3.971  14.253  0.6419  0.4892 -0.2548
   41DOPE  H17R 5237   1.240   3.999  14.196  0.9284 -2.5760 -1.4883
   41DOPE  H17S 5238   1.188   3.885  14.313 -2.4679 -1.1128 -0.3408
   41DOPE  C218 5239   1.103   4.087  14.343 -0.3677  0.2831 -0.0451
   41DOPE  H18R 5240   1.011   4.054  14.396  1.3455 -2.1223  1.6672
   41DOPE  H18S 5241   1.077   4.176  14.281 -0.9173  1.7582  2.1880
   41DOPE  H18T 5242   1.179   4.119  14.418 -0.7563 -1.0331  0.9513
   41DOPE   C33 5243   0.299   2.609  14.019 -0.3597  0.0479  0.4257
   41DOPE   H3X 5244   0.248   2.700  14.057 -0.6551  1.1160 -2.3359
   41DOPE   H3Y 5245   0.403   2.614  14.061  0.4448 -1.8441 -1.1857
   41DOPE   C34 5246   0.234   2.478  14.063  0.2129  0.2379 -0.3420
   41DOPE   H4X 5247   0.307   2.395  14.052 -1.5791 -1.4917  0.2213
   41DOPE   H4Y 5248   0.213   2.488  14.172  1.5388  0.1514 -0.0554
   41DOPE   C35 5249   0.109   2.444  13.983 -0.8616  0.3533 -0.2377
   41DOPE   H5X 5250   0.126   2.476  13.878 -0.6706  0.9133 -0.0407
   41DOPE   H5Y 5251   0.021   2.503  14.014 -0.5335  0.4569  0.5138
   41DOPE   C36 5252   0.068   2.295  13.983 -0.9421 -0.2949 -0.1487
   41DOPE   H6X 5253  -0.031   2.289  13.933 -0.3111 -1.9005 -1.3078
   41DOPE   H6Y 5254   0.046   2.271  14.089 -3.1815 -0.8326 -0.6837
   41DOPE   C37 5255   0.164   2.191  13.928 -0.2317  0.2841  0.2765
   41DOPE   H7X 5256   0.204   2.226  13.830  1.1403 -2.6202 -0.3187
   41DOPE   H7Y 5257   0.244   2.174  14.003 -0.1802 -2.7075 -0.3291
   41DOPE   C38 5258   0.091   2.043  13.915 -0.7894 -0.2733 -0.0431
   41DOPE   H8X 5259   0.170   1.973  13.879 -0.9766 -0.2013 -0.6073
   41DOPE   H8Y 5260   0.007   2.039  13.842 -0.7320  1.8941 -0.3023
   41DOPE   C39 5261   0.024   2.009  14.046  0.0961  0.5007 -0.1604
   41DOPE   H9X 5262  -0.081   2.040  14.053  0.4178  2.1032 -1.7020
   41DOPE  C310 5263   0.069   1.928  14.140 -0.2100  0.4124 -0.2654
   41DOPE  H10X 5264   0.011   1.913  14.232  0.1265 -1.5418 -0.3214
   41DOPE  C311 5265   0.211   1.872  14.149 -0.4767 -0.0257  0.1743
   41DOPE  H11X 5266   0.206   1.772  14.101  0.3199 -0.4606  0.9740
   41DOPE  H11Y 5267   0.283   1.930  14.087 -0.1313 -1.2327 -0.5766
   41DOPE  C312 5268   0.254   1.875  14.296 -0.2295  0.3566 -0.4650
   41DOPE  H12X 5269   0.356   1.833  14.311  0.0167  0.2784 -2.1490
   41DOPE  H12Y 5270   0.195   1.795  14.346  0.7096  0.0949  0.2589
   41DOPE  C313 5271   0.240   2.005  14.365 -1.1338 -0.1561 -0.3429
   41DOPE  H13X 5272   0.293   2.092  14.319  1.7615 -1.0792  1.0214
   41DOPE  H13Y 5273   0.133   2.034  14.368 -0.7773  1.2536  2.7693
   41DOPE  C314 5274   0.287   2.001  14.509 -0.1120  0.1359 -0.4619
   41DOPE  H14X 5275   0.392   1.964  14.508  0.1908  0.9322  0.3259
   41DOPE  H14Y 5276   0.219   1.927  14.554 -1.0204  1.2490  0.0521
   41DOPE  C315 5277   0.275   2.133  14.586  0.0109  0.1272  0.7674
   41DOPE  H15X 5278   0.177   2.181  14.569 -0.4146 -1.1635 -0.6065
   41DOPE  H15Y 5279   0.343   2.208  14.541  0.7647 -0.3531  1.0829
   41DOPE  C316 5280   0.306   2.125  14.737 -0.3798  0.0085 -0.6551
   41DOPE  H16X 5281   0.410   2.096  14.766 -0.4308  0.5897  0.1678
   41DOPE  H16Y 5282   0.233   2.052  14.777 -2.0062  1.7081 -0.3985
   41DOPE  C317 5283   0.291   2.253  14.810 -0.2356  0.3713 -0.1275
   41DOPE  H17X 5284   0.377   2.318  14.782  0.3738  0.1111  1.0864
   41DOPE  H17Y 5285   0.191   2.291  14.779  0.7090  1.9557 -1.3955
   41DOPE  C318 5286   0.289   2.225  14.964 -0.6674  0.1693  0.4237
   41DOPE  H18X 5287   0.390   2.206  15.006 -0.2521  0.5671 -0.3725
   41DOPE  H18Y 5288   0.246   2.315  15.013  1.7212  1.9623 -0.5760
   41DOPE  H18Z 5289   0.228   2.133  14.978 -1.5820  0.8905  1.3798
   42DOPE     N 5290   0.667   0.642  13.340  0.0046 -0.0740  0.2372
   42DOPE   HN1 5291   0.615   0.656  13.252 -0.8243 -2.5011  0.2636
   42DOPE   HN2 5292   0.761   0.605  13.314 -0.5947 -1.8861  0.4432
   42DOPE   HN3 5293   0.633   0.566  13.403  3.3923 -0.7111  1.5504
   42DOPE   C12 5294   0.667   0.761  13.425 -0.0097  0.1547  0.3676
   42DOPE  H12A 5295   0.711   0.846  13.369  1.7845 -1.0946 -0.2053
   42DOPE  H12B 5296   0.723   0.738  13.519 -0.4612  0.8545  0.8126
   42DOPE   C11 5297   0.523   0.800  13.462 -0.6896 -0.4354  0.8236
   42DOPE  H11A 5298   0.458   0.809  13.373  2.7472  0.2114 -1.8462
   42DOPE  H11B 5299   0.523   0.904  13.500  0.0304  1.1430 -3.0563
   42DOPE     P 5300   0.434   0.701  13.697 -0.2102  0.3413  0.1381
   42DOPE   O13 5301   0.420   0.563  13.732 -0.4450  0.3097 -0.1026
   42DOPE   O14 5302   0.327   0.800  13.730  0.4899 -0.3609  0.0783
   42DOPE   O11 5303   0.567   0.756  13.757 -0.0769 -0.1284  0.3375
   42DOPE   O12 5304   0.468   0.701  13.550 -0.6728  0.2876 -0.1839
   42DOPE    C1 5305   0.657   0.685  13.842  1.2960  0.3294  0.5450
   42DOPE    HA 5306   0.617   0.582  13.852 -1.3466  1.1294 -0.6867
   42DOPE    HB 5307   0.661   0.740  13.939 -0.0397  0.8095  0.3594
   42DOPE    C2 5308   0.798   0.695  13.784  0.8281  1.1571 -0.4486
   42DOPE    HS 5309   0.797   0.654  13.680  0.3444 -0.0795  0.0326
   42DOPE   O21 5310   0.889   0.602  13.856 -0.2130 -0.6029  0.4733
   42DOPE   C21 5311   1.001   0.571  13.781  0.7120  0.1145 -0.5743
   42DOPE   O22 5312   1.011   0.592  13.664  0.0046  0.6716  0.5979
   42DOPE   C22 5313   1.108   0.497  13.866  0.8613  0.3729 -0.3775
   42DOPE   H2R 5314   1.158   0.423  13.800  0.3266  0.6795 -1.1322
   42DOPE   H2S 5315   1.063   0.440  13.950  1.8437 -0.2189 -0.2287
   42DOPE    C3 5316   0.850   0.845  13.784 -0.2896  0.0059  0.3501
   42DOPE    HX 5317   0.819   0.884  13.883 -3.7312 -2.6848  0.5397
   42DOPE    HY 5318   0.786   0.899  13.710  1.2473 -1.7516 -2.4469
   42DOPE   O31 5319   0.988   0.874  13.761  0.1650 -0.2044 -0.2723
   42DOPE   C31 5320   1.027   0.902  13.637  0.0398  0.0098  0.4924
   42DOPE   O32 5321   0.949   0.899  13.545 -0.4490  0.6867  0.1564
   42DOPE   C32 5322   1.174   0.944  13.633 -0.3515  0.1746 -0.3698
   42DOPE   H2X 5323   1.222   0.877  13.708 -0.8852 -1.8992 -1.7885
   42DOPE   H2Y 5324   1.219   0.915  13.536 -0.9011 -0.5049 -0.4330
   42DOPE   C23 5325   1.213   0.589  13.913  0.0112  0.1896  0.0023
   42DOPE   H3R 5326   1.254   0.643  13.825  0.4860 -1.4775 -0.8538
   42DOPE   H3S 5327   1.292   0.530  13.964 -0.6007  0.0298  0.7743
   42DOPE   C24 5328   1.162   0.690  14.014  0.2491  0.3860  0.3431
   42DOPE   H4R 5329   1.117   0.632  14.098 -0.8949 -1.0507 -1.2057
   42DOPE   H4S 5330   1.082   0.748  13.963  0.6880  1.7662  1.1598
   42DOPE   C25 5331   1.260   0.784  14.073  0.0079  0.0475  0.0758
   42DOPE   H5R 5332   1.335   0.822  13.999 -0.0283  1.5880  0.7983
   42DOPE   H5S 5333   1.313   0.729  14.154 -1.9548 -1.1241  0.6146
   42DOPE   C26 5334   1.201   0.917  14.124  0.0265  0.0493  0.0499
   42DOPE   H6R 5335   1.131   0.955  14.047 -1.4874  0.3168  1.5189
   42DOPE   H6S 5336   1.282   0.992  14.139 -1.4736  1.5946  0.6109
   42DOPE   C27 5337   1.105   0.914  14.242 -0.0022  1.3093 -0.9157
   42DOPE   H7R 5338   1.169   0.906  14.332 -2.4914  0.4493  0.8863
   42DOPE   H7S 5339   1.040   0.825  14.231 -0.2210  1.6194 -2.3544
   42DOPE   C28 5340   1.020   1.040  14.268  0.5399 -0.0116  0.7171
   42DOPE   H8R 5341   0.961   1.027  14.361 -0.4933  0.5198  0.1580
   42DOPE   H8S 5342   0.948   1.039  14.183  0.9914  1.4998  0.2842
   42DOPE   C29 5343   1.089   1.174  14.262 -0.3399  0.4091  0.2773
   42DOPE   H9R 5344   1.074   1.216  14.161 -0.9328 -0.2975  0.0567
   42DOPE  C210 5345   1.204   1.213  14.329  0.4435 -0.2086 -0.1009
   42DOPE  H10R 5346   1.255   1.302  14.291 -1.8619  1.1851 -0.0898
   42DOPE  C211 5347   1.265   1.157  14.458  0.2026 -0.2864 -0.3920
   42DOPE  H11R 5348   1.365   1.116  14.430 -0.6853 -3.5484  0.7211
   42DOPE  H11S 5349   1.213   1.067  14.497  0.1407 -0.2880 -0.4772
   42DOPE  C212 5350   1.280   1.259  14.573  1.1579 -0.3310 -0.0972
   42DOPE  H12R 5351   1.291   1.206  14.670 -1.7818 -0.3831  0.2965
   42DOPE  H12S 5352   1.180   1.307  14.566  1.1832 -0.2291  0.2600
   42DOPE  C213 5353   1.393   1.357  14.555 -0.1274  0.1628 -0.5330
   42DOPE  H13R 5354   1.359   1.420  14.471 -1.4900 -1.4469 -1.2410
   42DOPE  H13S 5355   1.485   1.306  14.520  2.1621  2.3281  1.7794
   42DOPE  C214 5356   1.445   1.426  14.684 -0.6898  0.1086 -0.1223
   42DOPE  H14R 5357   1.523   1.502  14.663  0.5638 -1.4568 -1.5116
   42DOPE  H14S 5358   1.488   1.349  14.752 -0.0587  0.6631  0.1212
   42DOPE  C215 5359   1.329   1.496  14.744  0.5604  0.7218  0.3143
   42DOPE  H15R 5360   1.254   1.426  14.787  1.1679  1.0120  1.9276
   42DOPE  H15S 5361   1.275   1.546  14.661 -2.9620  0.8244  2.4681
   42DOPE  C216 5362   1.375   1.597  14.847  0.3753  0.2123  0.0202
   42DOPE  H16R 5363   1.296   1.675  14.853  0.0312 -0.0118 -1.2903
   42DOPE  H16S 5364   1.469   1.645  14.814  0.0164 -0.2477 -1.8034
   42DOPE  C217 5365   1.413   1.532  14.981  0.1442 -0.5499  0.7532
   42DOPE  H17R 5366   1.479   1.444  14.967  2.9482  1.4569  0.7224
   42DOPE  H17S 5367   1.315   1.503  15.025  0.4512 -0.4448  1.5292
   42DOPE  C218 5368   1.480   1.634  15.065  0.4992  0.1869  0.5717
   42DOPE  H18R 5369   1.587   1.653  15.040  1.0451  0.8521  3.1106
   42DOPE  H18S 5370   1.499   1.605  15.171  1.6533 -0.5574  0.1808
   42DOPE  H18T 5371   1.446   1.740  15.068  2.6179  1.0315 -1.7051
   42DOPE   C33 5372   1.192   1.095  13.647  0.3185 -0.4849 -0.1600
   42DOPE   H3X 5373   1.138   1.160  13.575 -0.7854  0.4905  1.4921
   42DOPE   H3Y 5374   1.301   1.119  13.643 -0.3154  3.0958  0.9051
   42DOPE   C34 5375   1.153   1.157  13.783  0.2553  0.3222  0.1023
   42DOPE   H4X 5376   1.181   1.089  13.867 -1.1790 -0.9589 -0.4051
   42DOPE   H4Y 5377   1.219   1.246  13.796  1.8170 -0.3438 -2.5619
   42DOPE   C35 5378   1.008   1.214  13.773 -0.5967 -0.5898  0.0423
   42DOPE   H5X 5379   0.947   1.145  13.710  0.1995  0.0604 -1.5164
   42DOPE   H5Y 5380   1.012   1.309  13.714  0.2818 -0.4891  0.2517
   42DOPE   C36 5381   0.955   1.238  13.912 -0.1453 -0.7179 -0.2038
   42DOPE   H6X 5382   1.010   1.327  13.949 -0.7552  0.7958 -2.6833
   42DOPE   H6Y 5383   0.966   1.147  13.974  1.9556 -0.3734 -0.0085
   42DOPE   C37 5384   0.810   1.290  13.917 -0.1394 -0.3160 -0.2407
   42DOPE   H7X 5385   0.755   1.212  13.861  0.9801 -1.5064  0.2714
   42DOPE   H7Y 5386   0.771   1.307  14.020  0.6601  3.4656 -0.4102
   42DOPE   C38 5387   0.779   1.437  13.866 -0.6094 -0.0654 -0.1925
   42DOPE   H8X 5388   0.826   1.442  13.765  1.0242 -0.1757  0.5185
   42DOPE   H8Y 5389   0.844   1.507  13.923  0.8018  0.6073 -2.4756
   42DOPE   C39 5390   0.635   1.477  13.867  0.1820 -0.4184 -0.4730
   42DOPE   H9X 5391   0.582   1.441  13.777 -0.5516 -0.1022 -0.1681
   42DOPE  C310 5392   0.568   1.557  13.948 -0.4709 -0.3142 -0.2936
   42DOPE  H10X 5393   0.458   1.545  13.947 -0.5171 -0.6637  2.3431
   42DOPE  C311 5394   0.619   1.618  14.074  0.1472  0.0298  0.4259
   42DOPE  H11X 5395   0.714   1.671  14.052 -0.3353  0.0755 -1.7627
   42DOPE  H11Y 5396   0.555   1.697  14.118  1.1708 -0.0170  2.0787
   42DOPE  C312 5397   0.643   1.523  14.187 -0.3357 -0.0962 -0.9219
   42DOPE  H12X 5398   0.679   1.424  14.153  0.7094 -0.0129 -0.1007
   42DOPE  H12Y 5399   0.538   1.500  14.217 -0.9278  1.8063 -1.4441
   42DOPE  C313 5400   0.733   1.578  14.296  0.2094  0.3917 -0.1007
   42DOPE  H13X 5401   0.836   1.596  14.257  0.4780  0.2932  0.5508
   42DOPE  H13Y 5402   0.686   1.670  14.337  1.9029  0.8096  1.0164
   42DOPE  C314 5403   0.753   1.474  14.412  0.1698 -0.4364  0.2746
   42DOPE  H14X 5404   0.769   1.377  14.359  2.5606  1.3768 -2.5819
   42DOPE  H14Y 5405   0.658   1.460  14.468 -0.1921 -3.4373 -0.8926
   42DOPE  C315 5406   0.868   1.505  14.511  0.1751  0.0878  0.0296
   42DOPE  H15X 5407   0.860   1.612  14.540  0.4819 -0.2152  1.2889
   42DOPE  H15Y 5408   0.972   1.489  14.474  0.0939  0.3022 -0.2970
   42DOPE  C316 5409   0.876   1.404  14.624  0.0007 -0.2463  0.1688
   42DOPE  H16X 5410   0.967   1.425  14.684 -0.5727  1.9273  0.3905
   42DOPE  H16Y 5411   0.894   1.304  14.580 -0.1552  0.0455 -0.5768
   42DOPE  C317 5412   0.754   1.410  14.717 -0.4934  0.1824  0.1052
   42DOPE  H17X 5413   0.751   1.515  14.753  2.1953  0.9373 -1.5798
   42DOPE  H17Y 5414   0.662   1.387  14.659 -1.2674  0.9363  1.0176
   42DOPE  C318 5415   0.774   1.308  14.839  0.5483 -0.5425  0.3768
   42DOPE  H18X 5416   0.780   1.205  14.798  0.6451  0.6024 -2.7642
   42DOPE  H18Y 5417   0.871   1.338  14.886 -0.5403  0.8089  1.8724
   42DOPE  H18Z 5418   0.695   1.331  14.913 -1.2290  1.4476 -1.9734
   43DOPE     N 5419   6.780   1.584  12.806 -0.2158  0.4028 -0.0821
   43DOPE   HN1 5420   6.841   1.576  12.722  0.1032  1.2492  0.0648
   43DOPE   HN2 5421   6.695   1.529  12.782 -1.3419  2.4475 -1.0580
   43DOPE   HN3 5422   6.758   1.685  12.812  2.0376  1.0074 -0.9068
   43DOPE   C12 5423   6.845   1.540  12.934 -0.2221  0.6168 -0.0256
   43DOPE  H12A 5424   6.881   1.435  12.923 -1.7920  0.1902 -1.4409
   43DOPE  H12B 5425   6.769   1.531  13.013  1.7481 -1.5015  1.7858
   43DOPE   C11 5426   6.970   1.624  12.975 -0.0240 -0.1030 -0.5435
   43DOPE  H11A 5427   7.052   1.619  12.900  0.5727  2.5230 -0.1777
   43DOPE  H11B 5428   7.014   1.588  13.070  0.1162 -0.2505 -0.6634
   43DOPE     P 5429   7.010   1.872  13.058 -0.6695 -0.4443  0.0589
   43DOPE   O13 5430   6.955   2.007  13.043  0.3280  0.2448  0.1078
   43DOPE   O14 5431   7.157   1.868  13.041 -0.0136 -0.0818 -0.2951
   43DOPE   O11 5432   6.980   1.839  13.214 -0.2228  0.0046  0.2045
   43DOPE   O12 5433   6.931   1.762  12.983  0.5032 -0.2527  0.3367
   43DOPE    C1 5434   6.843   1.829  13.262  0.9448 -0.4490  0.5025
   43DOPE    HA 5435   6.827   1.740  13.326 -1.2165 -0.8985 -0.5600
   43DOPE    HB 5436   6.768   1.813  13.182 -1.2847 -3.1725  2.9366
   43DOPE    C2 5437   6.800   1.967  13.331  0.0426  0.6982 -0.3377
   43DOPE    HS 5438   6.868   2.042  13.285 -1.1805  1.0852 -1.5854
   43DOPE   O21 5439   6.809   1.957  13.479  0.4588 -0.0104  0.3106
   43DOPE   C21 5440   6.910   2.037  13.530 -0.2157 -0.2004 -0.2118
   43DOPE   O22 5441   6.994   2.092  13.461  0.1182 -0.0477 -0.3998
   43DOPE   C22 5442   6.914   2.039  13.685 -0.4637  0.2882 -0.2335
   43DOPE   H2R 5443   6.890   1.935  13.716 -1.0039 -0.0519 -1.7211
   43DOPE   H2S 5444   6.837   2.108  13.726  0.3919  0.1122  1.8042
   43DOPE    C3 5445   6.646   2.009  13.292  0.1954  0.3132  0.4980
   43DOPE    HX 5446   6.588   1.942  13.359  0.1258 -1.0688 -0.8916
   43DOPE    HY 5447   6.633   1.989  13.184  3.0156 -2.0420  0.4655
   43DOPE   O31 5448   6.617   2.146  13.322 -0.1331 -0.2364 -0.0386
   43DOPE   C31 5449   6.654   2.239  13.238 -0.7177 -0.2030  0.2256
   43DOPE   O32 5450   6.730   2.220  13.141  0.1303 -0.0268  0.8532
   43DOPE   C32 5451   6.605   2.375  13.284  0.2233 -0.6047  0.6636
   43DOPE   H2X 5452   6.606   2.435  13.191 -0.6944 -2.3296 -0.4965
   43DOPE   H2Y 5453   6.500   2.370  13.318  0.6139  1.5482  2.3833
   43DOPE   C23 5454   7.056   2.069  13.740  0.2285 -0.1656  0.5505
   43DOPE   H3R 5455   7.056   2.079  13.851 -0.5529 -1.6127  0.7113
   43DOPE   H3S 5456   7.088   2.164  13.691  1.0603 -0.3114  0.7987
   43DOPE   C24 5457   7.160   1.967  13.701  0.2359 -0.4986 -0.1807
   43DOPE   H4R 5458   7.162   1.973  13.590  1.0713  0.4741 -0.1351
   43DOPE   H4S 5459   7.132   1.865  13.734 -0.5203 -0.4219 -0.5679
   43DOPE   C25 5460   7.301   2.015  13.744 -0.2000  0.9409 -0.7507
   43DOPE   H5R 5461   7.316   2.119  13.709  1.7321  1.1512  0.5420
   43DOPE   H5S 5462   7.380   1.964  13.684  0.8311  1.3621  0.2163
   43DOPE   C26 5463   7.338   1.983  13.889  0.0469 -0.8293 -0.0463
   43DOPE   H6R 5464   7.291   2.050  13.964 -0.5389 -2.5033  1.1260
   43DOPE   H6S 5465   7.445   2.012  13.894 -0.1831  0.0957 -0.3497
   43DOPE   C27 5466   7.326   1.838  13.924  0.2494  0.5013  0.7217
   43DOPE   H7R 5467   7.400   1.794  13.853  0.3081  1.1809  0.3583
   43DOPE   H7S 5468   7.226   1.789  13.920  0.3417  0.3535  0.0680
   43DOPE   C28 5469   7.365   1.801  14.071 -0.2906  0.2903 -0.0272
   43DOPE   H8R 5470   7.303   1.874  14.127 -1.7043  0.5050 -1.7547
   43DOPE   H8S 5471   7.469   1.827  14.097 -0.3235 -1.0185  1.5537
   43DOPE   C29 5472   7.328   1.660  14.109  0.4167  0.6829  0.0824
   43DOPE   H9R 5473   7.334   1.575  14.040 -1.9119  0.6389 -0.1166
   43DOPE  C210 5474   7.267   1.634  14.228 -0.0462  0.3092 -0.0319
   43DOPE  H10R 5475   7.239   1.531  14.255  0.9879  0.3953  1.5199
   43DOPE  C211 5476   7.235   1.734  14.340  0.1910 -0.5159  0.1896
   43DOPE  H11R 5477   7.125   1.740  14.354  0.3874 -0.0789  1.6759
   43DOPE  H11S 5478   7.273   1.837  14.328  0.6832 -0.6936  0.1901
   43DOPE  C212 5479   7.300   1.693  14.473  0.5536  0.2475 -0.5791
   43DOPE  H12R 5480   7.278   1.589  14.503  0.3063  0.0075 -1.5526
   43DOPE  H12S 5481   7.266   1.753  14.560 -0.5837  0.1966 -0.9811
   43DOPE  C213 5482   7.448   1.722  14.461 -0.4593 -0.8353  0.7460
   43DOPE  H13R 5483   7.456   1.833  14.463  0.1602 -0.8080 -1.3438
   43DOPE  H13S 5484   7.488   1.687  14.364 -1.5220  0.2013 -0.1026
   43DOPE  C214 5485   7.533   1.655  14.574 -0.5473 -0.6777  0.5245
   43DOPE  H14R 5486   7.643   1.661  14.559 -0.4736  0.9061  1.4234
   43DOPE  H14S 5487   7.501   1.549  14.571 -0.1703 -0.7735 -1.8921
   43DOPE  C215 5488   7.509   1.711  14.708 -0.6909  0.2750  0.1394
   43DOPE  H15R 5489   7.567   1.660  14.788 -1.0665 -0.7665 -0.2269
   43DOPE  H15S 5490   7.404   1.690  14.737 -0.2206 -0.6724  1.2148
   43DOPE  C216 5491   7.527   1.862  14.724  0.1040 -0.5645  0.7309
   43DOPE  H16R 5492   7.461   1.921  14.657 -0.1885 -0.1059  1.4115
   43DOPE  H16S 5493   7.630   1.882  14.689 -0.7532 -1.2507 -2.4450
   43DOPE  C217 5494   7.536   1.918  14.868  0.1543  0.7173 -0.6246
   43DOPE  H17R 5495   7.611   1.863  14.928  0.5113  1.1675 -0.6567
   43DOPE  H17S 5496   7.445   1.909  14.931  0.8138 -0.4523  0.2071
   43DOPE  C218 5497   7.566   2.061  14.861  0.0012 -0.3108  0.5758
   43DOPE  H18R 5498   7.622   2.090  14.953  0.3455 -1.5677  0.7905
   43DOPE  H18S 5499   7.474   2.122  14.865  0.9776  1.2111  0.3831
   43DOPE  H18T 5500   7.634   2.090  14.779  0.8318 -0.9306  1.0265
   43DOPE   C33 5501   6.704   2.456  13.369 -0.1259 -0.2081 -0.1415
   43DOPE   H3X 5502   6.681   2.565  13.365 -1.1947 -0.3983  0.4685
   43DOPE   H3Y 5503   6.810   2.447  13.338  0.7052 -2.0472  2.8784
   43DOPE   C34 5504   6.695   2.416  13.516 -0.0547  0.3650  0.2075
   43DOPE   H4X 5505   6.591   2.426  13.553  0.6197  2.5615  1.7053
   43DOPE   H4Y 5506   6.713   2.306  13.522 -0.1337  0.3692  0.5207
   43DOPE   C35 5507   6.787   2.499  13.608 -0.5735 -0.2356  0.6704
   43DOPE   H5X 5508   6.737   2.595  13.635  0.1125 -0.0020  1.1501
   43DOPE   H5Y 5509   6.871   2.523  13.540 -0.5218 -0.8698  0.5088
   43DOPE   C36 5510   6.848   2.432  13.729  0.6260 -0.9662  0.5634
   43DOPE   H6X 5511   6.918   2.503  13.778  0.3615  1.2480 -2.0253
   43DOPE   H6Y 5512   6.902   2.340  13.698  0.7185 -0.3205 -1.3267
   43DOPE   C37 5513   6.732   2.393  13.830  0.1639 -0.3474  0.3808
   43DOPE   H7X 5514   6.674   2.488  13.833  0.8812  0.1817 -1.3979
   43DOPE   H7Y 5515   6.676   2.309  13.784 -0.2115  1.3064 -2.3442
   43DOPE   C38 5516   6.795   2.327  13.962  0.9418 -0.0929 -0.1834
   43DOPE   H8X 5517   6.849   2.239  13.921  1.6663  0.0166  0.4936
   43DOPE   H8Y 5518   6.707   2.290  14.019  0.5609  0.5050 -0.3706
   43DOPE   C39 5519   6.880   2.429  14.041 -0.1966 -0.3085  0.1004
   43DOPE   H9X 5520   6.981   2.447  14.000  0.6603 -2.6175  1.0477
   43DOPE  C310 5521   6.845   2.507  14.143 -0.0958  0.4674 -0.0056
   43DOPE  H10X 5522   6.910   2.584  14.187 -0.1601  0.5009  0.0292
   43DOPE  C311 5523   6.713   2.488  14.211 -0.0375 -0.1098  0.7820
   43DOPE  H11X 5524   6.688   2.591  14.244 -0.1222  0.2438 -0.3245
   43DOPE  H11Y 5525   6.631   2.464  14.140  2.4111 -2.2522 -1.5579
   43DOPE  C312 5526   6.704   2.386  14.327  0.3301  0.8184 -0.2507
   43DOPE  H12X 5527   6.713   2.279  14.297 -1.3183 -0.2837  2.6981
   43DOPE  H12Y 5528   6.600   2.397  14.366 -0.1016 -1.9780 -0.3661
   43DOPE  C313 5529   6.807   2.411  14.439  0.1406 -0.0301  0.3810
   43DOPE  H13X 5530   6.908   2.382  14.403  0.1281  2.0383 -1.5174
   43DOPE  H13Y 5531   6.804   2.522  14.452 -1.5738  0.0587 -0.5507
   43DOPE  C314 5532   6.785   2.337  14.570  0.6214 -0.8001 -0.1177
   43DOPE  H14X 5533   6.774   2.228  14.548  0.3515 -1.1436  1.6072
   43DOPE  H14Y 5534   6.687   2.358  14.618 -0.2260  1.0239 -2.4341
   43DOPE  C315 5535   6.903   2.369  14.663 -0.6830  0.1970 -0.4356
   43DOPE  H15X 5536   6.883   2.424  14.757 -0.8943  0.2063 -0.4851
   43DOPE  H15Y 5537   6.973   2.428  14.600  0.0088  0.8021  0.8745
   43DOPE  C316 5538   6.982   2.240  14.695 -0.2066 -0.2634  0.0382
   43DOPE  H16X 5539   6.962   2.165  14.616  0.3690 -1.1341  0.6995
   43DOPE  H16Y 5540   6.940   2.188  14.784  1.0345  1.7952  1.9464
   43DOPE  C317 5541   7.132   2.270  14.715  0.3548 -0.3738  0.2155
   43DOPE  H17X 5542   7.166   2.318  14.621  1.4683  2.0716  1.7792
   43DOPE  H17Y 5543   7.143   2.342  14.799  2.7220  0.3269 -0.6252
   43DOPE  C318 5544   7.209   2.148  14.741 -0.0852  0.3653  0.1170
   43DOPE  H18X 5545   7.175   2.072  14.667 -0.0954  1.6683 -1.2766
   43DOPE  H18Y 5546   7.317   2.170  14.736 -0.3698  1.7338 -0.6659
   43DOPE  H18Z 5547   7.184   2.117  14.845  0.3296 -2.1593 -0.4676
   44DOPE     N 5548   2.449   0.440  12.441 -0.8001 -0.0336  0.2351
   44DOPE   HN1 5549   2.360   0.402  12.478 -1.1674  0.9349  0.3620
   44DOPE   HN2 5550   2.458   0.533  12.486 -0.3937  0.1302 -0.1781
   44DOPE   HN3 5551   2.433   0.450  12.339  1.0783  3.1765  0.1140
   44DOPE   C12 5552   2.558   0.342  12.476  0.5813 -0.3474 -0.5112
   44DOPE  H12A 5553   2.650   0.390  12.435  0.0339 -1.5653 -3.3940
   44DOPE  H12B 5554   2.542   0.250  12.417 -1.3847 -0.4936  0.1742
   44DOPE   C11 5555   2.559   0.310  12.626 -0.2339 -0.1032  0.6567
   44DOPE  H11A 5556   2.644   0.239  12.640 -0.0393 -0.1829 -0.7329
   44DOPE  H11B 5557   2.466   0.256  12.655 -0.5218  0.0182 -0.0208
   44DOPE     P 5558   2.740   0.485  12.710  0.3743 -0.2708  1.0021
   44DOPE   O13 5559   2.734   0.629  12.678  0.0140  0.5655 -0.2047
   44DOPE   O14 5560   2.822   0.400  12.625 -0.3150  0.2551  0.7824
   44DOPE   O11 5561   2.775   0.468  12.861  0.3091 -0.4424  0.0298
   44DOPE   O12 5562   2.586   0.434  12.693 -0.3791 -0.3793 -0.0718
   44DOPE    C1 5563   2.676   0.454  12.961 -0.1439 -0.0813  0.4392
   44DOPE    HA 5564   2.633   0.352  12.951  1.0506 -0.6354  0.8305
   44DOPE    HB 5565   2.591   0.523  12.941 -0.1436  0.8476  3.2036
   44DOPE    C2 5566   2.730   0.490  13.107 -0.0071  0.3542  0.4165
   44DOPE    HS 5567   2.653   0.456  13.180 -0.5950  1.4093  0.3046
   44DOPE   O21 5568   2.758   0.632  13.114 -0.4474  0.3330  0.0444
   44DOPE   C21 5569   2.655   0.713  13.107 -0.7937  0.4038 -0.5213
   44DOPE   O22 5570   2.541   0.678  13.096  0.2535 -0.0829  0.0008
   44DOPE   C22 5571   2.694   0.862  13.108 -0.5018 -0.3081 -0.8306
   44DOPE   H2R 5572   2.605   0.919  13.076 -3.9374 -0.9107  5.9984
   44DOPE   H2S 5573   2.782   0.879  13.042  0.4733 -1.7346  0.0320
   44DOPE    C3 5574   2.858   0.403  13.133 -0.2960 -0.0045  0.1685
   44DOPE    HX 5575   2.926   0.430  13.049  2.4713  1.8016  2.7927
   44DOPE    HY 5576   2.831   0.295  13.140  0.4848 -0.1564  0.9950
   44DOPE   O31 5577   2.913   0.423  13.263 -0.3397 -0.2669  0.3665
   44DOPE   C31 5578   3.024   0.495  13.285  0.6990 -0.6389  0.3119
   44DOPE   O32 5579   3.092   0.553  13.202 -0.2380  0.0357 -0.1036
   44DOPE   C32 5580   3.052   0.507  13.433  0.2191 -0.3197 -0.3430
   44DOPE   H2X 5581   2.961   0.487  13.493 -1.8551  2.3830 -2.3346
   44DOPE   H2Y 5582   3.125   0.430  13.464  0.3508  0.3825  1.1810
   44DOPE   C23 5583   2.737   0.926  13.249  0.0567  0.6916  0.3610
   44DOPE   H3R 5584   2.830   0.880  13.288 -0.4320  0.0457  0.7933
   44DOPE   H3S 5585   2.659   0.913  13.327  0.0053 -1.1104  0.0571
   44DOPE   C24 5586   2.750   1.081  13.229 -0.5802  0.0505  0.0912
   44DOPE   H4R 5587   2.712   1.102  13.127 -0.9627 -1.5691 -0.1282
   44DOPE   H4S 5588   2.850   1.125  13.250 -2.1340  2.6205  3.1050
   44DOPE   C25 5589   2.649   1.162  13.305  0.4162  0.1048  0.2463
   44DOPE   H5R 5590   2.546   1.133  13.274  0.7787  0.4645 -1.3800
   44DOPE   H5S 5591   2.660   1.267  13.270  0.1780  0.5774  1.5213
   44DOPE   C26 5592   2.659   1.165  13.457  0.1743  0.9524  0.7859
   44DOPE   H6R 5593   2.667   1.059  13.486  0.3023  1.0365  1.0609
   44DOPE   H6S 5594   2.569   1.202  13.511 -0.6360  0.0635  0.0863
   44DOPE   C27 5595   2.780   1.232  13.507 -0.2632  0.1620 -0.8026
   44DOPE   H7R 5596   2.753   1.339  13.504 -2.4847 -0.3862 -3.2730
   44DOPE   H7S 5597   2.865   1.224  13.436 -0.9851  1.8521 -1.9123
   44DOPE   C28 5598   2.827   1.197  13.654 -0.3121  0.4161  0.9712
   44DOPE   H8R 5599   2.732   1.216  13.710 -0.5953  0.1269  0.5972
   44DOPE   H8S 5600   2.887   1.283  13.692 -1.0455  0.3240  2.4047
   44DOPE   C29 5601   2.882   1.059  13.668 -0.3970 -0.1785  0.3095
   44DOPE   H9R 5602   2.913   1.022  13.570  0.9237 -0.2448  0.7408
   44DOPE  C210 5603   2.870   0.972  13.764  0.3913 -0.5527 -0.5152
   44DOPE  H10R 5604   2.917   0.873  13.748  0.3751 -0.6911  0.2323
   44DOPE  C211 5605   2.795   0.985  13.897  0.0426  0.2811  0.2153
   44DOPE  H11R 5606   2.752   0.883  13.913  0.6283  0.0264  0.1792
   44DOPE  H11S 5607   2.711   1.057  13.897 -0.5056 -0.3338  1.0537
   44DOPE  C212 5608   2.899   1.013  14.013  0.0973 -0.2431  0.7073
   44DOPE  H12R 5609   2.943   1.111  13.985  1.3458 -0.7278  0.9178
   44DOPE  H12S 5610   2.977   0.936  14.025  1.7245  0.8181 -2.2730
   44DOPE  C213 5611   2.814   1.025  14.139  0.4042 -0.6730 -0.0177
   44DOPE  H13R 5612   2.758   0.932  14.159  0.2781 -0.4827  0.5261
   44DOPE  H13S 5613   2.732   1.097  14.123 -0.5556 -2.0421 -1.4986
   44DOPE  C214 5614   2.887   1.077  14.268  0.5277 -0.1049  0.0547
   44DOPE  H14R 5615   2.810   1.070  14.348  1.8482 -0.2330  1.3422
   44DOPE  H14S 5616   2.914   1.184  14.252 -2.0555  0.4226 -1.4258
   44DOPE  C215 5617   3.004   0.996  14.326 -0.1102  0.1613  0.3010
   44DOPE  H15R 5618   3.083   1.002  14.248 -0.5212  0.3303 -0.1066
   44DOPE  H15S 5619   2.979   0.888  14.338  1.2694 -0.3122 -0.7771
   44DOPE  C216 5620   3.064   1.053  14.456  0.5504  0.4632  0.4378
   44DOPE  H16R 5621   3.140   0.984  14.500  1.1617  2.4183  2.6354
   44DOPE  H16S 5622   2.978   1.047  14.527 -0.0360  1.8935 -0.1196
   44DOPE  C217 5623   3.125   1.193  14.445 -0.1928 -1.1809 -0.7268
   44DOPE  H17R 5624   3.046   1.270  14.440 -1.3268 -2.1020  1.6419
   44DOPE  H17S 5625   3.176   1.196  14.346  0.2502 -1.0844 -0.4974
   44DOPE  C218 5626   3.229   1.216  14.554 -0.5381 -0.2637  0.2707
   44DOPE  H18R 5627   3.305   1.137  14.538  3.3452  3.1413  0.1730
   44DOPE  H18S 5628   3.188   1.210  14.657 -1.2460 -1.0770 -0.0477
   44DOPE  H18T 5629   3.283   1.313  14.547  0.9172 -1.0558  0.1201
   44DOPE   C33 5630   3.109   0.643  13.488 -0.0573 -0.0903 -0.2411
   44DOPE   H3X 5631   3.022   0.711  13.501  1.1542  0.9356  5.5628
   44DOPE   H3Y 5632   3.182   0.696  13.423 -1.0903  0.5692 -0.8952
   44DOPE   C34 5633   3.170   0.621  13.630  0.2632  0.4625  0.1661
   44DOPE   H4X 5634   3.275   0.595  13.607  0.5103  1.9134 -0.4463
   44DOPE   H4Y 5635   3.183   0.717  13.684  2.4142 -0.3540  1.2246
   44DOPE   C35 5636   3.090   0.532  13.732 -0.2204 -0.2639  0.1987
   44DOPE   H5X 5637   3.134   0.430  13.724  1.1455  0.4311 -2.5333
   44DOPE   H5Y 5638   2.982   0.539  13.711  0.1797 -0.9537 -2.4325
   44DOPE   C36 5639   3.125   0.574  13.877  0.2904  0.1611 -0.1279
   44DOPE   H6X 5640   3.094   0.681  13.877 -0.1460  0.0619  1.4597
   44DOPE   H6Y 5641   3.232   0.583  13.906 -0.4199 -0.4002  3.0333
   44DOPE   C37 5642   3.049   0.495  13.980 -0.0184  0.2034 -0.1536
   44DOPE   H7X 5643   2.945   0.494  13.943  1.0795  0.1584 -3.5988
   44DOPE   H7Y 5644   3.094   0.393  13.979 -0.7907 -0.2246  2.1344
   44DOPE   C38 5645   3.056   0.537  14.124 -0.1351 -0.0308 -0.7472
   44DOPE   H8X 5646   3.010   0.454  14.182  3.6087 -0.7115  1.5709
   44DOPE   H8Y 5647   2.987   0.618  14.157  0.6272  0.4767 -0.3632
   44DOPE   C39 5648   3.194   0.564  14.179  0.1579 -0.1578 -0.3108
   44DOPE   H9X 5649   3.247   0.618  14.099  0.8077 -1.8421 -1.0639
   44DOPE  C310 5650   3.253   0.539  14.297  0.2405 -0.4879 -0.5485
   44DOPE  H10X 5651   3.360   0.556  14.314  0.0351  1.2119 -0.7284
   44DOPE  C311 5652   3.182   0.465  14.406  0.9176 -0.4242 -0.0559
   44DOPE  H11X 5653   3.084   0.419  14.381  0.8762 -0.0097 -0.6952
   44DOPE  H11Y 5654   3.248   0.381  14.436  1.2300 -0.1985 -0.1001
   44DOPE  C312 5655   3.162   0.561  14.531 -0.1657 -0.0679  0.3187
   44DOPE  H12X 5656   3.110   0.500  14.609 -0.4233  0.3332  0.4645
   44DOPE  H12Y 5657   3.101   0.649  14.502 -1.2427 -0.8546  0.1270
   44DOPE  C313 5658   3.290   0.606  14.593 -0.1075 -0.5265 -0.4388
   44DOPE  H13X 5659   3.355   0.516  14.599 -3.2676 -3.0929 -1.6519
   44DOPE  H13Y 5660   3.329   0.691  14.531 -2.5831 -0.3777 -1.9263
   44DOPE  C314 5661   3.269   0.655  14.737 -0.0817  0.5575  0.0519
   44DOPE  H14X 5662   3.363   0.700  14.774 -0.0416  0.2449  0.3334
   44DOPE  H14Y 5663   3.236   0.570  14.800 -1.8145  0.8184 -0.4495
   44DOPE  C315 5664   3.164   0.763  14.740  0.9251 -0.0044  0.3109
   44DOPE  H15X 5665   3.059   0.728  14.746  0.4049  1.3284 -0.5048
   44DOPE  H15Y 5666   3.164   0.832  14.653 -1.5635 -1.1913 -0.7315
   44DOPE  C316 5667   3.184   0.856  14.861 -0.3188  0.1923 -0.0579
   44DOPE  H16X 5668   3.251   0.941  14.838 -0.6571  0.9172  1.5320
   44DOPE  H16Y 5669   3.219   0.800  14.950 -1.5822 -1.1783 -0.3763
   44DOPE  C317 5670   3.054   0.928  14.897  1.4705  0.8791 -0.2664
   44DOPE  H17X 5671   3.014   0.999  14.822 -2.1650 -0.1862  0.4264
   44DOPE  H17Y 5672   2.978   0.846  14.894  2.5853 -0.1592 -1.0201
   44DOPE  C318 5673   3.069   1.000  15.030  0.6789  0.4666 -0.5375
   44DOPE  H18X 5674   2.987   1.075  15.033  0.0897  0.0236 -3.0456
   44DOPE  H18Y 5675   3.051   0.942  15.123 -1.5238  0.8846 -0.6630
   44DOPE  H18Z 5676   3.167   1.052  15.028  0.1604  1.5068 -3.5837
   45DOPE     N 5677   3.404   0.239  12.894 -0.0340  0.4401 -0.3110
   45DOPE   HN1 5678   3.492   0.186  12.890 -1.2774 -1.7518 -0.1534
   45DOPE   HN2 5679   3.369   0.265  12.800 -0.0567 -0.4115 -0.5432
   45DOPE   HN3 5680   3.424   0.328  12.944 -0.1864  1.1233 -1.4411
   45DOPE   C12 5681   3.316   0.144  12.969 -0.6433 -0.2269  0.6998
   45DOPE  H12A 5682   3.252   0.092  12.894  1.6526  0.2540 -1.7572
   45DOPE  H12B 5683   3.262   0.203  13.046 -0.2536 -0.5888  1.2516
   45DOPE   C11 5684   3.407   0.038  13.042 -0.6532  0.1601 -0.3786
   45DOPE  H11A 5685   3.338  -0.034  13.090 -1.6442  1.4417  0.1897
   45DOPE  H11B 5686   3.463   0.091  13.122 -1.2068  1.4547 -0.8137
   45DOPE     P 5687   3.627  -0.029  12.915  0.0567  0.2364  0.4006
   45DOPE   O13 5688   3.653   0.113  12.880  0.1452  0.1857 -0.1056
   45DOPE   O14 5689   3.665  -0.127  12.811  0.0527  0.2899 -0.4573
   45DOPE   O11 5690   3.690  -0.072  13.052 -0.3431  0.6149  0.0161
   45DOPE   O12 5691   3.476  -0.039  12.941 -0.2453 -0.1209  0.0376
   45DOPE    C1 5692   3.688  -0.209  13.082  0.1799  0.3843 -0.4247
   45DOPE    HA 5693   3.751  -0.264  13.009 -2.1097 -0.2577 -2.0164
   45DOPE    HB 5694   3.589  -0.258  13.071 -0.0952  0.5503  1.1345
   45DOPE    C2 5695   3.738  -0.221  13.230  0.0109 -0.3795  0.5753
   45DOPE    HS 5696   3.687  -0.142  13.290 -1.3752 -1.0051  0.2550
   45DOPE   O21 5697   3.878  -0.201  13.222  0.1421 -0.4027 -0.3838
   45DOPE   C21 5698   3.932  -0.146  13.330  0.8873 -0.0513 -0.2751
   45DOPE   O22 5699   3.873  -0.126  13.434  0.4598 -0.2739  0.1767
   45DOPE   C22 5700   4.081  -0.098  13.301  0.1436 -0.6006 -0.3137
   45DOPE   H2R 5701   4.092  -0.052  13.201 -0.6249  0.8228  0.2229
   45DOPE   H2S 5702   4.144  -0.189  13.291  0.2111 -0.4358 -1.5419
   45DOPE    C3 5703   3.707  -0.363  13.298 -0.2673 -0.0100 -0.4957
   45DOPE    HX 5704   3.753  -0.376  13.399  1.7401 -0.5175 -1.4118
   45DOPE    HY 5705   3.773  -0.439  13.250 -0.6765  0.3986 -1.7205
   45DOPE   O31 5706   3.566  -0.407  13.304 -0.0135  0.0971  0.1656
   45DOPE   C31 5707   3.488  -0.351  13.395  0.8286 -0.6237  0.3624
   45DOPE   O32 5708   3.517  -0.251  13.455  0.2704  0.8318  0.4558
   45DOPE   C32 5709   3.353  -0.427  13.422  0.3111 -0.7334 -0.1924
   45DOPE   H2X 5710   3.322  -0.382  13.519  2.0211 -0.2902  0.1974
   45DOPE   H2Y 5711   3.275  -0.402  13.347  0.3442  0.4181  0.1407
   45DOPE   C23 5712   4.125  -0.017  13.428  0.0001 -0.0129 -0.1488
   45DOPE   H3R 5713   4.055   0.069  13.436  0.1366  0.3025 -2.0294
   45DOPE   H3S 5714   4.222   0.032  13.405 -0.3915 -0.2255 -2.4919
   45DOPE   C24 5715   4.151  -0.086  13.564  0.4996 -0.5810 -0.0944
   45DOPE   H4R 5716   4.056  -0.126  13.607  0.6979  0.3685  1.2718
   45DOPE   H4S 5717   4.184  -0.006  13.633 -0.0752  1.2982 -1.8751
   45DOPE   C25 5718   4.258  -0.195  13.585  0.2902  0.2280  0.4085
   45DOPE   H5R 5719   4.212  -0.280  13.529 -0.6088  0.9852 -0.0446
   45DOPE   H5S 5720   4.274  -0.232  13.688  0.4137 -0.6798  0.0721
   45DOPE   C26 5721   4.392  -0.176  13.518  0.7816  0.0495  0.2260
   45DOPE   H6R 5722   4.372  -0.164  13.409 -0.7819 -1.7506  0.2743
   45DOPE   H6S 5723   4.467  -0.256  13.536  1.5614  0.8389  0.6118
   45DOPE   C27 5724   4.459  -0.048  13.569  0.1210  0.1008  0.1640
   45DOPE   H7R 5725   4.410   0.044  13.530  2.0506  0.9230 -0.4354
   45DOPE   H7S 5726   4.562  -0.040  13.528 -0.4088 -0.9453 -1.4597
   45DOPE   C28 5727   4.470  -0.047  13.732 -0.0517 -0.0564  0.0780
   45DOPE   H8R 5728   4.522  -0.144  13.749  0.1905  0.4247  2.5414
   45DOPE   H8S 5729   4.361  -0.043  13.751 -0.9762 -3.7183 -3.1337
   45DOPE   C29 5730   4.564   0.062  13.788  0.1777 -0.5359  0.1111
   45DOPE   H9R 5731   4.634   0.104  13.715 -1.0320 -2.5195 -2.3176
   45DOPE  C210 5732   4.536   0.120  13.912 -0.5749  0.0908 -0.2313
   45DOPE  H10R 5733   4.607   0.194  13.949  1.0385 -0.7561 -1.5102
   45DOPE  C211 5734   4.431   0.078  14.013  0.4590 -0.6914 -0.0633
   45DOPE  H11R 5735   4.358   0.006  13.972  0.0446  0.5419 -1.5442
   45DOPE  H11S 5736   4.373   0.171  14.029  0.6630 -0.1842 -2.0197
   45DOPE  C212 5737   4.490   0.006  14.133  0.9327 -0.2128 -0.5901
   45DOPE  H12R 5738   4.568   0.076  14.171  1.3089  0.1882 -2.0516
   45DOPE  H12S 5739   4.536  -0.091  14.102  0.0253 -0.8351 -0.0520
   45DOPE  C213 5740   4.380  -0.015  14.247 -0.0224 -0.2504 -0.1854
   45DOPE  H13R 5741   4.300  -0.079  14.203 -0.5360  0.4197 -0.2428
   45DOPE  H13S 5742   4.339   0.086  14.270  1.4366  0.0324  1.3175
   45DOPE  C214 5743   4.431  -0.082  14.370 -0.3615 -0.3520  0.6824
   45DOPE  H14R 5744   4.503  -0.024  14.431  2.2283 -0.9074 -1.6592
   45DOPE  H14S 5745   4.496  -0.164  14.333  0.3086  0.4092  0.1280
   45DOPE  C215 5746   4.334  -0.125  14.470  0.1913 -0.4986 -0.2854
   45DOPE  H15R 5747   4.387  -0.186  14.547  0.5429  1.3294  0.9992
   45DOPE  H15S 5748   4.261  -0.190  14.417  0.3155 -0.2771 -0.7274
   45DOPE  C216 5749   4.257  -0.018  14.545  0.4112  0.2809 -0.1809
   45DOPE  H16R 5750   4.182   0.030  14.479 -0.8558 -0.3263  0.7924
   45DOPE  H16S 5751   4.340   0.046  14.582  1.2141 -0.5329 -0.5241
   45DOPE  C217 5752   4.199  -0.081  14.673 -0.0241 -0.4945 -0.3537
   45DOPE  H17R 5753   4.278  -0.131  14.733 -0.7879  0.7984  1.8055
   45DOPE  H17S 5754   4.127  -0.160  14.641 -1.6727  1.1526 -0.8333
   45DOPE  C218 5755   4.142   0.030  14.763  0.2883  0.2125  0.3792
   45DOPE  H18R 5756   4.056   0.077  14.711  0.5586 -1.1599 -1.4120
   45DOPE  H18S 5757   4.220   0.103  14.795  0.0196  0.3405  0.7518
   45DOPE  H18T 5758   4.113  -0.012  14.862  0.0247  1.3416  0.7962
   45DOPE   C33 5759   3.387  -0.581  13.445  0.3598  0.0559 -0.4062
   45DOPE   H3X 5760   3.442  -0.618  13.356  1.3688 -0.1523  0.2920
   45DOPE   H3Y 5761   3.287  -0.629  13.452  0.2265 -0.1065 -2.6839
   45DOPE   C34 5762   3.469  -0.629  13.567  0.4626  0.0281  1.0383
   45DOPE   H4X 5763   3.491  -0.735  13.545 -2.3668 -0.6479  1.0838
   45DOPE   H4Y 5764   3.564  -0.571  13.568  1.1842 -0.8109 -2.6779
   45DOPE   C35 5765   3.411  -0.629  13.702  0.5086 -0.7092 -0.7267
   45DOPE   H5X 5766   3.347  -0.540  13.717 -1.1836 -1.9548 -0.2690
   45DOPE   H5Y 5767   3.506  -0.631  13.760  0.2279  1.8962 -0.0732
   45DOPE   C36 5768   3.336  -0.760  13.742 -0.4738 -0.3244  0.3121
   45DOPE   H6X 5769   3.413  -0.839  13.729 -0.7756 -0.5186 -0.3096
   45DOPE   H6Y 5770   3.253  -0.791  13.674 -1.5860 -1.1561  1.9911
   45DOPE   C37 5771   3.275  -0.745  13.883  0.2175  0.3537  0.2590
   45DOPE   H7X 5772   3.354  -0.717  13.956  0.9611 -0.1146 -0.3506
   45DOPE   H7Y 5773   3.200  -0.663  13.879 -0.0463  0.0734 -1.2599
   45DOPE   C38 5774   3.201  -0.872  13.932 -0.4459 -0.2471 -0.8748
   45DOPE   H8X 5775   3.162  -0.850  14.034 -1.6374  2.0930 -1.7473
   45DOPE   H8Y 5776   3.263  -0.962  13.951 -0.0231  0.2698  0.3364
   45DOPE   C39 5777   3.084  -0.899  13.838  0.1300  0.3653  0.1447
   45DOPE   H9X 5778   3.109  -0.937  13.738 -1.7612 -0.5841 -0.0043
   45DOPE  C310 5779   2.952  -0.873  13.857  0.8840 -0.1149  0.6434
   45DOPE  H10X 5780   2.880  -0.908  13.781  0.7736 -0.2070  0.7874
   45DOPE  C311 5781   2.893  -0.813  13.978  0.5129 -0.1090 -1.0896
   45DOPE  H11X 5782   2.971  -0.809  14.058  2.4788  0.2712 -2.9527
   45DOPE  H11Y 5783   2.854  -0.711  13.961  1.0272 -0.0076 -1.6969
   45DOPE  C312 5784   2.782  -0.903  14.036  0.4756 -0.3528 -0.6148
   45DOPE  H12X 5785   2.715  -0.929  13.951 -0.2506 -0.0098 -0.1460
   45DOPE  H12Y 5786   2.720  -0.838  14.100  0.0850 -1.4915  0.1859
   45DOPE  C313 5787   2.836  -1.030  14.107  0.2234 -0.6038  0.3694
   45DOPE  H13X 5788   2.755  -1.106  14.113 -2.5403  2.1486  0.9266
   45DOPE  H13Y 5789   2.925  -1.069  14.053 -1.0259 -2.2950 -0.5765
   45DOPE  C314 5790   2.871  -1.000  14.256  0.6995  0.6925  0.0907
   45DOPE  H14X 5791   2.913  -0.897  14.250  3.7385 -0.4526  0.1338
   45DOPE  H14Y 5792   2.951  -1.061  14.302  1.9070  0.8980 -1.6411
   45DOPE  C315 5793   2.745  -0.999  14.355  0.1834  1.1554  0.4620
   45DOPE  H15X 5794   2.658  -0.944  14.314 -0.7602  1.2861  2.5308
   45DOPE  H15Y 5795   2.779  -0.934  14.439 -3.2425  1.9410  1.3803
   45DOPE  C316 5796   2.719  -1.139  14.414 -0.1992 -0.4941 -0.8740
   45DOPE  H16X 5797   2.815  -1.179  14.452 -0.9480 -1.0277  0.5122
   45DOPE  H16Y 5798   2.683  -1.210  14.336 -0.9249 -0.7950 -0.2681
   45DOPE  C317 5799   2.609  -1.130  14.523  0.3179 -0.6058  0.6859
   45DOPE  H17X 5800   2.650  -1.195  14.603  0.1135  0.0083  1.3003
   45DOPE  H17Y 5801   2.598  -1.030  14.569 -0.2199 -1.5689  2.7425
   45DOPE  C318 5802   2.465  -1.173  14.488 -0.3563 -0.2373  0.1204
   45DOPE  H18X 5803   2.467  -1.284  14.477 -1.1048 -0.6547  3.2518
   45DOPE  H18Y 5804   2.394  -1.136  14.565  0.4855 -3.0124  2.4272
   45DOPE  H18Z 5805   2.438  -1.125  14.392  0.1951 -1.9346 -0.9381
   46DOPE     N 5806   5.210   6.941  13.030 -0.9637  0.2298  0.8666
   46DOPE   HN1 5807   5.184   7.029  13.078  0.8501  0.4604  1.5223
   46DOPE   HN2 5808   5.210   6.866  13.102 -2.7007 -0.2239  0.4324
   46DOPE   HN3 5809   5.301   6.964  12.986 -1.6440  1.4540  0.0374
   46DOPE   C12 5810   5.111   6.897  12.922  0.4187  0.6761 -0.1899
   46DOPE  H12A 5811   5.148   6.802  12.878 -2.1126 -0.9705  1.0334
   46DOPE  H12B 5812   5.111   6.981  12.849  0.7933  2.1659  1.4596
   46DOPE   C11 5813   4.962   6.887  12.977  0.0256  0.1866  0.0170
   46DOPE  H11A 5814   4.894   6.893  12.889  0.3433  0.8354 -0.1887
   46DOPE  H11B 5815   4.935   6.978  13.034 -1.9407 -0.2310 -0.1682
   46DOPE     P 5816   4.864   6.643  13.019 -0.3869 -0.0457 -0.3188
   46DOPE   O13 5817   4.924   6.537  13.103  0.1942 -0.1935 -0.2062
   46DOPE   O14 5818   4.859   6.633  12.873 -0.0584 -0.5123  0.9735
   46DOPE   O11 5819   4.723   6.672  13.076 -0.0916  0.4791  0.2601
   46DOPE   O12 5820   4.946   6.768  13.056 -0.0434  0.3483 -0.2741
   46DOPE    C1 5821   4.691   6.743  13.186 -0.0263 -0.6726 -0.6312
   46DOPE    HA 5822   4.590   6.784  13.166 -0.0625 -0.6317 -0.3659
   46DOPE    HB 5823   4.745   6.840  13.186 -2.2324  0.6266  0.0844
   46DOPE    C2 5824   4.693   6.667  13.322 -0.3298  0.7733  0.4232
   46DOPE    HS 5825   4.767   6.584  13.309  1.5052  2.6489 -2.0281
   46DOPE   O21 5826   4.556   6.623  13.347 -0.1832  1.1110  0.3450
   46DOPE   C21 5827   4.546   6.527  13.437  0.2899 -0.5464  0.6307
   46DOPE   O22 5828   4.639   6.476  13.502 -0.4310  0.3033  0.7085
   46DOPE   C22 5829   4.406   6.485  13.459 -0.2300 -0.4276  0.1821
   46DOPE   H2R 5830   4.411   6.390  13.515  2.7372 -0.2213  0.4220
   46DOPE   H2S 5831   4.357   6.472  13.360 -0.8287 -0.5700  0.4977
   46DOPE    C3 5832   4.736   6.763  13.434 -0.7364  0.0325  0.3806
   46DOPE    HX 5833   4.840   6.798  13.413 -0.2897 -2.1923 -1.5112
   46DOPE    HY 5834   4.740   6.716  13.535  0.9604  1.5893  1.1029
   46DOPE   O31 5835   4.664   6.891  13.427  0.0132 -0.2504 -0.0420
   46DOPE   C31 5836   4.583   6.912  13.534 -0.4659 -0.1690 -0.0331
   46DOPE   O32 5837   4.586   6.850  13.634 -0.3721  0.1828  0.7890
   46DOPE   C32 5838   4.514   7.045  13.514  0.1816  0.3189 -0.0865
   46DOPE   H2X 5839   4.575   7.138  13.514  0.3659  0.2453  2.2790
   46DOPE   H2Y 5840   4.455   7.028  13.421  1.2140 -1.0612 -0.5130
   46DOPE   C23 5841   4.320   6.601  13.513 -0.0069  0.4760 -0.4568
   46DOPE   H3R 5842   4.211   6.578  13.518  0.1347  0.0648  1.5988
   46DOPE   H3S 5843   4.337   6.688  13.447  2.2734  1.0888  0.8521
   46DOPE   C24 5844   4.367   6.620  13.666 -1.4815 -0.3663 -0.0172
   46DOPE   H4R 5845   4.474   6.649  13.660 -1.7015  0.8591  1.4331
   46DOPE   H4S 5846   4.363   6.521  13.715  0.8717 -0.2788  0.5003
   46DOPE   C25 5847   4.287   6.729  13.734  1.4652 -0.3567 -0.2043
   46DOPE   H5R 5848   4.180   6.701  13.721  1.5476 -0.1232 -1.5177
   46DOPE   H5S 5849   4.307   6.822  13.676  0.0415 -1.5429 -2.7595
   46DOPE   C26 5850   4.309   6.757  13.883 -0.2929 -0.3035  0.1460
   46DOPE   H6R 5851   4.238   6.839  13.908  1.9958  1.7223  0.3159
   46DOPE   H6S 5852   4.413   6.792  13.897 -0.8457  0.8477  1.5963
   46DOPE   C27 5853   4.285   6.639  13.988 -0.4500 -1.2782  0.1780
   46DOPE   H7R 5854   4.374   6.577  13.961  1.1086  1.8368 -2.5967
   46DOPE   H7S 5855   4.192   6.581  13.971 -0.5757 -1.0754  0.1657
   46DOPE   C28 5856   4.289   6.680  14.134  0.2636 -0.1114  0.0161
   46DOPE   H8R 5857   4.375   6.740  14.170 -0.2667  0.5691  0.1719
   46DOPE   H8S 5858   4.307   6.583  14.186  3.2509 -0.4465 -1.4772
   46DOPE   C29 5859   4.158   6.735  14.177 -0.5725  0.2381  0.5327
   46DOPE   H9R 5860   4.165   6.844  14.163  1.5065 -0.0145 -0.8471
   46DOPE  C210 5861   4.057   6.664  14.230 -0.0037  0.1628  0.1012
   46DOPE  H10R 5862   3.960   6.705  14.262 -0.5356 -0.1965 -0.9907
   46DOPE  C211 5863   4.055   6.523  14.276  0.4328 -0.9292 -0.3942
   46DOPE  H11R 5864   4.138   6.465  14.228  1.1832  0.9181 -1.4259
   46DOPE  H11S 5865   3.962   6.470  14.246 -0.6569  0.6840  0.0526
   46DOPE  C212 5866   4.080   6.522  14.429  0.4855  0.9655 -0.2988
   46DOPE  H12R 5867   4.069   6.413  14.446  0.5694  0.2601 -3.8712
   46DOPE  H12S 5868   4.004   6.579  14.486 -0.0535 -0.0769  0.0511
   46DOPE  C213 5869   4.212   6.575  14.484 -0.6689 -0.2609  0.4980
   46DOPE  H13R 5870   4.213   6.685  14.473  0.0430  0.0143  2.7497
   46DOPE  H13S 5871   4.293   6.530  14.423  0.2494  0.2024  1.3417
   46DOPE  C214 5872   4.248   6.537  14.630 -1.1141 -0.0778  1.1472
   46DOPE  H14R 5873   4.341   6.476  14.636 -1.7943 -1.4600 -1.0709
   46DOPE  H14S 5874   4.167   6.467  14.658 -3.4014 -0.3125 -4.7318
   46DOPE  C215 5875   4.254   6.652  14.728 -0.1352 -0.4123 -0.6980
   46DOPE  H15R 5876   4.165   6.718  14.716  0.6033  0.6882 -0.3170
   46DOPE  H15S 5877   4.340   6.722  14.720 -0.9014  0.7995  1.0598
   46DOPE  C216 5878   4.246   6.619  14.876 -0.2015 -0.3038 -0.2977
   46DOPE  H16R 5879   4.286   6.707  14.932 -0.0263 -0.3672 -0.3217
   46DOPE  H16S 5880   4.329   6.552  14.907  1.9046  2.3443  0.1300
   46DOPE  C217 5881   4.114   6.571  14.936 -0.0828  0.7072 -0.1495
   46DOPE  H17R 5882   4.079   6.484  14.877 -1.1369  0.7148  0.4503
   46DOPE  H17S 5883   4.036   6.648  14.921  1.6743  2.9020  1.1915
   46DOPE  C218 5884   4.132   6.525  15.085 -0.0270  0.5724 -0.0251
   46DOPE  H18R 5885   4.043   6.468  15.121  1.1946 -1.9332 -0.7248
   46DOPE  H18S 5886   4.161   6.611  15.149  1.5040 -0.7818  1.1999
   46DOPE  H18T 5887   4.212   6.448  15.090 -1.4125 -0.8456  1.7091
   46DOPE   C33 5888   4.428   7.094  13.633 -0.1477  0.4659  0.1127
   46DOPE   H3X 5889   4.331   7.040  13.642 -0.1540  0.4630  0.0251
   46DOPE   H3Y 5890   4.393   7.192  13.595 -2.2129 -0.5252 -0.6734
   46DOPE   C34 5891   4.499   7.107  13.765  0.6051  0.2660 -0.0955
   46DOPE   H4X 5892   4.544   7.012  13.802 -2.0597 -1.2341 -0.4815
   46DOPE   H4Y 5893   4.585   7.177  13.756  0.2591  0.8056  0.6642
   46DOPE   C35 5894   4.397   7.165  13.870 -0.1424  0.2950 -0.2586
   46DOPE   H5X 5895   4.375   7.074  13.929  2.3562 -0.1191  0.1435
   46DOPE   H5Y 5896   4.311   7.198  13.808  1.0834  1.6670 -1.3010
   46DOPE   C36 5897   4.455   7.268  13.965 -0.2259  0.0626 -0.5070
   46DOPE   H6X 5898   4.371   7.312  14.024 -0.1025 -0.3800  0.0110
   46DOPE   H6Y 5899   4.507   7.357  13.923 -0.3255  2.7666  4.3134
   46DOPE   C37 5900   4.537   7.206  14.081 -0.4956  0.2588 -0.1622
   46DOPE   H7X 5901   4.506   7.249  14.179  1.6107  0.9548  0.2430
   46DOPE   H7Y 5902   4.512   7.097  14.082 -0.0187  0.1325 -1.2498
   46DOPE   C38 5903   4.684   7.231  14.077 -0.9318 -0.5391 -0.1138
   46DOPE   H8X 5904   4.695   7.338  14.050 -1.3653 -0.3018  0.6108
   46DOPE   H8Y 5905   4.736   7.169  14.001 -0.6970 -0.1934 -0.2360
   46DOPE   C39 5906   4.744   7.206  14.213  0.9975 -0.7575  0.3461
   46DOPE   H9X 5907   4.723   7.104  14.245 -1.3639 -0.0682  1.1852
   46DOPE  C310 5908   4.819   7.289  14.285 -0.0576  0.2525  0.5039
   46DOPE  H10X 5909   4.864   7.256  14.380  2.8647 -0.0285 -0.8474
   46DOPE  C311 5910   4.865   7.427  14.238 -0.2560  0.6183 -0.2974
   46DOPE  H11X 5911   4.974   7.429  14.259  0.3857 -0.9195 -2.8984
   46DOPE  H11Y 5912   4.870   7.432  14.127 -1.4528 -0.5416 -0.4276
   46DOPE  C312 5913   4.785   7.540  14.303  0.4092  0.5170 -0.9307
   46DOPE  H12X 5914   4.767   7.539  14.412  0.5773 -1.4930 -0.8699
   46DOPE  H12Y 5915   4.680   7.544  14.266  0.4937  2.4932 -1.0410
   46DOPE  C313 5916   4.848   7.671  14.273 -0.4836  0.1906 -0.4223
   46DOPE  H13X 5917   4.957   7.651  14.276 -0.5942 -0.8931 -2.2098
   46DOPE  H13Y 5918   4.811   7.695  14.171 -1.8860  1.2034  0.2851
   46DOPE  C314 5919   4.821   7.791  14.374 -0.0668  0.2616 -0.9547
   46DOPE  H14X 5920   4.864   7.759  14.471  1.2281  3.6115 -0.3245
   46DOPE  H14Y 5921   4.712   7.812  14.377  0.1731  1.5414 -0.7842
   46DOPE  C315 5922   4.896   7.923  14.344 -0.5777  0.6798  0.6042
   46DOPE  H15X 5923   4.840   8.006  14.394  0.3828  0.5470  1.9569
   46DOPE  H15Y 5924   4.894   7.937  14.234 -0.5625  0.6602  0.6019
   46DOPE  C316 5925   5.041   7.922  14.401 -0.7287 -0.2171  0.7203
   46DOPE  H16X 5926   5.092   7.834  14.356 -0.8561  0.1522 -0.1544
   46DOPE  H16Y 5927   5.029   7.908  14.511  1.9076 -1.3461  0.9545
   46DOPE  C317 5928   5.114   8.051  14.363  0.1335 -0.0370 -0.2873
   46DOPE  H17X 5929   5.222   8.040  14.384 -0.5231 -2.6384  2.6167
   46DOPE  H17Y 5930   5.099   8.073  14.255  1.3812  1.4972 -0.1767
   46DOPE  C318 5931   5.055   8.179  14.432  0.3732  0.4775  0.0490
   46DOPE  H18X 5932   4.957   8.221  14.398 -0.0273  0.6289  1.3354
   46DOPE  H18Y 5933   5.046   8.162  14.541  1.7472  1.3529  0.3160
   46DOPE  H18Z 5934   5.126   8.264  14.424  0.9774 -0.0991 -0.8836
   47DOPE     N 5935   0.261   3.601  12.697 -0.5464  0.2959  0.3388
   47DOPE   HN1 5936   0.245   3.658  12.611 -1.6272  0.9255  0.9284
   47DOPE   HN2 5937   0.330   3.528  12.672 -0.4693 -0.1213  1.6806
   47DOPE   HN3 5938   0.170   3.560  12.726  0.0270 -0.4100  1.1715
   47DOPE   C12 5939   0.313   3.685  12.815 -0.4941 -0.6080 -0.6662
   47DOPE  H12A 5940   0.399   3.738  12.769 -1.1225 -0.3540 -1.5829
   47DOPE  H12B 5941   0.352   3.620  12.896 -0.7744  0.9834  0.8053
   47DOPE   C11 5942   0.201   3.766  12.884  0.0591  0.4008  1.0532
   47DOPE  H11A 5943   0.179   3.863  12.834 -1.6914 -1.0348 -1.2125
   47DOPE  H11B 5944   0.232   3.801  12.985  1.5674  0.9574  0.4213
   47DOPE     P 5945   0.012   3.641  13.014 -0.0034 -0.0599 -0.6444
   47DOPE   O13 5946   0.081   3.521  13.069  0.7271 -0.0666 -0.0425
   47DOPE   O14 5947  -0.128   3.627  12.998  1.1808 -1.1341 -0.0197
   47DOPE   O11 5948   0.050   3.761  13.114 -0.3340 -0.1777 -0.3404
   47DOPE   O12 5949   0.082   3.687  12.880 -0.5887 -0.3305 -0.2583
   47DOPE    C1 5950  -0.042   3.866  13.150 -0.0893 -0.0925  0.1265
   47DOPE    HA 5951  -0.137   3.821  13.186  1.0415 -1.2265  1.8375
   47DOPE    HB 5952  -0.071   3.932  13.065  2.8830  2.0987  0.6500
   47DOPE    C2 5953   0.026   3.968  13.247  0.1917 -0.7198  0.9683
   47DOPE    HS 5954   0.113   4.022  13.204  1.4660 -1.2876  2.7253
   47DOPE   O21 5955   0.074   3.894  13.359  0.2266  0.5644 -0.0548
   47DOPE   C21 5956   0.202   3.857  13.347  0.5526  0.2572  0.3984
   47DOPE   O22 5957   0.282   3.892  13.256  0.3720  0.1399 -0.4795
   47DOPE   C22 5958   0.230   3.770  13.470  0.2531 -0.0100 -0.4512
   47DOPE   H2R 5959   0.189   3.667  13.456  1.4405 -0.4738 -0.6716
   47DOPE   H2S 5960   0.184   3.827  13.554  1.9736 -0.9161  1.1909
   47DOPE    C3 5961  -0.081   4.073  13.287  0.2384 -0.2616 -0.1458
   47DOPE    HX 5962  -0.055   4.127  13.381  0.1463  0.3480 -0.4672
   47DOPE    HY 5963  -0.160   4.012  13.336 -0.3829  0.5972 -0.0452
   47DOPE   O31 5964  -0.133   4.151  13.178 -0.1668 -0.4580  0.2764
   47DOPE   C31 5965  -0.046   4.256  13.144 -0.4527 -0.2520  0.6317
   47DOPE   O32 5966   0.068   4.264  13.190  0.6775 -0.1410 -0.2105
   47DOPE   C32 5967  -0.102   4.355  13.044 -0.0856 -0.0878 -0.5824
   47DOPE   H2X 5968  -0.057   4.324  12.948  0.6974 -1.9452  0.3364
   47DOPE   H2Y 5969  -0.211   4.337  13.029 -0.1916  0.2869 -0.2929
   47DOPE   C23 5970   0.379   3.757  13.493  0.3823 -0.0139  0.0569
   47DOPE   H3R 5971   0.427   3.858  13.489  1.6794 -0.6449 -2.2796
   47DOPE   H3S 5972   0.435   3.691  13.424 -0.9300 -1.1032  0.0104
   47DOPE   C24 5973   0.408   3.714  13.641 -0.7532  0.1179 -0.0090
   47DOPE   H4R 5974   0.494   3.643  13.648 -0.5611  0.4414  1.1052
   47DOPE   H4S 5975   0.328   3.652  13.686  1.5745 -0.9539  2.9778
   47DOPE   C25 5976   0.433   3.831  13.737  0.5880  0.1067 -0.0356
   47DOPE   H5R 5977   0.368   3.918  13.713  1.2285  1.3156  2.2824
   47DOPE   H5S 5978   0.539   3.862  13.738  0.8372 -0.6975 -0.9805
   47DOPE   C26 5979   0.395   3.793  13.885 -0.7272 -0.3625  0.6135
   47DOPE   H6R 5980   0.299   3.738  13.881 -2.0463  1.8904 -0.8053
   47DOPE   H6S 5981   0.376   3.886  13.942 -1.1025 -0.2866  0.3702
   47DOPE   C27 5982   0.508   3.712  13.955 -0.1444  1.1905  0.4280
   47DOPE   H7R 5983   0.587   3.781  13.993 -0.3540  0.8818  1.4586
   47DOPE   H7S 5984   0.552   3.646  13.878 -2.2351 -0.4490  0.5394
   47DOPE   C28 5985   0.467   3.609  14.067  0.2004 -0.7212  0.2406
   47DOPE   H8R 5986   0.434   3.674  14.151  1.9827 -1.1368  1.3195
   47DOPE   H8S 5987   0.566   3.565  14.095  1.1557 -0.7978 -2.8958
   47DOPE   C29 5988   0.379   3.503  14.012 -0.6948 -0.1676  0.8836
   47DOPE   H9R 5989   0.390   3.490  13.903 -2.1124 -0.9520  0.8167
   47DOPE  C210 5990   0.265   3.452  14.062 -0.2802  0.7079 -0.8841
   47DOPE  H10R 5991   0.221   3.375  13.996  1.4293 -0.3065 -0.8922
   47DOPE  C211 5992   0.203   3.468  14.199 -0.0390  0.0826 -0.3048
   47DOPE  H11R 5993   0.114   3.535  14.194 -0.2074 -0.1582 -0.5605
   47DOPE  H11S 5994   0.269   3.517  14.273  1.9133 -1.5856 -0.8653
   47DOPE  C212 5995   0.156   3.330  14.275 -0.7083 -0.6565  0.5649
   47DOPE  H12R 5996   0.247   3.290  14.324 -1.0573 -0.8845  1.0292
   47DOPE  H12S 5997   0.112   3.263  14.199  0.8576 -3.0624  1.6512
   47DOPE  C213 5998   0.054   3.350  14.381  0.2760  0.1358 -0.4085
   47DOPE  H13R 5999  -0.035   3.396  14.335 -0.9726 -1.2281  0.5511
   47DOPE  H13S 6000   0.089   3.422  14.458 -1.1503  1.4894 -0.9724
   47DOPE  C214 6001   0.015   3.224  14.455 -0.2211  0.4805 -0.8459
   47DOPE  H14R 6002  -0.074   3.257  14.514 -0.6989  2.1131 -2.3862
   47DOPE  H14S 6003   0.098   3.199  14.525 -2.0439 -0.4650  1.1066
   47DOPE  C215 6004  -0.002   3.096  14.378 -0.0548  0.7054  0.6819
   47DOPE  H15R 6005   0.094   3.046  14.356 -0.5095  0.4583 -0.8529
   47DOPE  H15S 6006  -0.052   3.115  14.281  0.9564  2.2340  0.4260
   47DOPE  C216 6007  -0.076   2.998  14.473  0.4435 -0.4075 -0.3546
   47DOPE  H16R 6008  -0.156   3.055  14.525  2.0857  1.2956  0.4166
   47DOPE  H16S 6009  -0.003   2.971  14.552 -0.4293  1.6789  1.2809
   47DOPE  C217 6010  -0.114   2.855  14.416  0.5567  0.6134  0.6331
   47DOPE  H17R 6011  -0.192   2.867  14.339  0.2881  2.0227  1.1014
   47DOPE  H17S 6012  -0.158   2.790  14.495  0.9013 -0.1381  0.2228
   47DOPE  C218 6013   0.006   2.780  14.358 -0.4174  0.3578  0.5007
   47DOPE  H18R 6014   0.047   2.830  14.268  0.4306  0.0398  0.6994
   47DOPE  H18S 6015  -0.017   2.675  14.329 -0.7079  0.3153  0.8709
   47DOPE  H18T 6016   0.089   2.765  14.430 -0.2462  2.7724  0.9088
   47DOPE   C33 6017  -0.063   4.505  13.078  0.3341 -0.2397  0.2205
   47DOPE   H3X 6018  -0.058   4.560  12.981  3.3765 -0.5685  0.0697
   47DOPE   H3Y 6019   0.040   4.512  13.121 -0.3101 -0.1552  1.8152
   47DOPE   C34 6020  -0.159   4.584  13.169  0.0338  0.3316 -0.1867
   47DOPE   H4X 6021  -0.128   4.691  13.168 -0.8043  0.5764 -0.6504
   47DOPE   H4Y 6022  -0.263   4.570  13.133 -0.5519  1.6463  0.8822
   47DOPE   C35 6023  -0.143   4.527  13.312  0.5383  0.4781 -0.4681
   47DOPE   H5X 6024  -0.037   4.519  13.342  0.6715 -1.2099 -1.2825
   47DOPE   H5Y 6025  -0.199   4.431  13.319 -3.6552  2.7495  0.7929
   47DOPE   C36 6026  -0.221   4.609  13.411  0.0152  0.1641 -0.6744
   47DOPE   H6X 6027  -0.324   4.616  13.369 -0.1450  0.1259 -0.2944
   47DOPE   H6Y 6028  -0.185   4.711  13.438 -1.6381  0.0392  2.5666
   47DOPE   C37 6029  -0.229   4.534  13.541 -0.3107 -0.0424 -0.0290
   47DOPE   H7X 6030  -0.267   4.433  13.515  1.2505 -1.1845  1.8451
   47DOPE   H7Y 6031  -0.133   4.514  13.594  0.9720 -0.2606 -2.3403
   47DOPE   C38 6032  -0.324   4.605  13.640 -0.5157  0.5442 -0.0522
   47DOPE   H8X 6033  -0.400   4.665  13.587  0.1152 -1.0464 -2.9973
   47DOPE   H8Y 6034  -0.265   4.683  13.693  0.6937  1.2720 -2.3451
   47DOPE   C39 6035  -0.390   4.517  13.746  0.4063  0.0167  0.3787
   47DOPE   H9X 6036  -0.483   4.468  13.713  1.2590 -0.7937 -0.9291
   47DOPE  C310 6037  -0.340   4.483  13.860 -0.0532 -0.7990  0.1841
   47DOPE  H10X 6038  -0.402   4.421  13.926  0.6793 -2.7795 -0.8986
   47DOPE  C311 6039  -0.205   4.515  13.915  0.3702  0.7908  0.4468
   47DOPE  H11X 6040  -0.147   4.425  13.943 -1.1555 -0.3255  0.1578
   47DOPE  H11Y 6041  -0.138   4.555  13.836  2.1419  1.2733  2.1137
   47DOPE  C312 6042  -0.199   4.598  14.047 -0.5946 -0.0425  0.7865
   47DOPE  H12X 6043  -0.101   4.579  14.098 -1.7003  0.8137  3.4041
   47DOPE  H12Y 6044  -0.280   4.575  14.120  0.8434 -1.0723  2.1390
   47DOPE  C313 6045  -0.195   4.753  14.028  0.3100  0.8708  0.6456
   47DOPE  H13X 6046  -0.109   4.770  13.960  0.7534 -2.8839  0.0345
   47DOPE  H13Y 6047  -0.290   4.774  13.976 -0.7427 -2.8664  0.8075
   47DOPE  C314 6048  -0.194   4.820  14.158  0.4274 -0.4317 -0.4755
   47DOPE  H14X 6049  -0.281   4.784  14.217  0.0608 -1.4419 -1.5812
   47DOPE  H14Y 6050  -0.190   4.930  14.142  2.4499 -0.6512 -1.8200
   47DOPE  C315 6051  -0.071   4.785  14.244  0.0794  0.2987  0.0059
   47DOPE  H15X 6052   0.014   4.801  14.175 -1.8229 -0.7827 -2.7492
   47DOPE  H15Y 6053  -0.085   4.683  14.287 -1.0550  0.6050  0.4083
   47DOPE  C316 6054  -0.061   4.875  14.375  0.0231 -0.5138  0.6624
   47DOPE  H16X 6055  -0.159   4.885  14.426  0.1248 -0.0045  0.7581
   47DOPE  H16Y 6056  -0.028   4.975  14.340 -0.9822 -0.0808  0.9068
   47DOPE  C317 6057   0.045   4.810  14.463  0.0533  0.8848  0.1351
   47DOPE  H17X 6058   0.003   4.709  14.483  0.8549  0.6040  0.4466
   47DOPE  H17Y 6059   0.138   4.824  14.405  1.0418  0.9990  1.6832
   47DOPE  C318 6060   0.047   4.893  14.594  0.2652  0.2553 -0.1876
   47DOPE  H18X 6061  -0.049   4.877  14.647  1.3008 -1.8495  1.1541
   47DOPE  H18Y 6062   0.121   4.858  14.669 -0.4216 -0.8924 -0.0277
   47DOPE  H18Z 6063   0.063   5.002  14.581  0.8437  0.0874 -0.9453
   48DOPE     N 6064   7.068   0.320  13.103  0.1979 -0.2120 -0.1348
   48DOPE   HN1 6065   7.115   0.248  13.044 -0.6050 -1.1231  0.3179
   48DOPE   HN2 6066   7.136   0.380  13.154 -0.4039  1.1740 -0.9116
   48DOPE   HN3 6067   7.014   0.267  13.174  0.7266 -1.3415 -0.5458
   48DOPE   C12 6068   6.973   0.400  13.018  0.5776 -0.0786 -0.1412
   48DOPE  H12A 6069   6.936   0.345  12.929 -0.2612  1.0117 -0.4890
   48DOPE  H12B 6070   7.018   0.493  12.977  1.5921  0.1416  1.3987
   48DOPE   C11 6071   6.848   0.436  13.101  0.9780  0.2060  0.2871
   48DOPE  H11A 6072   6.761   0.483  13.051  0.2957  0.0001  1.2370
   48DOPE  H11B 6073   6.877   0.509  13.179 -1.9551  2.4873 -0.5923
   48DOPE     P 6074   6.670   0.243  13.163 -0.0067 -0.2260  0.3713
   48DOPE   O13 6075   6.655   0.144  13.268  0.0094  0.1009 -0.5298
   48DOPE   O14 6076   6.656   0.193  13.023  0.1265 -0.6649  0.2109
   48DOPE   O11 6077   6.559   0.356  13.189  0.0557  0.2757  0.2716
   48DOPE   O12 6078   6.813   0.314  13.170  0.8699  0.0956  0.1250
   48DOPE    C1 6079   6.552   0.455  13.290 -0.4681 -0.0365  0.0563
   48DOPE    HA 6080   6.487   0.539  13.258 -0.1387  1.4361  2.9178
   48DOPE    HB 6081   6.649   0.502  13.316 -1.2743  1.1070  1.1557
   48DOPE    C2 6082   6.481   0.402  13.419  0.5484 -0.8209 -0.3636
   48DOPE    HS 6083   6.529   0.305  13.442  1.3322 -0.4068 -0.2354
   48DOPE   O21 6084   6.343   0.398  13.385 -0.3450  0.1394  0.2550
   48DOPE   C21 6085   6.271   0.310  13.462 -0.1062  0.3685  0.0601
   48DOPE   O22 6086   6.318   0.224  13.535 -0.3084  0.2182  0.6736
   48DOPE   C22 6087   6.127   0.343  13.456  0.0207 -0.5406  0.2152
   48DOPE   H2R 6088   6.070   0.282  13.530 -2.1226 -0.7050 -1.4773
   48DOPE   H2S 6089   6.087   0.333  13.353 -0.3651  1.3119  0.1495
   48DOPE    C3 6090   6.506   0.510  13.541  0.3365  0.9164 -0.0256
   48DOPE    HX 6091   6.456   0.608  13.523 -1.4994  0.0216  0.0005
   48DOPE    HY 6092   6.615   0.529  13.547  0.3732  0.1734  3.0316
   48DOPE   O31 6093   6.455   0.460  13.668 -0.5517  0.0677  0.1891
   48DOPE   C31 6094   6.540   0.375  13.728  0.2815 -0.3183  0.0592
   48DOPE   O32 6095   6.655   0.362  13.696 -0.4720 -0.0265  0.5811
   48DOPE   C32 6096   6.460   0.293  13.833  0.1530 -0.1675 -0.8281
   48DOPE   H2X 6097   6.396   0.367  13.886 -2.4272 -1.4787 -1.9337
   48DOPE   H2Y 6098   6.398   0.228  13.768  0.5292 -0.7661 -0.5991
   48DOPE   C23 6099   6.111   0.490  13.505 -0.0285 -0.5601 -0.3012
   48DOPE   H3R 6100   6.015   0.535  13.472  0.2567  0.8200  0.6541
   48DOPE   H3S 6101   6.184   0.555  13.452  0.0281 -1.5348 -1.4511
   48DOPE   C24 6102   6.129   0.511  13.658  0.2269  0.4991  0.7326
   48DOPE   H4R 6103   6.160   0.617  13.668 -1.1546  0.8747  1.2296
   48DOPE   H4S 6104   6.201   0.434  13.693 -0.9792 -1.0654 -0.0821
   48DOPE   C25 6105   6.012   0.497  13.750  0.0331 -0.2851 -0.2079
   48DOPE   H5R 6106   5.952   0.405  13.728 -0.2663  0.5226 -3.1960
   48DOPE   H5S 6107   5.936   0.577  13.737  0.2102  0.1301  1.1460
   48DOPE   C26 6108   6.053   0.500  13.893  0.3438 -0.3522  0.2121
   48DOPE   H6R 6109   6.105   0.594  13.921 -0.3207 -0.0527  0.4407
   48DOPE   H6S 6110   6.136   0.425  13.900  2.3322  1.7353  0.2403
   48DOPE   C27 6111   5.940   0.465  13.993  0.1611  0.4584  0.4871
   48DOPE   H7R 6112   5.910   0.360  13.975  1.2774  0.4598 -1.7735
   48DOPE   H7S 6113   5.859   0.534  13.961  0.4147  1.3152  1.6262
   48DOPE   C28 6114   5.970   0.477  14.144  0.6498 -0.5647  0.0600
   48DOPE   H8R 6115   5.874   0.467  14.199  1.1059 -2.9553  0.5514
   48DOPE   H8S 6116   6.010   0.578  14.166  0.7865 -0.8731  1.3342
   48DOPE   C29 6117   6.069   0.369  14.197 -0.7273 -0.6060  0.4791
   48DOPE   H9R 6118   6.145   0.337  14.125  0.1861  1.1105  0.6217
   48DOPE  C210 6119   6.081   0.340  14.326 -0.0901  0.4060 -0.4821
   48DOPE  H10R 6120   6.167   0.280  14.362  0.2843  1.1284 -0.1596
   48DOPE  C211 6121   5.993   0.389  14.435 -0.2671  0.1798 -0.4396
   48DOPE  H11R 6122   5.980   0.304  14.505 -1.8272 -0.5039 -1.4938
   48DOPE  H11S 6123   5.893   0.423  14.399  0.0005  1.8415  0.3137
   48DOPE  C212 6124   6.047   0.517  14.516  0.1218  0.1082  0.6574
   48DOPE  H12R 6125   5.965   0.542  14.587 -0.9013  1.6149 -0.9503
   48DOPE  H12S 6126   6.067   0.601  14.446  0.8477  0.3689  1.1653
   48DOPE  C213 6127   6.184   0.488  14.585 -0.1678 -0.0984 -0.2243
   48DOPE  H13R 6128   6.234   0.581  14.619  1.3672 -1.0667  0.2341
   48DOPE  H13S 6129   6.245   0.443  14.504  0.0015  2.0823 -1.3903
   48DOPE  C214 6130   6.173   0.391  14.697  0.1550 -0.8247  0.6049
   48DOPE  H14R 6131   6.280   0.378  14.724  0.6180  0.4859 -0.4955
   48DOPE  H14S 6132   6.143   0.288  14.666  0.2176 -0.8507  0.6293
   48DOPE  C215 6133   6.086   0.426  14.816 -0.5036  0.6667 -0.1453
   48DOPE  H15R 6134   5.996   0.478  14.777  0.2909  0.1272 -3.0054
   48DOPE  H15S 6135   6.135   0.501  14.881  0.5314 -1.6148  1.8864
   48DOPE  C216 6136   6.031   0.305  14.893  0.2016  0.3622  0.1606
   48DOPE  H16R 6137   6.115   0.268  14.957 -0.0333 -0.0057  0.2599
   48DOPE  H16S 6138   5.992   0.230  14.821 -1.3730 -0.3286  1.6664
   48DOPE  C217 6139   5.908   0.343  14.974  0.0193 -0.6965  0.7169
   48DOPE  H17R 6140   5.860   0.249  15.010  0.3250 -2.0977 -2.2559
   48DOPE  H17S 6141   5.830   0.385  14.907  1.4260  0.0431 -0.5098
   48DOPE  C218 6142   5.930   0.438  15.093 -0.1108  0.0046 -0.2868
   48DOPE  H18R 6143   5.836   0.459  15.148 -0.6889  0.5004 -1.4543
   48DOPE  H18S 6144   5.981   0.531  15.060  0.6878 -0.6930 -1.0611
   48DOPE  H18T 6145   5.987   0.380  15.169 -0.9920 -2.4230 -1.3684
   48DOPE   C33 6146   6.556   0.210  13.921 -0.3976  0.7162  0.1685
   48DOPE   H3X 6147   6.654   0.180  13.877  0.6335 -1.3792  3.5381
   48DOPE   H3Y 6148   6.508   0.112  13.943 -0.7585  0.5980 -1.0642
   48DOPE   C34 6149   6.593   0.279  14.050  0.8136 -0.6914  0.3471
   48DOPE   H4X 6150   6.665   0.216  14.107 -0.2458 -0.6048  1.8617
   48DOPE   H4Y 6151   6.646   0.372  14.019  0.3062 -1.2982 -2.5804
   48DOPE   C35 6152   6.471   0.308  14.145 -0.0406  0.3837  0.5155
   48DOPE   H5X 6153   6.430   0.209  14.176 -0.0600  0.4063  0.5618
   48DOPE   H5Y 6154   6.390   0.373  14.107 -0.8861 -0.2351  1.2076
   48DOPE   C36 6155   6.517   0.384  14.275 -0.1022  0.1900 -0.3691
   48DOPE   H6X 6156   6.451   0.472  14.292  0.0836  0.4417 -0.9204
   48DOPE   H6Y 6157   6.620   0.425  14.266  0.1537 -0.4848 -0.5912
   48DOPE   C37 6158   6.522   0.298  14.398  0.2904 -0.1142  0.0398
   48DOPE   H7X 6159   6.572   0.356  14.478 -0.1286 -0.8266  0.8315
   48DOPE   H7Y 6160   6.420   0.273  14.433 -0.1462  2.5815  0.9363
   48DOPE   C38 6161   6.615   0.175  14.385  1.2990 -0.0915  0.1525
   48DOPE   H8X 6162   6.718   0.207  14.358  0.8141 -0.9799 -3.1176
   48DOPE   H8Y 6163   6.572   0.121  14.298 -2.0988 -0.5183  1.9533
   48DOPE   C39 6164   6.613   0.091  14.508  0.6054 -0.2373  0.5781
   48DOPE   H9X 6165   6.546   0.004  14.508  1.9374 -1.2952  0.0622
   48DOPE  C310 6166   6.682   0.103  14.622  0.2706  0.0921 -0.6934
   48DOPE  H10X 6167   6.686   0.024  14.698  1.5249  1.2969  0.5568
   48DOPE  C311 6168   6.770   0.218  14.658 -0.6509 -0.1186 -0.2799
   48DOPE  H11X 6169   6.872   0.181  14.682 -0.5384 -1.9308 -3.1162
   48DOPE  H11Y 6170   6.785   0.284  14.570  2.3087 -2.4604 -1.7356
   48DOPE  C312 6171   6.721   0.307  14.777  0.1117 -0.1317  0.1626
   48DOPE  H12X 6172   6.611   0.323  14.766  0.3511  0.2155 -2.2636
   48DOPE  H12Y 6173   6.773   0.405  14.771  1.7085 -0.9580  0.1180
   48DOPE  C313 6174   6.748   0.244  14.911 -0.2154  0.2760  0.5035
   48DOPE  H13X 6175   6.700   0.144  14.920  0.2007  0.1402  1.3126
   48DOPE  H13Y 6176   6.854   0.217  14.930 -0.8835 -0.2969  3.9621
   48DOPE  C314 6177   6.702   0.315  15.038  0.2738 -0.3354  0.4619
   48DOPE  H14X 6178   6.746   0.418  15.036 -0.5212  0.0014 -0.6345
   48DOPE  H14Y 6179   6.740   0.250  15.119  2.8433  0.1687 -0.2461
   48DOPE  C315 6180   6.546   0.331  15.053  0.0300  0.2422  0.0296
   48DOPE  H15X 6181   6.510   0.227  15.065 -0.2960  0.4826  1.2675
   48DOPE  H15Y 6182   6.510   0.378  14.959 -0.5003 -1.2586 -0.5351
   48DOPE  C316 6183   6.518   0.434  15.163 -0.6202 -0.0299 -0.8567
   48DOPE  H16X 6184   6.589   0.518  15.148  0.4901 -1.1004 -1.9196
   48DOPE  H16Y 6185   6.541   0.396  15.265 -1.3990  2.7080  0.4120
   48DOPE  C317 6186   6.374   0.480  15.154  0.6387  0.3393  0.0285
   48DOPE  H17X 6187   6.357   0.534  15.058 -1.4737  1.0572  0.7580
   48DOPE  H17Y 6188   6.303   0.395  15.164  0.6608  0.2300 -0.7195
   48DOPE  C318 6189   6.347   0.581  15.265  0.2506 -0.1772 -0.0853
   48DOPE  H18X 6190   6.239   0.601  15.280 -0.0213 -0.9745 -0.9519
   48DOPE  H18Y 6191   6.386   0.542  15.362 -0.1669 -2.8310 -0.9200
   48DOPE  H18Z 6192   6.405   0.676  15.257  1.7528 -0.7290  2.8721
   49DOPE     N 6193   1.957   4.339  13.042 -0.5927 -0.1055  0.3358
   49DOPE   HN1 6194   2.060   4.326  13.038 -0.6220 -0.1729 -0.5030
   49DOPE   HN2 6195   1.933   4.431  12.999  0.9264 -0.0857 -0.5339
   49DOPE   HN3 6196   1.918   4.327  13.137 -2.7986 -1.1340 -0.6210
   49DOPE   C12 6197   1.886   4.227  12.963  0.4571 -0.8636  0.0601
   49DOPE  H12A 6198   1.907   4.253  12.857 -0.3449 -2.9483 -0.6702
   49DOPE  H12B 6199   1.780   4.254  12.983  0.4341 -0.4828 -0.5809
   49DOPE   C11 6200   1.930   4.087  13.015  0.1743 -0.7500  0.0102
   49DOPE  H11A 6201   1.847   4.019  12.985 -1.2985  1.0677 -0.2632
   49DOPE  H11B 6202   1.921   4.092  13.126 -0.0046  0.7994 -0.0515
   49DOPE     P 6203   2.192   4.076  13.026  0.2033  0.2491  0.6040
   49DOPE   O13 6204   2.218   4.220  13.028  0.2618  0.3217  0.1728
   49DOPE   O14 6205   2.292   3.983  12.963  0.2463  0.1545 -0.0164
   49DOPE   O11 6206   2.160   4.023  13.171 -0.4000 -0.1521 -0.6443
   49DOPE   O12 6207   2.052   4.059  12.956  0.1688  0.1057 -0.3343
   49DOPE    C1 6208   2.131   3.881  13.191 -0.3749  0.0482 -1.0132
   49DOPE    HA 6209   2.163   3.818  13.105 -0.5423 -1.1118 -0.2453
   49DOPE    HB 6210   2.021   3.865  13.193 -0.4828  0.8480  0.6585
   49DOPE    C2 6211   2.200   3.836  13.330  0.4145 -0.2666  0.4195
   49DOPE    HS 6212   2.189   3.726  13.344  0.9655 -0.0315  3.0769
   49DOPE   O21 6213   2.150   3.895  13.450  0.5458 -0.2846  0.2046
   49DOPE   C21 6214   2.024   3.852  13.473  0.2096 -0.0816  0.4520
   49DOPE   O22 6215   1.966   3.766  13.415  0.1071  0.0229  0.1243
   49DOPE   C22 6216   1.961   3.943  13.579 -0.6198 -0.6527 -0.0003
   49DOPE   H2R 6217   1.899   4.013  13.519 -1.1140 -0.6657  0.4795
   49DOPE   H2S 6218   2.033   3.996  13.645  0.5770 -0.5222 -1.3694
   49DOPE    C3 6219   2.355   3.850  13.327  1.0102  0.7959  0.2808
   49DOPE    HX 6220   2.386   3.945  13.279 -0.2977  1.5122  0.8106
   49DOPE    HY 6221   2.385   3.773  13.252 -3.9274 -0.9787 -0.2229
   49DOPE   O31 6222   2.410   3.815  13.457  0.1998  0.1906 -0.2310
   49DOPE   C31 6223   2.444   3.927  13.533  0.2840 -0.2877  0.3933
   49DOPE   O32 6224   2.470   4.041  13.497 -0.2605 -0.2326 -0.0204
   49DOPE   C32 6225   2.458   3.882  13.682 -0.5885  0.8227 -0.1561
   49DOPE   H2X 6226   2.514   3.787  13.682 -2.4845 -0.3636  0.6772
   49DOPE   H2Y 6227   2.522   3.959  13.729 -0.7250 -0.1779  1.7711
   49DOPE   C23 6228   1.872   3.873  13.681  0.4104 -0.0976 -0.3206
   49DOPE   H3R 6229   1.821   3.782  13.641  0.4275  0.6739 -2.1716
   49DOPE   H3S 6230   1.783   3.933  13.708 -0.4647 -1.1127 -0.8655
   49DOPE   C24 6231   1.949   3.830  13.808 -0.5312 -0.0909 -0.5229
   49DOPE   H4R 6232   2.029   3.905  13.828 -0.7012  0.4837 -1.8769
   49DOPE   H4S 6233   2.003   3.735  13.789  0.5937  0.0620  1.5727
   49DOPE   C25 6234   1.860   3.805  13.925 -0.5425 -0.0956 -0.3681
   49DOPE   H5R 6235   1.790   3.721  13.903 -0.1371 -0.3018 -0.8795
   49DOPE   H5S 6236   1.805   3.900  13.943  1.2675  1.0009 -0.3453
   49DOPE   C26 6237   1.945   3.769  14.052  0.6744  0.2028  0.9502
   49DOPE   H6R 6238   1.880   3.772  14.142 -0.1117  0.2379  0.3855
   49DOPE   H6S 6239   2.037   3.828  14.073  2.2665 -0.4884 -3.2066
   49DOPE   C27 6240   1.979   3.616  14.059 -0.6280 -0.1421 -0.9115
   49DOPE   H7R 6241   2.056   3.586  13.986 -0.1654 -0.6352 -0.2291
   49DOPE   H7S 6242   1.890   3.551  14.044 -1.4797  0.1787  2.0738
   49DOPE   C28 6243   2.031   3.574  14.203  0.1476 -0.3725  0.5441
   49DOPE   H8R 6244   1.943   3.595  14.268 -0.1771  1.1866 -0.3564
   49DOPE   H8S 6245   2.113   3.639  14.242  1.5055 -1.4533 -0.4364
   49DOPE   C29 6246   2.063   3.424  14.201 -0.3923 -0.2458 -0.4834
   49DOPE   H9R 6247   2.159   3.391  14.157 -0.9022 -1.9657 -0.3903
   49DOPE  C210 6248   1.978   3.322  14.238 -0.0489  0.0272 -0.7601
   49DOPE  H10R 6249   2.005   3.221  14.202 -3.1776 -0.3706 -2.3030
   49DOPE  C211 6250   1.838   3.316  14.289 -0.5616 -0.0205  0.1278
   49DOPE  H11R 6251   1.791   3.230  14.236  1.1928  0.6407 -2.6966
   49DOPE  H11S 6252   1.791   3.407  14.246 -0.5405  0.1334  0.4223
   49DOPE  C212 6253   1.833   3.306  14.443  0.4460  0.0492 -0.3501
   49DOPE  H12R 6254   1.738   3.349  14.483  0.0216 -1.0297 -0.1548
   49DOPE  H12S 6255   1.911   3.371  14.487  0.8567  0.1767 -1.2517
   49DOPE  C213 6256   1.839   3.163  14.502  0.1804  0.5008  0.0866
   49DOPE  H13R 6257   1.943   3.132  14.525 -0.2419  0.0816  1.5322
   49DOPE  H13S 6258   1.800   3.095  14.423 -1.1785 -1.7013  2.5035
   49DOPE  C214 6259   1.754   3.145  14.626  0.4698  0.5742 -0.2282
   49DOPE  H14R 6260   1.647   3.161  14.604  0.2143 -1.0906 -0.3657
   49DOPE  H14S 6261   1.785   3.220  14.702  2.5684 -0.9821  0.5710
   49DOPE  C215 6262   1.773   3.007  14.692 -0.4283  0.0426  0.1765
   49DOPE  H15R 6263   1.880   2.996  14.722 -0.6288  0.6406  1.1498
   49DOPE  H15S 6264   1.742   2.926  14.623 -0.3404  0.1218  0.0423
   49DOPE  C216 6265   1.690   2.985  14.822 -0.0574  0.6961  0.7651
   49DOPE  H16R 6266   1.580   2.997  14.820 -0.3771 -1.7203 -0.4526
   49DOPE  H16S 6267   1.726   3.062  14.894  0.2023 -0.8182  2.3348
   49DOPE  C217 6268   1.731   2.845  14.877  0.3298 -0.0093 -0.8218
   49DOPE  H17R 6269   1.839   2.824  14.859 -0.2447 -2.0580 -2.2429
   49DOPE  H17S 6270   1.692   2.766  14.809  0.9924  0.9310 -2.3598
   49DOPE  C218 6271   1.698   2.823  15.025 -0.3659 -0.5918 -0.3617
   49DOPE  H18R 6272   1.588   2.826  15.043  0.0319 -0.0086  2.6289
   49DOPE  H18S 6273   1.746   2.900  15.089 -2.7868  1.0344 -0.3475
   49DOPE  H18T 6274   1.731   2.718  15.036  0.5931 -0.5777 -2.5786
   49DOPE   C33 6275   2.329   3.879  13.772 -0.0094  0.6733  0.4635
   49DOPE   H3X 6276   2.261   3.803  13.728  2.8957 -1.6436 -0.3131
   49DOPE   H3Y 6277   2.277   3.977  13.764  0.5029  0.9805  0.8174
   49DOPE   C34 6278   2.357   3.871  13.923 -0.4602 -0.5555  0.6146
   49DOPE   H4X 6279   2.379   3.972  13.962 -1.5128  0.4399 -1.2259
   49DOPE   H4Y 6280   2.261   3.843  13.970  0.1761 -1.5656  1.3657
   49DOPE   C35 6281   2.452   3.760  13.970  0.0867 -0.1602 -0.5883
   49DOPE   H5X 6282   2.556   3.793  13.947  0.1348 -0.0616 -0.2376
   49DOPE   H5Y 6283   2.417   3.674  13.910 -3.5229  0.4032  0.5051
   49DOPE   C36 6284   2.424   3.730  14.116 -0.0679  0.7725 -0.0908
   49DOPE   H6X 6285   2.473   3.632  14.136 -0.1320  0.3865 -1.6858
   49DOPE   H6Y 6286   2.318   3.710  14.143  0.7436 -3.2747  0.7678
   49DOPE   C37 6287   2.475   3.837  14.218 -0.2641  0.8053 -0.7780
   49DOPE   H7X 6288   2.582   3.843  14.189 -0.0392  0.3275 -0.0715
   49DOPE   H7Y 6289   2.412   3.929  14.209 -2.5516 -0.4182  1.3877
   49DOPE   C38 6290   2.463   3.797  14.371 -0.3295 -0.2665 -0.1140
   49DOPE   H8X 6291   2.490   3.689  14.366 -1.8101 -0.6053 -1.6959
   49DOPE   H8Y 6292   2.356   3.806  14.397 -0.5737 -0.8831 -0.8679
   49DOPE   C39 6293   2.549   3.875  14.466  0.3440  0.8225  0.8827
   49DOPE   H9X 6294   2.506   3.975  14.483  1.6815  2.2337 -3.0475
   49DOPE  C310 6295   2.679   3.847  14.503 -0.1661  0.7490 -0.3637
   49DOPE  H10X 6296   2.737   3.913  14.568 -0.8579  0.2692  0.7788
   49DOPE  C311 6297   2.759   3.727  14.461 -0.2981 -0.4599 -0.7807
   49DOPE  H11X 6298   2.770   3.655  14.545  0.5092 -0.3323 -0.7766
   49DOPE  H11Y 6299   2.711   3.675  14.376  0.5847 -1.1454 -0.8666
   49DOPE  C312 6300   2.899   3.768  14.406 -0.6262  0.7253  0.0161
   49DOPE  H12X 6301   2.896   3.827  14.312  0.2974  0.1958 -0.3663
   49DOPE  H12Y 6302   2.952   3.675  14.377 -1.3369  0.1745  0.4629
   49DOPE  C313 6303   2.987   3.837  14.510  0.0829 -0.1869  0.5797
   49DOPE  H13X 6304   3.082   3.861  14.458  0.6412  0.0052  1.6459
   49DOPE  H13Y 6305   2.936   3.930  14.543  0.3316 -0.1244  0.7907
   49DOPE  C314 6306   3.026   3.738  14.631  0.0536  0.1916 -0.3799
   49DOPE  H14X 6307   3.056   3.641  14.586  1.0325 -0.6788  1.9963
   49DOPE  H14Y 6308   2.933   3.714  14.687 -0.0182 -1.0150 -0.9958
   49DOPE  C315 6309   3.115   3.813  14.729 -0.4920  0.3427  0.7619
   49DOPE  H15X 6310   3.069   3.911  14.752 -1.1646  0.0143  0.8356
   49DOPE  H15Y 6311   3.219   3.830  14.693  0.8647 -2.8234  2.7492
   49DOPE  C316 6312   3.136   3.742  14.864 -0.1477  0.0299 -0.0649
   49DOPE  H16X 6313   3.040   3.711  14.909 -1.3318  0.6243 -2.0690
   49DOPE  H16Y 6314   3.185   3.813  14.933 -1.1814  0.9056 -0.2064
   49DOPE  C317 6315   3.235   3.625  14.850  0.2521  0.9447 -0.0963
   49DOPE  H17X 6316   3.224   3.570  14.946  1.2704  0.6673 -0.1256
   49DOPE  H17Y 6317   3.188   3.552  14.780  2.3834 -1.9957  1.3170
   49DOPE  C318 6318   3.383   3.650  14.841 -0.1829  0.7577  0.0201
   49DOPE  H18X 6319   3.419   3.716  14.760  1.3135 -1.0616 -0.8607
   49DOPE  H18Y 6320   3.428   3.694  14.933 -1.4687 -0.8162  1.4665
   49DOPE  H18Z 6321   3.423   3.549  14.821 -1.2906  0.5266 -1.1611
   50DOPE     N 6322   6.450   4.233  13.261  0.1961  0.2941 -0.3038
   50DOPE   HN1 6323   6.432   4.213  13.161  2.0534  0.1290 -0.6343
   50DOPE   HN2 6324   6.359   4.225  13.310 -1.1576  3.9810 -1.8572
   50DOPE   HN3 6325   6.464   4.336  13.263 -1.1491  0.4963  1.5017
   50DOPE   C12 6326   6.560   4.151  13.319  0.2470  0.4452 -0.2059
   50DOPE  H12A 6327   6.534   4.047  13.290 -0.5417  1.4091 -3.2610
   50DOPE  H12B 6328   6.549   4.153  13.430 -2.8947  0.9176 -0.4530
   50DOPE   C11 6329   6.679   4.210  13.258 -0.6283  0.7121 -1.0070
   50DOPE  H11A 6330   6.766   4.156  13.299 -0.7794  1.1434 -0.0911
   50DOPE  H11B 6331   6.693   4.314  13.294 -0.7217 -0.2901  2.2721
   50DOPE     P 6332   6.808   4.170  13.033 -0.3747 -0.0391  0.2105
   50DOPE   O13 6333   6.926   4.236  13.094  0.3485 -0.1835 -0.1192
   50DOPE   O14 6334   6.788   4.188  12.885 -0.5778 -0.1564 -0.5923
   50DOPE   O11 6335   6.834   4.021  13.062  0.4696  0.3235  0.0811
   50DOPE   O12 6336   6.674   4.206  13.115  0.0154  0.0798  0.0269
   50DOPE    C1 6337   6.738   3.917  13.076 -0.0737  0.3797 -0.5267
   50DOPE    HA 6338   6.701   3.885  12.976 -2.9797 -1.4458  0.9782
   50DOPE    HB 6339   6.647   3.948  13.133 -0.1608 -1.9098  0.6894
   50DOPE    C2 6340   6.823   3.805  13.144  0.8767  0.2344 -0.2432
   50DOPE    HS 6341   6.753   3.726  13.178 -0.2548  0.6823 -1.4529
   50DOPE   O21 6342   6.901   3.851  13.255 -0.4057 -0.6767  0.3681
   50DOPE   C21 6343   6.830   3.895  13.361 -0.5673  0.4560  0.3174
   50DOPE   O22 6344   6.713   3.871  13.377 -0.2520  0.2013  0.3104
   50DOPE   C22 6345   6.926   3.967  13.464  0.0969 -0.4358  0.0529
   50DOPE   H2R 6346   6.907   4.076  13.455 -0.3907 -0.3603  1.7065
   50DOPE   H2S 6347   7.030   3.945  13.434 -0.2282 -0.2903 -1.2638
   50DOPE    C3 6348   6.916   3.728  13.050 -1.1499  0.7274  0.4962
   50DOPE    HX 6349   6.984   3.800  12.998 -0.4754 -0.7785 -0.7906
   50DOPE    HY 6350   6.860   3.686  12.964 -1.9377 -0.6827  1.6578
   50DOPE   O31 6351   6.984   3.621  13.129 -0.1935 -0.2601 -0.3024
   50DOPE   C31 6352   7.094   3.660  13.188  0.5899 -1.1719  0.1710
   50DOPE   O32 6353   7.152   3.766  13.163 -0.4647 -0.3359 -0.4982
   50DOPE   C32 6354   7.137   3.572  13.298  0.2955  0.3113  0.1356
   50DOPE   H2X 6355   7.050   3.532  13.355  0.9671  1.8891  2.4029
   50DOPE   H2Y 6356   7.178   3.487  13.239 -1.5333  0.1597 -1.0109
   50DOPE   C23 6357   6.893   3.921  13.604  0.5789 -1.0619  0.0433
   50DOPE   H3R 6358   6.869   3.812  13.602  0.8578 -1.1106 -0.8885
   50DOPE   H3S 6359   6.803   3.977  13.637  0.3571 -0.1512 -1.9694
   50DOPE   C24 6360   7.012   3.953  13.697  0.3088  0.5679 -0.0183
   50DOPE   H4R 6361   7.051   4.054  13.672 -0.2260  0.3143 -2.1183
   50DOPE   H4S 6362   7.089   3.880  13.664 -1.1386 -1.3485  0.6407
   50DOPE   C25 6363   6.992   3.930  13.847  0.2025  0.1819 -0.4125
   50DOPE   H5R 6364   6.961   3.825  13.865  2.3512 -0.2837  1.0006
   50DOPE   H5S 6365   6.909   3.987  13.893  0.1767 -0.6487  0.6016
   50DOPE   C26 6366   7.122   3.965  13.929  0.0089 -0.1560 -0.8621
   50DOPE   H6R 6367   7.210   3.942  13.866  0.1827  2.3090 -1.6283
   50DOPE   H6S 6368   7.111   3.897  14.016  0.4834  0.2505 -0.4800
   50DOPE   C27 6369   7.130   4.109  13.989  1.1366 -0.1811 -0.1144
   50DOPE   H7R 6370   7.036   4.122  14.047  1.5865 -0.7086  0.7535
   50DOPE   H7S 6371   7.128   4.178  13.902 -1.2823 -0.5029 -0.3707
   50DOPE   C28 6372   7.250   4.143  14.082  0.3409  0.2439 -0.4614
   50DOPE   H8R 6373   7.255   4.250  14.112 -1.1106  0.1729  0.1025
   50DOPE   H8S 6374   7.335   4.119  14.014  0.4710 -0.3645 -0.0890
   50DOPE   C29 6375   7.248   4.055  14.208 -0.2647 -1.2781 -0.2043
   50DOPE   H9R 6376   7.328   3.981  14.203  0.9978 -0.0104  0.4041
   50DOPE  C210 6377   7.170   4.077  14.316 -0.3133 -0.1539 -0.4142
   50DOPE  H10R 6378   7.187   4.022  14.410  0.5465 -0.8132 -0.9475
   50DOPE  C211 6379   7.074   4.188  14.334  0.2798 -0.4485  0.2171
   50DOPE  H11R 6380   7.066   4.254  14.244 -1.8949  2.0606  2.0937
   50DOPE  H11S 6381   7.116   4.257  14.410  0.5256 -0.3705  0.0129
   50DOPE  C212 6382   6.929   4.160  14.384 -0.1850 -0.0692  0.5636
   50DOPE  H12R 6383   6.919   4.110  14.482 -1.4958  1.1370  1.0845
   50DOPE  H12S 6384   6.874   4.093  14.314 -2.1165 -1.6889  3.4285
   50DOPE  C213 6385   6.840   4.285  14.406 -0.6458  0.2868 -0.1063
   50DOPE  H13R 6386   6.823   4.329  14.305 -1.9251  3.0612  1.2304
   50DOPE  H13S 6387   6.896   4.358  14.467 -1.4107  0.2245  0.6856
   50DOPE  C214 6388   6.706   4.254  14.479 -0.1612  0.6189 -0.4038
   50DOPE  H14R 6389   6.636   4.340  14.474 -1.3754 -0.3190 -0.2462
   50DOPE  H14S 6390   6.723   4.218  14.582 -0.7043 -1.4853 -0.9818
   50DOPE  C215 6391   6.630   4.141  14.416 -0.0691 -0.0797  0.3243
   50DOPE  H15R 6392   6.698   4.053  14.415  0.4874  0.2994  1.7053
   50DOPE  H15S 6393   6.607   4.181  14.315 -2.6429  1.2117  1.3353
   50DOPE  C216 6394   6.500   4.100  14.483  0.4662 -0.0554 -0.4569
   50DOPE  H16R 6395   6.519   4.050  14.581 -2.5384 -0.4130  0.0474
   50DOPE  H16S 6396   6.453   4.029  14.412 -2.1604  0.5057  0.5928
   50DOPE  C217 6397   6.391   4.212  14.499  0.5426 -0.3604 -1.0706
   50DOPE  H17R 6398   6.381   4.269  14.404 -1.7721  0.7637 -0.2446
   50DOPE  H17S 6399   6.416   4.289  14.575 -1.5679  1.7358 -2.3363
   50DOPE  C218 6400   6.248   4.171  14.527  0.4089 -0.3426  0.1497
   50DOPE  H18R 6401   6.185   4.262  14.512 -0.0053 -0.8086 -1.0972
   50DOPE  H18S 6402   6.228   4.133  14.629 -1.0632  0.0858  0.0434
   50DOPE  H18T 6403   6.223   4.101  14.444  1.4893  0.5897 -1.0143
   50DOPE   C33 6404   7.227   3.641  13.402 -0.1938  0.6252 -0.5870
   50DOPE   H3X 6405   7.172   3.721  13.457  0.7454  0.9666 -0.1278
   50DOPE   H3Y 6406   7.300   3.699  13.341  0.5011 -0.2703 -0.6234
   50DOPE   C34 6407   7.295   3.538  13.484 -0.2538 -0.1703 -0.4513
   50DOPE   H4X 6408   7.336   3.459  13.418  0.5601 -0.8173  0.7877
   50DOPE   H4Y 6409   7.381   3.578  13.541 -0.4431 -0.0178 -0.2706
   50DOPE   C35 6410   7.206   3.491  13.600  0.0362  0.8734 -0.4752
   50DOPE   H5X 6411   7.116   3.440  13.559 -2.2139  3.0971  1.4322
   50DOPE   H5Y 6412   7.165   3.572  13.663 -1.2342  0.1221 -0.3107
   50DOPE   C36 6413   7.282   3.399  13.700  0.0056  0.4152 -0.1594
   50DOPE   H6X 6414   7.348   3.469  13.754 -2.4929  0.4628  3.1723
   50DOPE   H6Y 6415   7.338   3.317  13.650  0.4368  1.0276 -0.6825
   50DOPE   C37 6416   7.198   3.325  13.811 -0.0159 -0.8018  0.1166
   50DOPE   H7X 6417   7.143   3.398  13.875  0.0787 -1.5484  1.0580
   50DOPE   H7Y 6418   7.128   3.253  13.763  0.4931 -0.7437 -0.7375
   50DOPE   C38 6419   7.292   3.250  13.907  0.4459 -0.0984 -0.5901
   50DOPE   H8X 6420   7.352   3.330  13.956  0.4467 -0.3830 -0.1179
   50DOPE   H8Y 6421   7.355   3.193  13.836 -1.3550 -1.4030 -1.2024
   50DOPE   C39 6422   7.236   3.153  14.007  0.3420  0.0556 -0.2760
   50DOPE   H9X 6423   7.200   3.054  13.975 -1.1111  0.1090  1.0633
   50DOPE  C310 6424   7.205   3.184  14.134 -0.1119  0.2268  0.8111
   50DOPE  H10X 6425   7.137   3.117  14.189 -1.6279 -0.6025 -1.8951
   50DOPE  C311 6426   7.223   3.313  14.204  0.5195  0.1328 -0.5069
   50DOPE  H11X 6427   7.215   3.405  14.142 -0.6541  0.3191 -0.1131
   50DOPE  H11Y 6428   7.135   3.334  14.269  0.5321  1.4377 -0.8845
   50DOPE  C312 6429   7.343   3.313  14.293  0.3689  0.6767  0.5479
   50DOPE  H12X 6430   7.430   3.298  14.225 -1.1359  0.3254 -1.3721
   50DOPE  H12Y 6431   7.348   3.228  14.364  3.6353  0.2500 -0.0171
   50DOPE  C313 6432   7.364   3.443  14.375  0.1456  0.5135  0.4746
   50DOPE  H13X 6433   7.286   3.445  14.454 -0.9259  0.5648 -0.5498
   50DOPE  H13Y 6434   7.464   3.433  14.422 -0.3150 -1.0309  1.2014
   50DOPE  C314 6435   7.372   3.568  14.288  0.3812 -0.3673  0.0992
   50DOPE  H14X 6436   7.268   3.599  14.266  0.5930 -0.2382 -0.7429
   50DOPE  H14Y 6437   7.416   3.551  14.188  1.2492  1.7747  0.0505
   50DOPE  C315 6438   7.441   3.698  14.334  0.0926 -0.0912  0.1657
   50DOPE  H15X 6439   7.441   3.708  14.445 -0.5605  0.6701  0.1083
   50DOPE  H15Y 6440   7.384   3.784  14.292 -0.3213 -1.6115 -2.6145
   50DOPE  C316 6441   7.588   3.703  14.295  0.9238  1.1610 -0.6783
   50DOPE  H16X 6442   7.608   3.702  14.186 -0.6013 -1.2351 -1.0243
   50DOPE  H16Y 6443   7.632   3.611  14.338  0.5506  0.9707 -0.6929
   50DOPE  C317 6444   7.647   3.835  14.352 -1.1848  0.0196 -0.3659
   50DOPE  H17X 6445   7.625   3.911  14.273  0.9108 -1.4393 -2.4917
   50DOPE  H17Y 6446   7.616   3.865  14.454  2.1012  1.3330  0.3767
   50DOPE  C318 6447   7.805   3.843  14.354 -0.3414  0.4601  0.2086
   50DOPE  H18X 6448   7.833   3.788  14.446 -0.1178 -0.8706 -0.6333
   50DOPE  H18Y 6449   7.851   3.794  14.266  0.7950  0.3202  0.8556
   50DOPE  H18Z 6450   7.838   3.950  14.353 -0.8211  0.6187  0.9071
   51DOPE     N 6451   3.409   5.977  12.886  0.2609  0.3947  0.0526
   51DOPE   HN1 6452   3.487   5.918  12.921  0.4095  1.8684  2.4640
   51DOPE   HN2 6453   3.328   5.912  12.879 -0.2866  1.0172  0.4968
   51DOPE   HN3 6454   3.431   6.010  12.790 -1.9678  2.4469  0.1563
   51DOPE   C12 6455   3.369   6.079  12.988  0.4594 -0.3308 -0.5177
   51DOPE  H12A 6456   3.455   6.144  13.012 -0.1176 -0.1571  1.1868
   51DOPE  H12B 6457   3.339   6.026  13.081 -0.9567  1.9203  0.3735
   51DOPE   C11 6458   3.265   6.173  12.928  0.1630 -0.2265  0.5904
   51DOPE  H11A 6459   3.222   6.244  13.003 -3.8580 -2.9456  1.1538
   51DOPE  H11B 6460   3.169   6.125  12.899 -0.8161  2.7730 -1.6183
   51DOPE     P 6461   3.378   6.373  12.790  0.1664  0.3954 -0.4131
   51DOPE   O13 6462   3.272   6.472  12.806 -0.0225  0.2269 -0.3723
   51DOPE   O14 6463   3.462   6.381  12.672 -0.0368  0.2376 -0.0780
   51DOPE   O11 6464   3.469   6.381  12.919  1.0795  0.4216 -0.2050
   51DOPE   O12 6465   3.301   6.232  12.797 -0.3233  0.3588 -0.2399
   51DOPE    C1 6466   3.570   6.483  12.928  0.1003  0.2782  0.4668
   51DOPE    HA 6467   3.540   6.578  12.879  1.1580 -0.5180 -1.8787
   51DOPE    HB 6468   3.663   6.449  12.878  0.3438 -0.4954  1.4055
   51DOPE    C2 6469   3.594   6.514  13.082  0.3219  0.8334 -0.2046
   51DOPE    HS 6470   3.614   6.412  13.122  1.9719  0.9946 -0.5438
   51DOPE   O21 6471   3.479   6.583  13.132  0.6011  0.2885  0.3866
   51DOPE   C21 6472   3.378   6.504  13.172 -0.1444 -1.2844 -0.2150
   51DOPE   O22 6473   3.375   6.385  13.183 -0.0701  0.0259 -0.3902
   51DOPE   C22 6474   3.263   6.603  13.207  0.3161  0.4184 -0.3880
   51DOPE   H2R 6475   3.168   6.549  13.229  0.4421  0.4615  0.2828
   51DOPE   H2S 6476   3.252   6.668  13.118 -1.5698 -1.1425 -1.3932
   51DOPE    C3 6477   3.716   6.612  13.109 -0.6454  0.5240 -0.6360
   51DOPE    HX 6478   3.675   6.709  13.073 -0.1161  1.2583  0.6593
   51DOPE    HY 6479   3.800   6.588  13.042 -0.2835 -0.1591  0.0572
   51DOPE   O31 6480   3.758   6.605  13.249  0.1559  0.2131 -0.2658
   51DOPE   C31 6481   3.747   6.709  13.323  0.2864 -0.2320  0.2015
   51DOPE   O32 6482   3.726   6.823  13.284  0.5208 -0.1016  0.3004
   51DOPE   C32 6483   3.765   6.664  13.469  0.2315  0.1411  1.1702
   51DOPE   H2X 6484   3.682   6.594  13.489 -0.5220  0.7562  0.3037
   51DOPE   H2Y 6485   3.855   6.599  13.473  1.0412  1.2763  4.1633
   51DOPE   C23 6486   3.304   6.690  13.331 -0.4810  0.2843 -0.1811
   51DOPE   H3R 6487   3.244   6.784  13.324  1.2330  1.6511  2.1659
   51DOPE   H3S 6488   3.410   6.723  13.323 -0.9178  1.3132 -3.6972
   51DOPE   C24 6489   3.286   6.624  13.466  0.2413 -0.3845 -0.1613
   51DOPE   H4R 6490   3.179   6.596  13.467 -0.3785  1.6921 -1.3935
   51DOPE   H4S 6491   3.309   6.707  13.537  1.8555 -0.4752 -0.5238
   51DOPE   C25 6492   3.373   6.504  13.506 -0.0981  0.3103 -0.3741
   51DOPE   H5R 6493   3.480   6.530  13.495  1.2265 -3.5041  1.7291
   51DOPE   H5S 6494   3.350   6.418  13.438 -1.4430 -0.4093  0.9310
   51DOPE   C26 6495   3.356   6.465  13.659  0.4450 -0.5545  0.7908
   51DOPE   H6R 6496   3.259   6.415  13.673 -0.7231  1.8179  1.8136
   51DOPE   H6S 6497   3.327   6.560  13.710  0.2502  0.1855 -0.6502
   51DOPE   C27 6498   3.474   6.392  13.722  0.3077 -0.1185 -0.0598
   51DOPE   H7R 6499   3.568   6.448  13.704  0.0174  0.1615 -0.7275
   51DOPE   H7S 6500   3.469   6.295  13.669 -2.8138 -0.5453  0.8368
   51DOPE   C28 6501   3.463   6.371  13.879 -0.1893  0.2560  0.1633
   51DOPE   H8R 6502   3.555   6.322  13.916  0.8864  0.0781 -2.5176
   51DOPE   H8S 6503   3.381   6.297  13.897  0.1436 -0.8310 -2.3555
   51DOPE   C29 6504   3.425   6.496  13.961 -0.1990 -0.0980 -0.2881
   51DOPE   H9R 6505   3.428   6.586  13.898 -0.5813 -1.5173 -2.4529
   51DOPE  C210 6506   3.428   6.505  14.093  0.3432 -0.6419  0.1605
   51DOPE  H10R 6507   3.424   6.609  14.126 -1.3721 -0.6151 -0.0363
   51DOPE  C211 6508   3.446   6.403  14.199 -0.4630  0.2913  0.4555
   51DOPE  H11R 6509   3.511   6.324  14.155  0.8470  0.9860  1.1043
   51DOPE  H11S 6510   3.355   6.345  14.228 -1.7869  1.0303 -1.9202
   51DOPE  C212 6511   3.515   6.463  14.325 -0.3695  0.8640  0.3304
   51DOPE  H12R 6512   3.619   6.485  14.293 -1.0084  0.2907 -2.4229
   51DOPE  H12S 6513   3.531   6.381  14.398  2.2938 -0.1684 -1.2979
   51DOPE  C213 6514   3.452   6.583  14.399  0.0174  0.2592 -0.0872
   51DOPE  H13R 6515   3.461   6.674  14.337 -0.0371  0.3949  0.1015
   51DOPE  H13S 6516   3.505   6.609  14.493 -0.9112  0.2538  0.4577
   51DOPE  C214 6517   3.300   6.555  14.424 -0.2691 -0.0989 -0.3512
   51DOPE  H14R 6518   3.279   6.472  14.495 -1.8747 -0.9812 -1.7952
   51DOPE  H14S 6519   3.253   6.508  14.335  0.0504  0.7239 -0.9663
   51DOPE  C215 6520   3.227   6.683  14.452  0.2372 -0.1509  0.5411
   51DOPE  H15R 6521   3.191   6.719  14.353 -0.0883 -1.0144  0.3335
   51DOPE  H15S 6522   3.296   6.762  14.488  0.7438 -0.3765  0.0845
   51DOPE  C216 6523   3.102   6.657  14.540 -0.3206  0.4655  0.1440
   51DOPE  H16R 6524   3.133   6.588  14.621  0.5533  2.4820  1.6186
   51DOPE  H16S 6525   3.023   6.614  14.475  0.6615  0.0089 -0.7818
   51DOPE  C217 6526   3.044   6.788  14.593  0.5142  0.3422 -0.0189
   51DOPE  H17R 6527   3.004   6.849  14.510  0.6795 -0.1561 -0.4709
   51DOPE  H17S 6528   3.124   6.851  14.638  1.2687  1.2235 -2.4886
   51DOPE  C218 6529   2.934   6.761  14.694  0.2405  0.3048  0.3072
   51DOPE  H18R 6530   2.990   6.726  14.783  2.8512  2.1803 -0.4652
   51DOPE  H18S 6531   2.855   6.689  14.660 -0.5541 -0.5232  3.5617
   51DOPE  H18T 6532   2.894   6.862  14.716  1.6212  1.6428 -2.7247
   51DOPE   C33 6533   3.768   6.776  13.576 -0.2355  0.2375  0.2475
   51DOPE   H3X 6534   3.673   6.833  13.568 -0.6642 -0.4617  0.3617
   51DOPE   H3Y 6535   3.855   6.840  13.550  0.2977 -0.2095  0.9083
   51DOPE   C34 6536   3.786   6.724  13.722  0.1429  0.3750 -0.0601
   51DOPE   H4X 6537   3.698   6.657  13.730 -0.2933  0.9344 -0.0574
   51DOPE   H4Y 6538   3.877   6.661  13.732  0.8558  1.2162 -1.0583
   51DOPE   C35 6539   3.783   6.831  13.840  0.2879  0.3353  0.0765
   51DOPE   H5X 6540   3.694   6.893  13.814  0.6241  0.9543  0.3644
   51DOPE   H5Y 6541   3.876   6.891  13.835  0.0457  1.0104  2.4837
   51DOPE   C36 6542   3.760   6.774  13.977 -0.3475  0.8236  0.3238
   51DOPE   H6X 6543   3.836   6.698  14.005 -1.3772  0.3280  1.8258
   51DOPE   H6Y 6544   3.660   6.728  13.983 -0.1989  0.3740 -0.4529
   51DOPE   C37 6545   3.780   6.891  14.083 -0.2238  0.0681  0.4194
   51DOPE   H7X 6546   3.882   6.933  14.092 -0.1627 -0.0329  0.2019
   51DOPE   H7Y 6547   3.717   6.975  14.049  2.1982  2.4029  1.3628
   51DOPE   C38 6548   3.729   6.856  14.222  0.9373 -0.4766  1.4976
   51DOPE   H8X 6549   3.777   6.760  14.251  0.2175 -1.3588 -0.1238
   51DOPE   H8Y 6550   3.621   6.836  14.214  0.8738  0.4459 -0.3090
   51DOPE   C39 6551   3.745   6.964  14.323  1.0337 -0.0809  0.1333
   51DOPE   H9X 6552   3.703   7.056  14.280  1.6028 -0.1667 -0.6082
   51DOPE  C310 6553   3.791   6.963  14.450 -0.0006  0.5719  0.5283
   51DOPE  H10X 6554   3.792   7.055  14.511  0.6911  0.7943  0.1889
   51DOPE  C311 6555   3.845   6.839  14.522  0.0565  0.3562  0.4934
   51DOPE  H11X 6556   3.845   6.740  14.472  1.0827 -1.1332  3.2663
   51DOPE  H11Y 6557   3.954   6.858  14.522 -0.0555  1.1095 -0.7065
   51DOPE  C312 6558   3.793   6.843  14.664  0.0305  0.3098 -0.1419
   51DOPE  H12X 6559   3.685   6.864  14.659 -0.2142 -1.1528 -2.6268
   51DOPE  H12Y 6560   3.839   6.925  14.723  0.0678 -0.2087  0.5722
   51DOPE  C313 6561   3.814   6.709  14.732 -0.0895  0.0717  0.7528
   51DOPE  H13X 6562   3.756   6.643  14.664 -0.8582  0.7088  0.7790
   51DOPE  H13Y 6563   3.921   6.683  14.719  0.6949  2.5332  1.8124
   51DOPE  C314 6564   3.767   6.690  14.876 -0.6629  0.0309  0.3304
   51DOPE  H14X 6565   3.822   6.763  14.938  0.2134 -0.8548  0.6192
   51DOPE  H14Y 6566   3.778   6.585  14.910 -0.0215  0.4690  1.5046
   51DOPE  C315 6567   3.629   6.724  14.914  0.4392  0.4027 -0.3815
   51DOPE  H15X 6568   3.609   6.822  14.866  1.1163 -0.7239 -3.1675
   51DOPE  H15Y 6569   3.613   6.728  15.024 -1.0185  1.2394 -0.6043
   51DOPE  C316 6570   3.532   6.628  14.852  0.2949 -0.3484  0.7091
   51DOPE  H16X 6571   3.573   6.527  14.876 -0.2789 -1.6097 -2.8814
   51DOPE  H16Y 6572   3.537   6.625  14.741  2.1030 -2.6718  0.7766
   51DOPE  C317 6573   3.381   6.633  14.891 -0.8285 -0.2049  0.0682
   51DOPE  H17X 6574   3.329   6.582  14.807  1.1741 -0.3194 -1.1601
   51DOPE  H17Y 6575   3.370   6.577  14.987 -2.5597 -0.6169 -0.3360
   51DOPE  C318 6576   3.321   6.771  14.904  0.4710  0.1650  0.0100
   51DOPE  H18X 6577   3.352   6.811  15.004  1.3730 -0.3009 -0.0761
   51DOPE  H18Y 6578   3.335   6.846  14.823  1.8222  0.8623  0.8442
   51DOPE  H18Z 6579   3.211   6.766  14.917  0.4313 -0.0612 -0.4098
   52DOPE     N 6580   5.529   2.510  12.771  0.6928 -0.0444  0.5105
   52DOPE   HN1 6581   5.443   2.563  12.746 -0.5530 -1.4933  1.5135
   52DOPE   HN2 6582   5.604   2.533  12.703 -0.6211  0.0337 -0.9600
   52DOPE   HN3 6583   5.503   2.410  12.776 -1.1503  0.2905 -1.2521
   52DOPE   C12 6584   5.571   2.545  12.913  0.5008  0.8399  0.4898
   52DOPE  H12A 6585   5.658   2.480  12.935  1.0638  1.1458 -0.7133
   52DOPE  H12B 6586   5.484   2.519  12.977 -0.4450  0.4882 -0.8917
   52DOPE   C11 6587   5.615   2.686  12.923  0.3429 -0.1466 -0.1957
   52DOPE  H11A 6588   5.665   2.708  13.020  0.4010 -1.0097 -0.0197
   52DOPE  H11B 6589   5.526   2.751  12.917  1.8256  2.2214  1.5506
   52DOPE     P 6590   5.744   2.883  12.798 -0.2399  0.5246  0.5406
   52DOPE   O13 6591   5.674   2.917  12.673  0.0865  0.5732 -0.4686
   52DOPE   O14 6592   5.895   2.898  12.793  0.0126  0.0097 -0.2088
   52DOPE   O11 6593   5.688   2.967  12.921 -0.1529 -0.0570 -0.8225
   52DOPE   O12 6594   5.707   2.725  12.821 -0.5388 -0.5782  0.1491
   52DOPE    C1 6595   5.674   3.112  12.893 -0.4064 -0.2865 -0.5280
   52DOPE    HA 6596   5.595   3.149  12.962  1.4635  0.4154  1.3584
   52DOPE    HB 6597   5.642   3.129  12.789 -1.4530 -0.1280 -0.1887
   52DOPE    C2 6598   5.801   3.191  12.915  0.2891  0.0506  0.1711
   52DOPE    HS 6599   5.867   3.155  12.833 -0.2395 -1.4751  0.3982
   52DOPE   O21 6600   5.855   3.152  13.040  0.4571 -0.7223  0.1369
   52DOPE   C21 6601   5.987   3.170  13.057 -0.1642  0.2489 -0.2962
   52DOPE   O22 6602   6.058   3.222  12.972  0.3903  0.1103  0.1081
   52DOPE   C22 6603   6.036   3.108  13.188 -0.1755  0.1520  1.0083
   52DOPE   H2R 6604   6.099   3.019  13.166  1.0993  1.7215 -2.3712
   52DOPE   H2S 6605   5.953   3.068  13.250  0.4361 -3.4099 -0.2105
   52DOPE    C3 6606   5.782   3.342  12.893  0.5334  0.6183 -0.3003
   52DOPE    HX 6607   5.721   3.338  12.801  0.3360  1.8318 -0.2350
   52DOPE    HY 6608   5.878   3.398  12.890  1.2052 -0.4424  0.4092
   52DOPE   O31 6609   5.700   3.395  13.002 -0.6255 -0.2322 -0.2892
   52DOPE   C31 6610   5.664   3.518  12.979  0.0900 -0.0940 -0.7473
   52DOPE   O32 6611   5.688   3.584  12.881 -0.1180 -0.5292 -0.1818
   52DOPE   C32 6612   5.563   3.561  13.082  0.6163  0.1763  0.5317
   52DOPE   H2X 6613   5.551   3.671  13.077 -0.1798  0.0534 -0.6157
   52DOPE   H2Y 6614   5.464   3.515  13.060  2.1003 -2.5658 -0.9885
   52DOPE   C23 6615   6.125   3.199  13.266  0.7248  0.3164  0.2173
   52DOPE   H3R 6616   6.213   3.243  13.215  0.9560  0.4893  0.7539
   52DOPE   H3S 6617   6.166   3.134  13.346  0.5903 -0.5575 -0.4039
   52DOPE   C24 6618   6.046   3.309  13.325  0.0384 -0.4014 -0.1990
   52DOPE   H4R 6619   5.968   3.271  13.395  0.1845  0.9501  0.7310
   52DOPE   H4S 6620   5.980   3.351  13.246  1.0049  0.0150 -0.8063
   52DOPE   C25 6621   6.117   3.425  13.390 -0.2173 -0.2366 -0.0290
   52DOPE   H5R 6622   6.052   3.510  13.421  0.0589  0.2008 -0.6246
   52DOPE   H5S 6623   6.199   3.464  13.326  0.3361  2.0913  1.9192
   52DOPE   C26 6624   6.192   3.373  13.516  0.7069 -0.4593 -0.0281
   52DOPE   H6R 6625   6.259   3.288  13.493 -1.1603 -1.5081 -1.9838
   52DOPE   H6S 6626   6.109   3.334  13.580 -0.4810  1.7841 -0.0864
   52DOPE   C27 6627   6.269   3.485  13.591  0.6399 -0.1618  0.4069
   52DOPE   H7R 6628   6.191   3.550  13.637  3.1516  0.9419  3.4900
   52DOPE   H7S 6629   6.335   3.540  13.521 -1.2305  0.0068 -1.3036
   52DOPE   C28 6630   6.355   3.419  13.703 -0.3834  0.0038  0.3791
   52DOPE   H8R 6631   6.437   3.485  13.738 -0.7358  0.8670 -0.3907
   52DOPE   H8S 6632   6.412   3.340  13.649  1.6583  1.3812  0.4110
   52DOPE   C29 6633   6.279   3.363  13.819 -0.3501  0.5862 -0.3421
   52DOPE   H9R 6634   6.204   3.285  13.796 -0.8248  0.7102  0.7270
   52DOPE  C210 6635   6.293   3.384  13.951 -0.1238 -0.0667  0.1364
   52DOPE  H10R 6636   6.233   3.323  14.020 -0.2557  0.4526  0.4863
   52DOPE  C211 6637   6.384   3.484  14.024 -0.0038 -0.0471 -0.7685
   52DOPE  H11R 6638   6.427   3.565  13.961  2.1730 -0.9030 -0.4776
   52DOPE  H11S 6639   6.472   3.431  14.067 -1.4074 -0.5694  1.6566
   52DOPE  C212 6640   6.317   3.563  14.132 -0.1010  0.1748 -0.0861
   52DOPE  H12R 6641   6.220   3.592  14.086 -0.1173 -1.4292 -1.1335
   52DOPE  H12S 6642   6.366   3.655  14.170  0.2732  0.2311 -0.6939
   52DOPE  C213 6643   6.294   3.480  14.260 -0.5541 -0.5685  0.7500
   52DOPE  H13R 6644   6.386   3.419  14.268 -1.0150 -1.3129  0.4756
   52DOPE  H13S 6645   6.211   3.406  14.256 -1.0338 -0.0130  0.1892
   52DOPE  C214 6646   6.280   3.570  14.387 -0.7190 -0.2739  0.0319
   52DOPE  H14R 6647   6.367   3.636  14.410  0.4234 -1.9296  0.6493
   52DOPE  H14S 6648   6.273   3.499  14.472 -0.6365  0.7960  0.9554
   52DOPE  C215 6649   6.145   3.643  14.393 -0.5416  0.0252 -0.4303
   52DOPE  H15R 6650   6.067   3.565  14.405  1.0486 -1.7406 -1.0233
   52DOPE  H15S 6651   6.123   3.700  14.300  1.7772  0.3155 -0.8500
   52DOPE  C216 6652   6.140   3.747  14.502 -0.5880  0.5864 -0.0185
   52DOPE  H16R 6653   6.219   3.824  14.491  1.7351 -1.6220  0.2717
   52DOPE  H16S 6654   6.172   3.710  14.602 -3.3871 -1.4066  0.2514
   52DOPE  C217 6655   6.010   3.821  14.526 -0.1486  0.5860  0.4746
   52DOPE  H17R 6656   5.947   3.843  14.437 -0.1484 -1.0187  0.0481
   52DOPE  H17S 6657   6.046   3.915  14.574  4.3694 -1.1312  0.9475
   52DOPE  C218 6658   5.926   3.755  14.628 -0.0996  0.8107  0.2580
   52DOPE  H18R 6659   5.895   3.657  14.586 -1.7055  1.4194 -0.0641
   52DOPE  H18S 6660   5.993   3.739  14.715  4.8844 -0.8198 -3.4234
   52DOPE  H18T 6661   5.837   3.815  14.660  0.8954  2.2111  0.4831
   52DOPE   C33 6662   5.603   3.522  13.225 -0.2759 -0.2965  0.1783
   52DOPE   H3X 6663   5.597   3.412  13.238 -2.2993  0.1305  4.1973
   52DOPE   H3Y 6664   5.532   3.573  13.292  0.1948  2.0254 -0.9867
   52DOPE   C34 6665   5.731   3.583  13.280 -0.3458 -0.2524 -0.3458
   52DOPE   H4X 6666   5.822   3.542  13.231  0.5769  2.7720 -1.3911
   52DOPE   H4Y 6667   5.738   3.691  13.257  1.6910 -0.0218  1.0384
   52DOPE   C35 6668   5.757   3.577  13.430 -0.7919  0.0916  0.1287
   52DOPE   H5X 6669   5.691   3.648  13.485 -0.7230  0.3171 -0.0791
   52DOPE   H5Y 6670   5.862   3.606  13.446 -0.8178  0.1296  0.2263
   52DOPE   C36 6671   5.717   3.437  13.488 -0.2079 -0.5802 -0.1792
   52DOPE   H6X 6672   5.764   3.360  13.424 -0.2497 -0.7719  0.0229
   52DOPE   H6Y 6673   5.613   3.412  13.459 -0.1953  1.7830 -2.7408
   52DOPE   C37 6674   5.752   3.423  13.637 -0.0859 -0.3122 -0.5618
   52DOPE   H7X 6675   5.836   3.492  13.662 -0.8027  1.0386 -1.7335
   52DOPE   H7Y 6676   5.666   3.457  13.699 -1.1851 -1.0892 -1.6203
   52DOPE   C38 6677   5.790   3.281  13.686  0.0072 -0.6119  0.0341
   52DOPE   H8X 6678   5.802   3.279  13.797 -0.4746  0.9797  0.1437
   52DOPE   H8Y 6679   5.889   3.249  13.648 -0.1286 -1.0316  0.0255
   52DOPE   C39 6680   5.683   3.187  13.648 -0.0834 -0.2884 -0.3989
   52DOPE   H9X 6681   5.686   3.166  13.540 -0.8625 -0.0904 -0.4646
   52DOPE  C310 6682   5.593   3.119  13.723 -0.5875  0.4094 -0.3769
   52DOPE  H10X 6683   5.538   3.042  13.666 -0.1110  0.4185 -0.8616
   52DOPE  C311 6684   5.587   3.117  13.876 -0.1637  0.0315 -0.0439
   52DOPE  H11X 6685   5.664   3.188  13.916 -0.6409  0.2172  0.5577
   52DOPE  H11Y 6686   5.487   3.152  13.907 -0.4590 -1.1900  0.3940
   52DOPE  C312 6687   5.607   2.977  13.935 -0.3258  0.3402 -0.2514
   52DOPE  H12X 6688   5.683   2.927  13.871 -0.5570  0.5526 -0.6974
   52DOPE  H12Y 6689   5.517   2.921  13.901  0.1422 -0.7749  0.3029
   52DOPE  C313 6690   5.622   2.958  14.077 -0.0092 -0.2284  0.0622
   52DOPE  H13X 6691   5.582   2.856  14.096  0.4295  0.0532  2.8955
   52DOPE  H13Y 6692   5.729   2.968  14.104 -0.0709  2.0787 -0.3643
   52DOPE  C314 6693   5.554   3.064  14.166 -0.7528  0.0891 -0.6419
   52DOPE  H14X 6694   5.457   3.104  14.128 -0.6652 -0.1712 -1.1560
   52DOPE  H14Y 6695   5.629   3.143  14.183  0.3227 -1.2392  1.1547
   52DOPE  C315 6696   5.522   3.017  14.317  0.0596  0.7641 -0.4358
   52DOPE  H15X 6697   5.509   3.119  14.360  2.5805  2.0889 -2.5357
   52DOPE  H15Y 6698   5.614   2.972  14.359  0.2378  1.4299 -0.0991
   52DOPE  C316 6699   5.392   2.934  14.334  0.2761 -0.1168  1.3337
   52DOPE  H16X 6700   5.419   2.826  14.328  0.9402 -0.0083  2.2324
   52DOPE  H16Y 6701   5.332   2.942  14.241  2.4188  2.2976  0.0506
   52DOPE  C317 6702   5.305   2.961  14.458  0.0704 -0.0593  0.3661
   52DOPE  H17X 6703   5.269   3.065  14.444  2.9614  1.1533  1.0049
   52DOPE  H17Y 6704   5.222   2.888  14.448 -0.2583  0.4350 -0.6757
   52DOPE  C318 6705   5.369   2.945  14.596  0.1790 -0.0023 -0.7498
   52DOPE  H18X 6706   5.412   2.843  14.607  2.7612  1.1902  1.4930
   52DOPE  H18Y 6707   5.443   3.025  14.614  1.2266 -1.5788  3.0431
   52DOPE  H18Z 6708   5.287   2.950  14.671 -0.3057  0.4645 -1.3014
   53DOPE     N 6709   4.655   5.639  12.985  0.5276  0.1189 -0.7517
   53DOPE   HN1 6710   4.637   5.678  13.080 -0.9072 -0.4518 -0.7708
   53DOPE   HN2 6711   4.576   5.581  12.953  0.0397  1.7542 -2.7668
   53DOPE   HN3 6712   4.747   5.591  12.984  1.3641  1.6324 -0.2363
   53DOPE   C12 6713   4.683   5.750  12.886 -0.2835  0.4424  0.1667
   53DOPE  H12A 6714   4.782   5.793  12.913  0.5444  0.6575 -2.9160
   53DOPE  H12B 6715   4.596   5.819  12.881 -0.9604 -0.3500  0.7003
   53DOPE   C11 6716   4.697   5.689  12.744  0.0453  0.2667  0.6448
   53DOPE  H11A 6717   4.760   5.597  12.742 -0.3475  0.0083 -0.0291
   53DOPE  H11B 6718   4.761   5.759  12.686  1.5585  1.2086  3.2828
   53DOPE     P 6719   4.506   5.539  12.659 -0.1930  0.2822  0.1564
   53DOPE   O13 6720   4.599   5.469  12.568 -0.4005  0.2624 -0.0147
   53DOPE   O14 6721   4.366   5.540  12.626  0.1833 -0.0919 -1.0737
   53DOPE   O11 6722   4.512   5.483  12.800 -0.1823 -0.3670 -1.0040
   53DOPE   O12 6723   4.561   5.683  12.688 -0.6620  0.3326 -0.0886
   53DOPE    C1 6724   4.411   5.390  12.839  0.0863  0.3184  0.5140
   53DOPE    HA 6725   4.422   5.301  12.774 -0.8632  0.0519  0.7041
   53DOPE    HB 6726   4.307   5.429  12.829 -0.3882 -1.1406 -0.5041
   53DOPE    C2 6727   4.439   5.352  12.994 -0.4161 -0.2924  0.4024
   53DOPE    HS 6728   4.363   5.280  13.031 -0.2009 -1.3331 -1.0968
   53DOPE   O21 6729   4.432   5.474  13.079 -0.0631 -0.6431 -0.0210
   53DOPE   C21 6730   4.308   5.523  13.099  0.4676  0.0338  1.0241
   53DOPE   O22 6731   4.204   5.478  13.055  0.1228  0.1494  0.0980
   53DOPE   C22 6732   4.317   5.643  13.198  0.7632  0.1103 -0.1044
   53DOPE   H2R 6733   4.224   5.701  13.178 -0.0088 -1.5644 -1.7069
   53DOPE   H2S 6734   4.406   5.706  13.176  0.1964  2.2092  3.0864
   53DOPE    C3 6735   4.585   5.292  12.999  0.2423 -0.1394  0.6242
   53DOPE    HX 6736   4.652   5.352  12.935 -1.5828  1.1602 -0.1654
   53DOPE    HY 6737   4.581   5.189  12.956 -3.2149  0.5486 -1.0422
   53DOPE   O31 6738   4.634   5.281  13.129  0.0242 -0.6069  0.1652
   53DOPE   C31 6739   4.570   5.187  13.203 -0.4886  0.3422  0.3660
   53DOPE   O32 6740   4.497   5.101  13.161  0.5546 -0.3204 -0.3394
   53DOPE   C32 6741   4.614   5.203  13.345  0.6676 -0.4816  0.6345
   53DOPE   H2X 6742   4.715   5.249  13.341 -0.6376  2.5906  0.3131
   53DOPE   H2Y 6743   4.544   5.275  13.393  1.5797  1.2961 -0.5850
   53DOPE   C23 6744   4.317   5.606  13.348 -0.0653 -0.2324  0.1374
   53DOPE   H3R 6745   4.276   5.504  13.359  0.9904 -0.9029 -1.6275
   53DOPE   H3S 6746   4.262   5.685  13.404 -1.0446  0.2031 -1.3573
   53DOPE   C24 6747   4.463   5.610  13.400  0.6087  0.1061 -0.3947
   53DOPE   H4R 6748   4.504   5.707  13.362  0.0763  0.9457  1.0887
   53DOPE   H4S 6749   4.531   5.526  13.373  1.2848 -0.2699  2.2273
   53DOPE   C25 6750   4.466   5.637  13.554  0.6960  0.4834  0.6746
   53DOPE   H5R 6751   4.376   5.588  13.596 -0.4204  0.4911 -1.5599
   53DOPE   H5S 6752   4.455   5.744  13.580  0.1760  0.4791  0.4670
   53DOPE   C26 6753   4.593   5.581  13.618  0.0636  0.1156 -1.1667
   53DOPE   H6R 6754   4.681   5.618  13.561  0.2534  2.4876  0.5196
   53DOPE   H6S 6755   4.595   5.470  13.623 -0.6313  0.1393  2.0119
   53DOPE   C27 6756   4.613   5.637  13.763  0.9156 -0.3284 -0.5895
   53DOPE   H7R 6757   4.592   5.745  13.772 -0.4345 -0.7227  1.5823
   53DOPE   H7S 6758   4.719   5.615  13.788  0.4468 -1.5511  0.4295
   53DOPE   C28 6759   4.521   5.575  13.869  0.1372  0.9277 -0.2349
   53DOPE   H8R 6760   4.521   5.464  13.858 -1.3053  1.0181 -1.4944
   53DOPE   H8S 6761   4.421   5.593  13.825  0.0549 -0.6461 -0.7557
   53DOPE   C29 6762   4.552   5.625  14.004 -0.2175 -0.2914  0.6919
   53DOPE   H9R 6763   4.661   5.641  14.010 -0.0583 -0.4592 -1.1877
   53DOPE  C210 6764   4.472   5.661  14.102 -0.2109 -0.2959  0.2249
   53DOPE  H10R 6765   4.514   5.714  14.189  0.5488  2.1309 -1.5255
   53DOPE  C211 6766   4.324   5.656  14.112  0.3163  0.3804  0.4032
   53DOPE  H11R 6767   4.285   5.552  14.101 -0.1609  0.7001 -1.1803
   53DOPE  H11S 6768   4.271   5.715  14.035  0.7119  0.5884  0.2884
   53DOPE  C212 6769   4.282   5.721  14.246 -0.3582  0.6626  0.0146
   53DOPE  H12R 6770   4.179   5.754  14.220 -0.2542  0.8414 -0.1803
   53DOPE  H12S 6771   4.343   5.810  14.272  0.6536 -0.2274  0.7601
   53DOPE  C213 6772   4.279   5.612  14.355  0.2899  0.0539  0.2990
   53DOPE  H13R 6773   4.370   5.548  14.351  1.3745  1.5626 -0.3296
   53DOPE  H13S 6774   4.189   5.547  14.351  0.7660 -0.7054  1.2404
   53DOPE  C214 6775   4.285   5.679  14.489  0.0993  0.1089 -0.4284
   53DOPE  H14R 6776   4.190   5.729  14.515  0.3956  0.3243  0.2518
   53DOPE  H14S 6777   4.350   5.768  14.477  0.2611  0.1531  0.6805
   53DOPE  C215 6778   4.344   5.590  14.598 -0.1900  0.1350 -0.4496
   53DOPE  H15R 6779   4.446   5.555  14.570  1.0960 -0.4245  4.1105
   53DOPE  H15S 6780   4.275   5.506  14.621  0.2527  0.5465  2.8585
   53DOPE  C216 6781   4.364   5.669  14.734  0.0640  0.5971  0.1261
   53DOPE  H16R 6782   4.276   5.729  14.765 -1.3685 -0.7789 -1.1137
   53DOPE  H16S 6783   4.450   5.739  14.730  0.2395  0.4329  0.9271
   53DOPE  C217 6784   4.381   5.568  14.850 -0.0621  0.5367 -0.0272
   53DOPE  H17R 6785   4.476   5.517  14.824  0.5485  1.3135  0.6462
   53DOPE  H17S 6786   4.301   5.491  14.840  1.3098 -0.8301 -0.7432
   53DOPE  C218 6787   4.388   5.621  14.988  0.1036  0.1899  0.4455
   53DOPE  H18R 6788   4.410   5.551  15.072 -0.4021  0.4316  0.7814
   53DOPE  H18S 6789   4.288   5.660  15.015  0.3703  0.9986  0.3127
   53DOPE  H18T 6790   4.460   5.706  14.995  0.3794  0.2410 -2.0966
   53DOPE   C33 6791   4.630   5.074  13.424  0.0718 -0.3603  0.0193
   53DOPE   H3X 6792   4.717   5.018  13.383  0.2783  0.4113 -0.6185
   53DOPE   H3Y 6793   4.548   5.001  13.408 -1.0863  0.8306  0.4080
   53DOPE   C34 6794   4.645   5.094  13.578  0.7465  0.1682 -0.5262
   53DOPE   H4X 6795   4.551   5.136  13.621  2.2511  1.2608  1.9483
   53DOPE   H4Y 6796   4.672   4.992  13.615  2.4087  1.5725  2.5659
   53DOPE   C35 6797   4.754   5.196  13.618 -0.0766  0.1476 -0.8818
   53DOPE   H5X 6798   4.740   5.280  13.547 -1.3303  0.7681  0.0572
   53DOPE   H5Y 6799   4.856   5.152  13.615 -0.7945 -2.0718  2.1943
   53DOPE   C36 6800   4.743   5.245  13.767  0.3861  0.2033 -0.2558
   53DOPE   H6X 6801   4.638   5.280  13.767  0.0486 -0.6051 -2.4625
   53DOPE   H6Y 6802   4.805   5.334  13.792 -2.3686  2.1469  0.1599
   53DOPE   C37 6803   4.763   5.122  13.863 -0.9226 -0.9063 -0.2490
   53DOPE   H7X 6804   4.680   5.049  13.850 -2.4411  0.6449  0.5013
   53DOPE   H7Y 6805   4.858   5.069  13.837  0.0510  0.2565  0.8505
   53DOPE   C38 6806   4.769   5.156  14.012 -0.2192 -0.0235 -0.1724
   53DOPE   H8X 6807   4.810   5.070  14.068  1.4625 -0.1235 -1.4922
   53DOPE   H8Y 6808   4.662   5.168  14.040  0.2648  2.1111  0.9311
   53DOPE   C39 6809   4.852   5.278  14.052 -0.5754  1.2196  0.3628
   53DOPE   H9X 6810   4.943   5.305  13.997 -0.5840  2.0631  0.7434
   53DOPE  C310 6811   4.820   5.361  14.148  0.0910  0.0480  0.4026
   53DOPE  H10X 6812   4.885   5.445  14.176 -2.1457  1.2128  2.5265
   53DOPE  C311 6813   4.697   5.361  14.240  0.0589 -0.2620 -0.8629
   53DOPE  H11X 6814   4.642   5.457  14.249  2.4107  1.0914 -0.1937
   53DOPE  H11Y 6815   4.626   5.292  14.189  0.0643 -2.0176  1.3353
   53DOPE  C312 6816   4.716   5.320  14.388 -0.6046  0.2438  0.5656
   53DOPE  H12X 6817   4.750   5.217  14.412  0.6313  0.1882 -1.2472
   53DOPE  H12Y 6818   4.609   5.321  14.421 -1.1710  1.8360 -1.1555
   53DOPE  C313 6819   4.809   5.413  14.470  0.1856 -0.2228 -0.0836
   53DOPE  H13X 6820   4.912   5.388  14.437 -0.3760 -0.7395 -1.4909
   53DOPE  H13Y 6821   4.795   5.518  14.437  1.0483  0.2017  0.8378
   53DOPE  C314 6822   4.794   5.404  14.618  0.1341 -0.0299  0.1488
   53DOPE  H14X 6823   4.709   5.472  14.642 -1.3455 -1.3989 -0.9818
   53DOPE  H14Y 6824   4.888   5.453  14.653 -1.0417  2.7575 -0.2990
   53DOPE  C315 6825   4.798   5.265  14.680  0.5238  0.4569 -0.4465
   53DOPE  H15X 6826   4.850   5.190  14.616  0.9123  0.8982 -0.6558
   53DOPE  H15Y 6827   4.694   5.227  14.687  0.2652  1.4450  1.8408
   53DOPE  C316 6828   4.861   5.260  14.819  0.3895  0.0403 -0.0873
   53DOPE  H16X 6829   4.967   5.293  14.816  0.8480 -1.3975 -1.2249
   53DOPE  H16Y 6830   4.869   5.151  14.841 -0.3229 -0.1154 -0.5626
   53DOPE  C317 6831   4.780   5.322  14.925  0.0502 -0.1007 -0.2363
   53DOPE  H17X 6832   4.777   5.433  14.918 -0.9768 -0.0810  0.3221
   53DOPE  H17Y 6833   4.674   5.291  14.908  0.7747 -2.3855 -0.9321
   53DOPE  C318 6834   4.822   5.272  15.057  0.4465  0.5819 -0.2431
   53DOPE  H18X 6835   4.833   5.162  15.055 -0.9340  0.4424 -1.3655
   53DOPE  H18Y 6836   4.922   5.312  15.085  1.6869 -2.0870 -0.6453
   53DOPE  H18Z 6837   4.750   5.303  15.136 -0.2263  3.7480 -1.9302
   54DOPE     N 6838   7.384   2.570  12.512  0.3657  0.1325  0.1636
   54DOPE   HN1 6839   7.464   2.634  12.529  0.9353 -0.7825  1.0697
   54DOPE   HN2 6840   7.423   2.485  12.465  0.4733  1.2909 -1.9533
   54DOPE   HN3 6841   7.320   2.616  12.444 -2.1296 -1.6166  1.1748
   54DOPE   C12 6842   7.306   2.535  12.637  0.1651 -0.6063  0.3701
   54DOPE  H12A 6843   7.381   2.498  12.711 -1.4198  1.1529  3.0058
   54DOPE  H12B 6844   7.237   2.450  12.618 -0.6529  0.2439 -0.5701
   54DOPE   C11 6845   7.246   2.661  12.701  0.0766  0.3594 -0.0157
   54DOPE  H11A 6846   7.328   2.735  12.713  0.1407  0.5651 -1.4617
   54DOPE  H11B 6847   7.201   2.627  12.797  1.2956  1.5706  1.0177
   54DOPE     P 6848   7.010   2.660  12.588  0.4559 -0.0113  0.0338
   54DOPE   O13 6849   6.984   2.538  12.667  0.0975  0.2183 -0.0621
   54DOPE   O14 6850   7.001   2.648  12.441 -0.4379 -0.3898 -0.1337
   54DOPE   O11 6851   6.917   2.781  12.639 -0.1896  0.1591 -0.0985
   54DOPE   O12 6852   7.146   2.724  12.619  0.2038 -0.1054  0.4956
   54DOPE    C1 6853   6.785   2.749  12.686 -0.2231 -0.7327  0.5744
   54DOPE    HA 6854   6.751   2.647  12.656  1.0004 -1.1991  0.6992
   54DOPE    HB 6855   6.717   2.822  12.637  0.3003  0.8094  2.0487
   54DOPE    C2 6856   6.766   2.765  12.836  0.2959 -1.0538  0.1544
   54DOPE    HS 6857   6.783   2.873  12.856  0.4782 -0.6669 -1.8293
   54DOPE   O21 6858   6.864   2.686  12.907 -0.1346  1.1547 -0.5436
   54DOPE   C21 6859   6.916   2.741  13.016  0.4495 -0.5074 -0.4162
   54DOPE   O22 6860   6.894   2.852  13.055  0.2126 -0.7390  0.1384
   54DOPE   C22 6861   6.999   2.640  13.095  0.4519 -0.0920  0.8826
   54DOPE   H2R 6862   7.090   2.626  13.034 -1.4477 -0.5832 -2.0203
   54DOPE   H2S 6863   6.946   2.542  13.090 -0.1090  0.2442 -0.0291
   54DOPE    C3 6864   6.627   2.719  12.887  0.4436 -0.4578  0.5633
   54DOPE    HX 6865   6.630   2.610  12.867  0.3064 -0.4308  0.3884
   54DOPE    HY 6866   6.546   2.765  12.826  0.8561 -1.3530 -0.7241
   54DOPE   O31 6867   6.628   2.738  13.034 -0.1769 -0.7519 -0.2788
   54DOPE   C31 6868   6.557   2.847  13.073  0.9079  0.1140 -0.4591
   54DOPE   O32 6869   6.505   2.934  12.996 -0.2366 -0.2584  0.0293
   54DOPE   C32 6870   6.539   2.848  13.229  0.3390 -0.2387  0.0178
   54DOPE   H2X 6871   6.537   2.742  13.262  1.4019  0.1713  1.4722
   54DOPE   H2Y 6872   6.623   2.908  13.269  0.9283 -0.8092 -0.3462
   54DOPE   C23 6873   7.032   2.665  13.248  0.4195 -0.1853  0.2895
   54DOPE   H3R 6874   6.947   2.688  13.317  0.2692 -2.0278  0.7795
   54DOPE   H3S 6875   7.097   2.755  13.246  1.3955 -0.8244  1.6020
   54DOPE   C24 6876   7.116   2.554  13.310  0.3567  0.2759 -0.8112
   54DOPE   H4R 6877   7.206   2.527  13.249  2.4462 -0.4409  2.3542
   54DOPE   H4S 6878   7.060   2.458  13.317  0.5716  0.2933  2.4621
   54DOPE   C25 6879   7.158   2.564  13.457 -1.2659  0.2163  0.3977
   54DOPE   H5R 6880   7.070   2.575  13.524 -1.8496 -0.4676 -0.2347
   54DOPE   H5S 6881   7.215   2.658  13.467 -0.8902  0.0148  0.1923
   54DOPE   C26 6882   7.253   2.450  13.506  0.3745 -0.5006 -0.2218
   54DOPE   H6R 6883   7.307   2.408  13.418  2.0306  2.0766 -0.5287
   54DOPE   H6S 6884   7.184   2.368  13.534 -3.1790  2.5306  0.6224
   54DOPE   C27 6885   7.358   2.494  13.614  0.3348 -0.0639 -1.1730
   54DOPE   H7R 6886   7.407   2.578  13.560  2.9003 -1.6068 -1.4074
   54DOPE   H7S 6887   7.440   2.421  13.627  0.8680  0.8673  1.3587
   54DOPE   C28 6888   7.301   2.549  13.744 -0.1902  0.2794 -0.3243
   54DOPE   H8R 6889   7.224   2.626  13.721 -1.2907 -0.9006 -0.6667
   54DOPE   H8S 6890   7.385   2.598  13.799  0.3744 -0.7717 -0.2223
   54DOPE   C29 6891   7.230   2.451  13.830  0.0468  0.0040  0.7909
   54DOPE   H9R 6892   7.131   2.418  13.796  1.6739 -2.5356 -2.0204
   54DOPE  C210 6893   7.274   2.413  13.953  0.2614  0.5234 -0.3152
   54DOPE  H10R 6894   7.218   2.340  14.012  2.2696 -0.1555  0.8218
   54DOPE  C211 6895   7.398   2.463  14.023 -0.3798 -1.3850  0.8531
   54DOPE  H11R 6896   7.483   2.459  13.951 -0.7064 -1.0305  0.4400
   54DOPE  H11S 6897   7.426   2.398  14.108  0.4347 -1.2560  0.6966
   54DOPE  C212 6898   7.371   2.600  14.094 -0.5083  0.9175 -0.1776
   54DOPE  H12R 6899   7.397   2.684  14.025 -0.3294 -0.9554 -2.5452
   54DOPE  H12S 6900   7.448   2.604  14.174  1.5526 -1.4402 -1.9091
   54DOPE  C213 6901   7.232   2.613  14.151  0.0368 -0.3993  0.4924
   54DOPE  H13R 6902   7.198   2.513  14.186 -2.4827  1.0814  2.6604
   54DOPE  H13S 6903   7.162   2.650  14.074  2.8652  4.3939 -0.1327
   54DOPE  C214 6904   7.223   2.721  14.261  0.0111  0.6637 -0.0229
   54DOPE  H14R 6905   7.115   2.744  14.268 -0.1258  0.8460 -2.1309
   54DOPE  H14S 6906   7.277   2.814  14.232  0.0663  0.8594  0.7050
   54DOPE  C215 6907   7.272   2.662  14.395 -0.8471 -0.2649 -0.4531
   54DOPE  H15R 6908   7.383   2.660  14.392 -0.7944  1.4055 -0.4846
   54DOPE  H15S 6909   7.246   2.555  14.408 -1.4629 -0.0548  0.1058
   54DOPE  C216 6910   7.217   2.739  14.517 -0.2175  0.5328 -0.3263
   54DOPE  H16R 6911   7.191   2.843  14.486  1.9922  0.7979 -1.5155
   54DOPE  H16S 6912   7.296   2.748  14.595  0.4161  1.0477 -1.0044
   54DOPE  C217 6913   7.097   2.676  14.585 -0.2733 -0.3218 -0.5056
   54DOPE  H17R 6914   7.127   2.576  14.624  0.5886 -0.0063 -0.3263
   54DOPE  H17S 6915   7.014   2.658  14.514 -3.1857 -1.4155  2.8888
   54DOPE  C218 6916   7.053   2.769  14.701  0.2277  0.3616  0.0296
   54DOPE  H18R 6917   7.027   2.871  14.666  0.7823  0.4911 -0.0202
   54DOPE  H18S 6918   7.131   2.779  14.780 -0.0693  1.4983  0.2079
   54DOPE  H18T 6919   6.962   2.728  14.749 -1.2972  1.0480 -2.1628
   54DOPE   C33 6920   6.404   2.907  13.276  0.5877  0.0317  0.2078
   54DOPE   H3X 6921   6.322   2.838  13.246 -1.2471  2.3722 -0.4766
   54DOPE   H3Y 6922   6.393   3.003  13.221 -0.1146  0.3591  0.9068
   54DOPE   C34 6923   6.411   2.929  13.426  0.3232  0.4037 -0.3135
   54DOPE   H4X 6924   6.510   2.975  13.449  1.0276 -1.2709  0.1558
   54DOPE   H4Y 6925   6.346   3.016  13.452 -2.4667 -0.3245 -4.0635
   54DOPE   C35 6926   6.390   2.801  13.500 -0.2465  0.2821 -0.6587
   54DOPE   H5X 6927   6.451   2.721  13.453  0.4651 -0.6068  1.6290
   54DOPE   H5Y 6928   6.283   2.776  13.486 -0.8013  3.1922 -2.1665
   54DOPE   C36 6929   6.445   2.818  13.647  0.0972 -0.3008  0.6757
   54DOPE   H6X 6930   6.406   2.916  13.682 -0.1269  0.3390 -1.2509
   54DOPE   H6Y 6931   6.556   2.823  13.649  0.1152 -0.4605  0.2712
   54DOPE   C37 6932   6.385   2.706  13.744 -0.2927  0.4415  0.5086
   54DOPE   H7X 6933   6.284   2.735  13.778 -0.7288 -1.3124  0.7817
   54DOPE   H7Y 6934   6.377   2.605  13.700  0.7754 -0.1590  1.6328
   54DOPE   C38 6935   6.474   2.695  13.868  0.2615 -0.2691  0.6609
   54DOPE   H8X 6936   6.489   2.792  13.920 -1.4821 -0.2172  1.1125
   54DOPE   H8Y 6937   6.578   2.686  13.829  0.4512 -0.1988  1.1376
   54DOPE   C39 6938   6.445   2.590  13.968  0.2171  0.8586 -0.1799
   54DOPE   H9X 6939   6.474   2.488  13.937  0.9190  1.2435 -0.8182
   54DOPE  C310 6940   6.383   2.603  14.091  0.8337 -0.2624  0.0758
   54DOPE  H10X 6941   6.381   2.521  14.164  1.2477  1.0855  1.6754
   54DOPE  C311 6942   6.334   2.733  14.152 -0.5443  0.2002  0.0332
   54DOPE  H11X 6943   6.329   2.812  14.074  0.7133 -1.6749 -2.0759
   54DOPE  H11Y 6944   6.232   2.709  14.186  0.6029 -1.1973  2.7213
   54DOPE  C312 6945   6.423   2.795  14.259  0.3862  0.1174 -0.4993
   54DOPE  H12X 6946   6.387   2.896  14.287 -0.5169 -0.0464 -1.0340
   54DOPE  H12Y 6947   6.530   2.806  14.230  1.0780 -0.3152  1.7388
   54DOPE  C313 6948   6.447   2.706  14.385 -0.0881  0.6215  0.5126
   54DOPE  H13X 6949   6.349   2.672  14.425 -0.6470  2.9682  1.2685
   54DOPE  H13Y 6950   6.501   2.615  14.349 -1.6972 -0.0051 -0.4288
   54DOPE  C314 6951   6.532   2.779  14.491  0.2331  0.0128  0.1984
   54DOPE  H14X 6952   6.474   2.862  14.536 -1.8192 -2.0903  1.6291
   54DOPE  H14Y 6953   6.630   2.810  14.447  1.8515 -4.5420  0.0303
   54DOPE  C315 6954   6.566   2.691  14.614  0.3328  0.0129  0.6399
   54DOPE  H15X 6955   6.646   2.736  14.677  2.3665 -1.2926 -0.8469
   54DOPE  H15Y 6956   6.612   2.595  14.582 -0.5552 -0.0334 -0.5590
   54DOPE  C316 6957   6.441   2.667  14.700 -0.2064  0.0882  0.4751
   54DOPE  H16X 6958   6.378   2.594  14.646  1.5748 -0.7313 -0.5555
   54DOPE  H16Y 6959   6.378   2.759  14.701 -1.1538 -0.5298 -0.6303
   54DOPE  C317 6960   6.474   2.623  14.842  0.5319  0.6045  0.5402
   54DOPE  H17X 6961   6.530   2.707  14.888 -2.3012  2.2294  1.2072
   54DOPE  H17Y 6962   6.382   2.605  14.901  0.0627  2.1436  0.3039
   54DOPE  C318 6963   6.569   2.502  14.856  0.5858 -0.5033  0.1280
   54DOPE  H18X 6964   6.543   2.471  14.959 -0.9438  2.9319  0.9279
   54DOPE  H18Y 6965   6.548   2.423  14.780  2.1539 -2.3248  1.4984
   54DOPE  H18Z 6966   6.677   2.525  14.858  0.3413  0.7836 -0.2903
   55DOPE     N 6967   0.073   4.717  12.693  0.7221  0.8089  0.2077
   55DOPE   HN1 6968   0.137   4.653  12.743 -0.5682  0.1383  1.0399
   55DOPE   HN2 6969  -0.026   4.703  12.721  0.8929  2.2581  1.6797
   55DOPE   HN3 6970   0.093   4.695  12.593  0.4182  1.0298  0.0975
   55DOPE   C12 6971   0.105   4.858  12.740  0.3325 -0.3539 -0.3286
   55DOPE  H12A 6972   0.048   4.927  12.674 -0.6152  0.0575  0.8720
   55DOPE  H12B 6973   0.215   4.874  12.739  0.1704  2.1550  2.7772
   55DOPE   C11 6974   0.073   4.864  12.892  0.1898 -0.7389  0.2662
   55DOPE  H11A 6975   0.089   4.962  12.941 -2.1706 -0.8086  1.3142
   55DOPE  H11B 6976   0.137   4.782  12.930  0.3255 -0.7364  0.0438
   55DOPE     P 6977  -0.190   4.893  12.909  0.2096  0.3545 -0.0707
   55DOPE   O13 6978  -0.298   4.817  12.968 -0.1077 -0.3674 -0.2276
   55DOPE   O14 6979  -0.204   4.942  12.768  0.0822  0.0210 -0.1649
   55DOPE   O11 6980  -0.159   5.024  12.999  0.2274  0.1070  0.0855
   55DOPE   O12 6981  -0.062   4.811  12.924 -0.4450  0.1113  0.1399
   55DOPE    C1 6982  -0.181   5.030  13.135  0.2707  0.5735 -0.5337
   55DOPE    HA 6983  -0.246   4.954  13.183  0.6169  2.6237  3.6381
   55DOPE    HB 6984  -0.226   5.130  13.154  1.5801  0.9888  0.4920
   55DOPE    C2 6985  -0.047   5.037  13.209  0.0258 -0.1053  0.4491
   55DOPE    HS 6986   0.003   5.132  13.179  1.8717 -0.6707  1.6155
   55DOPE   O21 6987   0.020   4.912  13.189 -0.1295 -0.4569 -0.6869
   55DOPE   C21 6988   0.146   4.912  13.226  0.0039 -0.9863  0.4266
   55DOPE   O22 6989   0.221   5.008  13.239 -0.1732 -0.6341  0.9232
   55DOPE   C22 6990   0.180   4.759  13.222 -0.2190 -0.4260 -0.5307
   55DOPE   H2R 6991   0.255   4.746  13.141 -0.1132 -0.7735 -0.3815
   55DOPE   H2S 6992   0.085   4.704  13.207 -0.4776  0.0353 -0.5871
   55DOPE    C3 6993  -0.093   5.046  13.362  0.6714  0.4613  0.9058
   55DOPE    HX 6994  -0.152   4.957  13.393  2.2213 -0.7518  0.5032
   55DOPE    HY 6995  -0.158   5.136  13.366  1.4882  1.1218 -0.0126
   55DOPE   O31 6996   0.010   5.058  13.458  0.1745 -0.1253 -0.1825
   55DOPE   C31 6997   0.068   5.182  13.463  1.1057  0.0148  0.7703
   55DOPE   O32 6998   0.047   5.270  13.380 -0.1420 -0.3922  0.0340
   55DOPE   C32 6999   0.164   5.199  13.574  0.3825 -0.0399  0.3717
   55DOPE   H2X 7000   0.107   5.250  13.654  2.8420  0.3778  1.9863
   55DOPE   H2Y 7001   0.184   5.106  13.633 -1.9609 -0.1702  1.0625
   55DOPE   C23 7002   0.258   4.709  13.345 -0.4859  0.1739  0.2379
   55DOPE   H3R 7003   0.349   4.767  13.367  0.0871 -0.3574 -0.6592
   55DOPE   H3S 7004   0.297   4.606  13.330  0.2908  0.5610 -0.5079
   55DOPE   C24 7005   0.167   4.697  13.472  0.0787 -0.1427 -1.1239
   55DOPE   H4R 7006   0.066   4.650  13.467  0.9067 -2.7064  2.3933
   55DOPE   H4S 7007   0.149   4.802  13.505 -2.2441 -1.3382  1.9417
   55DOPE   C25 7008   0.241   4.632  13.595  0.0590 -0.6776  0.4232
   55DOPE   H5R 7009   0.263   4.531  13.556  0.2219  0.3588 -2.3660
   55DOPE   H5S 7010   0.173   4.610  13.680 -2.8134  0.4240 -1.4579
   55DOPE   C26 7011   0.371   4.701  13.643  0.5097 -0.5178 -0.3295
   55DOPE   H6R 7012   0.444   4.716  13.560  1.8246 -3.1679  0.2349
   55DOPE   H6S 7013   0.426   4.637  13.715 -1.0603 -1.4398  0.0802
   55DOPE   C27 7014   0.356   4.825  13.726 -0.0277 -0.3662  0.2504
   55DOPE   H7R 7015   0.326   4.912  13.664  0.3643  0.4486  1.1804
   55DOPE   H7S 7016   0.458   4.845  13.767  0.8424 -0.4275 -1.7528
   55DOPE   C28 7017   0.261   4.792  13.846 -0.2100  0.3342  0.1223
   55DOPE   H8R 7018   0.303   4.704  13.899  2.0181  0.5078 -1.2068
   55DOPE   H8S 7019   0.160   4.762  13.813  0.5116  0.3757 -2.3357
   55DOPE   C29 7020   0.256   4.914  13.943  0.1891 -0.1967 -0.0953
   55DOPE   H9R 7021   0.158   4.963  13.943 -0.1944 -0.7297 -3.8273
   55DOPE  C210 7022   0.341   4.949  14.045 -0.4831  0.2496  0.3280
   55DOPE  H10R 7023   0.322   5.046  14.093  0.7020 -0.5383  2.5481
   55DOPE  C211 7024   0.471   4.894  14.100 -0.3380 -0.1754 -0.4426
   55DOPE  H11R 7025   0.557   4.951  14.059 -0.0993 -0.8807 -0.9402
   55DOPE  H11S 7026   0.486   4.788  14.072  1.5253  0.0288 -0.3329
   55DOPE  C212 7027   0.484   4.907  14.253  0.2180 -0.6209  0.5208
   55DOPE  H12R 7028   0.579   4.856  14.281 -0.7451 -1.5225  2.3371
   55DOPE  H12S 7029   0.408   4.840  14.300  1.1738 -1.5364  0.8009
   55DOPE  C213 7030   0.470   5.047  14.309  0.1509 -0.0301  0.0831
   55DOPE  H13R 7031   0.368   5.086  14.289 -0.1212 -1.2154 -0.9372
   55DOPE  H13S 7032   0.549   5.112  14.264  0.5188  1.2408  2.3635
   55DOPE  C214 7033   0.489   5.050  14.460 -0.0320 -0.0878  1.1841
   55DOPE  H14R 7034   0.469   5.156  14.484 -1.1296  0.8802 -3.1718
   55DOPE  H14S 7035   0.590   5.016  14.494  1.1235  0.1874 -1.7203
   55DOPE  C215 7036   0.391   4.965  14.539  0.3263  0.1775 -0.4263
   55DOPE  H15R 7037   0.378   4.863  14.498 -1.9629 -0.1069  0.8322
   55DOPE  H15S 7038   0.288   5.007  14.529 -0.6173 -2.0546 -0.8372
   55DOPE  C216 7039   0.425   4.939  14.689  0.2077 -0.2644 -0.0579
   55DOPE  H16R 7040   0.501   4.858  14.690  1.1400  0.5367 -1.6166
   55DOPE  H16S 7041   0.332   4.907  14.741  0.1699 -2.4061 -1.3434
   55DOPE  C217 7042   0.485   5.061  14.758 -0.4368  0.8866 -0.2536
   55DOPE  H17R 7043   0.418   5.147  14.740  0.1866  0.9878 -2.2868
   55DOPE  H17S 7044   0.584   5.079  14.710  0.5576  1.2308  1.8130
   55DOPE  C218 7045   0.503   5.034  14.907 -0.4760 -0.1447 -0.8705
   55DOPE  H18R 7046   0.553   4.937  14.922  0.2358  0.2191 -0.8475
   55DOPE  H18S 7047   0.406   5.023  14.960  0.6301  0.6267  1.4897
   55DOPE  H18T 7048   0.543   5.120  14.966 -1.9783  1.5063 -2.1199
   55DOPE   C33 7049   0.293   5.270  13.541  0.1120 -0.0882  0.4786
   55DOPE   H3X 7050   0.272   5.373  13.506 -1.9311 -0.4725  0.4298
   55DOPE   H3Y 7051   0.347   5.226  13.454 -1.3649  0.0294 -0.5229
   55DOPE   C34 7052   0.384   5.310  13.660  0.2395 -0.1031  0.1919
   55DOPE   H4X 7053   0.456   5.382  13.617 -0.7347  0.9155  0.2402
   55DOPE   H4Y 7054   0.321   5.375  13.723 -0.5933  0.5597 -1.2707
   55DOPE   C35 7055   0.452   5.187  13.721 -0.3719  0.0429  0.3012
   55DOPE   H5X 7056   0.508   5.134  13.642 -2.1846 -4.0699  1.4909
   55DOPE   H5Y 7057   0.389   5.109  13.768  0.3405 -1.4647 -1.1697
   55DOPE   C36 7058   0.553   5.232  13.827 -0.0191  0.1621  0.4783
   55DOPE   H6X 7059   0.636   5.280  13.770  1.1534 -4.6812 -2.4529
   55DOPE   H6Y 7060   0.600   5.141  13.872 -0.9318 -0.2774  0.5557
   55DOPE   C37 7061   0.501   5.321  13.941  0.2035 -0.0937  0.1058
   55DOPE   H7X 7062   0.452   5.412  13.899 -2.9484 -1.6883  0.0461
   55DOPE   H7Y 7063   0.429   5.249  13.986 -0.4558 -0.5148 -1.5467
   55DOPE   C38 7064   0.612   5.357  14.046  0.2807  0.0845  0.1938
   55DOPE   H8X 7065   0.691   5.426  14.007  0.3430  1.0909  1.9901
   55DOPE   H8Y 7066   0.663   5.264  14.078 -2.5067 -2.2306 -1.6157
   55DOPE   C39 7067   0.554   5.427  14.169 -0.4422  0.4173  0.0195
   55DOPE   H9X 7068   0.457   5.476  14.156  0.6702  1.9247 -4.1569
   55DOPE  C310 7069   0.613   5.416  14.298 -0.1225  0.1711  0.6132
   55DOPE  H10X 7070   0.568   5.465  14.385 -0.1842  0.0446  0.6522
   55DOPE  C311 7071   0.738   5.342  14.343  0.7276  0.1518 -0.7689
   55DOPE  H11X 7072   0.726   5.308  14.448  1.2450 -0.0332 -0.7622
   55DOPE  H11Y 7073   0.734   5.244  14.289  1.5847 -1.4766  1.9209
   55DOPE  C312 7074   0.877   5.393  14.321  0.0783 -0.3991  0.9582
   55DOPE  H12X 7075   0.892   5.409  14.212  1.4707  0.1293  1.1995
   55DOPE  H12Y 7076   0.956   5.324  14.358  1.5284  1.2633  1.0700
   55DOPE  C313 7077   0.894   5.529  14.390  0.4122  0.2831  0.0391
   55DOPE  H13X 7078   0.838   5.604  14.331 -1.6768 -0.4531  0.9907
   55DOPE  H13Y 7079   0.860   5.533  14.495  0.1963 -1.9659  0.1003
   55DOPE  C314 7080   1.043   5.562  14.395  0.2256  0.3377 -0.0617
   55DOPE  H14X 7081   1.090   5.559  14.294  0.0752  0.7635 -0.1452
   55DOPE  H14Y 7082   1.087   5.479  14.454  0.2367  0.3816 -0.0091
   55DOPE  C315 7083   1.071   5.697  14.462  0.3865 -0.0158  0.4163
   55DOPE  H15X 7084   0.997   5.770  14.423 -1.5850 -1.8281  0.6318
   55DOPE  H15Y 7085   1.170   5.737  14.430  0.2536  0.1635  0.2278
   55DOPE  C316 7086   1.055   5.705  14.613 -0.3876  0.0129  0.1409
   55DOPE  H16X 7087   1.108   5.628  14.674 -1.4943 -1.6948 -0.9789
   55DOPE  H16Y 7088   0.945   5.703  14.618 -0.3422 -0.1679  1.4051
   55DOPE  C317 7089   1.086   5.843  14.672  0.3293 -1.0136  0.5440
   55DOPE  H17X 7090   1.196   5.858  14.668  0.1291  0.9232 -4.1291
   55DOPE  H17Y 7091   1.032   5.914  14.607 -0.9297 -1.0577  1.5089
   55DOPE  C318 7092   1.034   5.858  14.818  0.7842  0.2098 -0.3633
   55DOPE  H18X 7093   1.079   5.948  14.865  0.6338 -0.7772  1.7640
   55DOPE  H18Y 7094   0.923   5.853  14.822  0.8164 -1.3723 -0.8567
   55DOPE  H18Z 7095   1.060   5.765  14.873 -1.0472  0.9454  1.9200
   56DOPE     N 7096   0.284   5.312  12.939 -0.1331  0.4658  0.1857
   56DOPE   HN1 7097   0.362   5.259  12.895  0.4069  0.4583  1.1226
   56DOPE   HN2 7098   0.190   5.276  12.912 -0.1043 -2.6257  3.3435
   56DOPE   HN3 7099   0.292   5.412  12.914 -2.0397  1.2976  2.5350
   56DOPE   C12 7100   0.298   5.301  13.091  0.0117 -0.0634  0.7041
   56DOPE  H12A 7101   0.316   5.194  13.112 -1.0513 -0.8061 -1.7559
   56DOPE  H12B 7102   0.201   5.339  13.131 -1.0486 -0.5874 -1.2325
   56DOPE   C11 7103   0.400   5.397  13.143  0.9096 -0.0410 -0.3914
   56DOPE  H11A 7104   0.419   5.382  13.252 -1.9583  0.8270  0.3235
   56DOPE  H11B 7105   0.358   5.499  13.147  1.0610  0.0084 -0.0204
   56DOPE     P 7106   0.628   5.283  13.076  0.0794 -0.1062 -0.4548
   56DOPE   O13 7107   0.759   5.330  13.031 -0.0790  0.0736 -0.0018
   56DOPE   O14 7108   0.569   5.179  12.999  0.4569 -0.1566  0.1831
   56DOPE   O11 7109   0.630   5.242  13.228 -0.0564  0.2571  1.1766
   56DOPE   O12 7110   0.520   5.401  13.068  0.2145 -0.3054 -0.0252
   56DOPE    C1 7111   0.671   5.340  13.325  0.0208  0.0940  0.1738
   56DOPE    HA 7112   0.580   5.366  13.383 -0.7836 -3.2002  0.5925
   56DOPE    HB 7113   0.730   5.427  13.287  0.3680 -0.2284 -0.0379
   56DOPE    C2 7114   0.771   5.267  13.432  0.6413  0.1441  0.3879
   56DOPE    HS 7115   0.864   5.250  13.374 -0.2400  0.3707 -1.1195
   56DOPE   O21 7116   0.704   5.145  13.479  0.7510 -0.1434 -0.3526
   56DOPE   C21 7117   0.774   5.038  13.468  0.0419 -0.0063  0.3471
   56DOPE   O22 7118   0.891   5.035  13.426  0.1085 -0.1473  0.3234
   56DOPE   C22 7119   0.694   4.918  13.512 -0.4898  0.4792  0.7900
   56DOPE   H2R 7120   0.679   4.856  13.421  0.5663  0.2752  0.7401
   56DOPE   H2S 7121   0.604   4.952  13.567 -0.9193  0.7651 -0.0770
   56DOPE    C3 7122   0.804   5.349  13.556  0.3320 -0.5886 -0.5731
   56DOPE    HX 7123   0.714   5.389  13.608  2.0523  0.3138  1.9442
   56DOPE    HY 7124   0.840   5.448  13.522  0.2903 -1.2266 -2.5801
   56DOPE   O31 7125   0.887   5.277  13.644 -0.4338 -0.6195 -0.0059
   56DOPE   C31 7126   1.002   5.334  13.679 -0.1000 -0.6680 -0.3528
   56DOPE   O32 7127   1.038   5.447  13.647 -0.1230  0.5645 -0.7052
   56DOPE   C32 7128   1.079   5.242  13.770  0.5123  0.2579 -0.5104
   56DOPE   H2X 7129   1.093   5.143  13.720 -1.0064 -0.7314  0.9383
   56DOPE   H2Y 7130   1.174   5.291  13.800  0.0563 -0.1427  1.7122
   56DOPE   C23 7131   0.770   4.826  13.610  0.6139  0.1070 -0.6089
   56DOPE   H3R 7132   0.864   4.819  13.550  0.9417  0.4070 -0.1360
   56DOPE   H3S 7133   0.716   4.729  13.605 -1.0953  0.9881  0.0098
   56DOPE   C24 7134   0.782   4.882  13.756  0.4285  0.0821  0.4801
   56DOPE   H4R 7135   0.680   4.911  13.789  1.1480  1.7498  1.3558
   56DOPE   H4S 7136   0.857   4.964  13.757  0.6833 -0.1376  0.0182
   56DOPE   C25 7137   0.851   4.774  13.852  0.9889 -1.3414  0.0814
   56DOPE   H5R 7138   0.860   4.817  13.954 -0.2017  1.7791 -1.0179
   56DOPE   H5S 7139   0.955   4.744  13.827  2.3030  0.1140  3.3283
   56DOPE   C26 7140   0.772   4.646  13.867 -0.7394  0.7686  0.2715
   56DOPE   H6R 7141   0.754   4.596  13.769  0.6181 -0.7869  0.7484
   56DOPE   H6S 7142   0.671   4.672  13.904 -0.0077  2.2448  1.3182
   56DOPE   C27 7143   0.833   4.541  13.961 -0.2399  0.0242 -0.4196
   56DOPE   H7R 7144   0.942   4.539  13.939  0.0381  1.4809  0.7207
   56DOPE   H7S 7145   0.798   4.437  13.940  2.0264 -0.1372 -4.3733
   56DOPE   C28 7146   0.809   4.570  14.110 -0.6001  0.1400 -0.7034
   56DOPE   H8R 7147   0.702   4.551  14.130 -0.9916  1.4915 -1.3903
   56DOPE   H8S 7148   0.835   4.675  14.132  0.2591  0.1814 -1.8118
   56DOPE   C29 7149   0.895   4.484  14.198  1.1170 -0.0088 -0.4733
   56DOPE   H9R 7150   1.005   4.480  14.193  1.1129 -2.3428  0.0461
   56DOPE  C210 7151   0.837   4.408  14.297 -0.1507  0.6996  0.3202
   56DOPE  H10R 7152   0.910   4.337  14.340  1.0244  0.8807 -1.2570
   56DOPE  C211 7153   0.697   4.388  14.341 -0.4386 -0.0316 -0.5046
   56DOPE  H11R 7154   0.682   4.279  14.352  1.2789 -0.1357  1.4535
   56DOPE  H11S 7155   0.620   4.434  14.275 -0.2607 -0.8768 -1.3113
   56DOPE  C212 7156   0.656   4.434  14.485  0.0733  0.7184  0.6174
   56DOPE  H12R 7157   0.720   4.382  14.559  1.7425 -0.3069 -1.4309
   56DOPE  H12S 7158   0.553   4.394  14.492  0.5948 -1.2206 -1.5115
   56DOPE  C213 7159   0.645   4.578  14.516  0.4555 -0.8924  0.9564
   56DOPE  H13R 7160   0.592   4.608  14.609  0.3026  2.9035 -0.1662
   56DOPE  H13S 7161   0.580   4.626  14.439  0.8959  1.5191  1.9845
   56DOPE  C214 7162   0.773   4.659  14.509  0.7242  0.2471 -0.7117
   56DOPE  H14R 7163   0.823   4.653  14.410  0.0347 -0.9307 -1.0069
   56DOPE  H14S 7164   0.839   4.616  14.588 -0.8275 -0.5147  0.2162
   56DOPE  C215 7165   0.747   4.809  14.537 -0.0310 -0.1921 -0.0525
   56DOPE  H15R 7166   0.690   4.799  14.632  1.1916 -2.2658  0.5192
   56DOPE  H15S 7167   0.689   4.854  14.453 -0.9770  1.9588  1.6371
   56DOPE  C216 7168   0.880   4.880  14.572  0.4003 -0.3253 -0.1613
   56DOPE  H16R 7169   0.957   4.846  14.500 -0.5962 -0.4669 -1.1947
   56DOPE  H16S 7170   0.908   4.858  14.677 -0.2332  0.9372  0.2843
   56DOPE  C217 7171   0.870   5.035  14.555  0.1521 -0.1404 -0.0602
   56DOPE  H17R 7172   0.779   5.079  14.601 -0.7227 -0.1625 -1.6997
   56DOPE  H17S 7173   0.869   5.055  14.445 -3.0683  1.0092  0.0815
   56DOPE  C218 7174   0.998   5.100  14.611  0.3116  1.0086  0.2116
   56DOPE  H18R 7175   1.094   5.045  14.614 -0.3716 -0.1676  0.9092
   56DOPE  H18S 7176   0.988   5.129  14.718  3.3096  0.4951  0.7185
   56DOPE  H18T 7177   1.001   5.197  14.556 -3.7706 -0.4538 -3.1672
   56DOPE   C33 7178   1.005   5.211  13.903  0.5086  0.3590  0.0637
   56DOPE   H3X 7179   0.906   5.167  13.881  0.1909  2.1385 -2.4539
   56DOPE   H3Y 7180   0.991   5.305  13.961  0.4317  0.5769 -0.3045
   56DOPE   C34 7181   1.068   5.102  13.992 -0.3304  0.2116  0.1262
   56DOPE   H4X 7182   1.019   5.004  13.973  0.4429 -0.0044 -0.8431
   56DOPE   H4Y 7183   1.179   5.102  13.988 -0.2014  1.7581  1.9781
   56DOPE   C35 7184   1.038   5.120  14.139  0.2606 -0.1375  0.3960
   56DOPE   H5X 7185   0.938   5.085  14.171  0.0037  0.1661 -0.0627
   56DOPE   H5Y 7186   1.055   5.227  14.162  3.5740 -0.3668 -0.4241
   56DOPE   C36 7187   1.149   5.045  14.231 -0.2374  0.2877  0.2529
   56DOPE   H6X 7188   1.140   5.101  14.327 -0.3720  2.2768 -0.8605
   56DOPE   H6Y 7189   1.248   5.051  14.182 -0.6042  3.1427 -0.2915
   56DOPE   C37 7190   1.115   4.893  14.250  0.0594 -0.2043 -0.1312
   56DOPE   H7X 7191   1.007   4.877  14.271  0.4353 -1.2298  1.1233
   56DOPE   H7Y 7192   1.140   4.848  14.151  0.2504 -0.0258 -0.1647
   56DOPE   C38 7193   1.208   4.828  14.362 -0.6565 -1.0840 -0.6690
   56DOPE   H8X 7194   1.166   4.728  14.388 -1.8846 -0.2625  0.6587
   56DOPE   H8Y 7195   1.187   4.883  14.457 -0.5172 -2.1113 -0.0229
   56DOPE   C39 7196   1.348   4.823  14.315  0.2759  0.1054  0.7728
   56DOPE   H9X 7197   1.396   4.921  14.303  0.3454 -0.1087 -0.9833
   56DOPE  C310 7198   1.423   4.716  14.305 -0.0605 -0.3653  0.0709
   56DOPE  H10X 7199   1.526   4.720  14.264  0.2123 -0.6946  0.7147
   56DOPE  C311 7200   1.386   4.570  14.324  0.2023 -0.9758 -0.0834
   56DOPE  H11X 7201   1.477   4.510  14.348  1.4563  1.0337  0.4635
   56DOPE  H11Y 7202   1.313   4.556  14.406  1.0296 -1.9302  0.5181
   56DOPE  C312 7203   1.333   4.518  14.191  0.0468 -0.2825 -0.1140
   56DOPE  H12X 7204   1.397   4.538  14.103  0.6400  2.3702  0.8347
   56DOPE  H12Y 7205   1.235   4.561  14.163  0.3858  0.3129 -0.3887
   56DOPE  C313 7206   1.300   4.372  14.198 -0.2052  0.2682 -0.8840
   56DOPE  H13X 7207   1.394   4.328  14.240 -0.9803  0.6629  1.4361
   56DOPE  H13Y 7208   1.224   4.356  14.277 -2.5656  2.9764 -2.4065
   56DOPE  C314 7209   1.280   4.305  14.058  0.0331  0.4267 -0.1370
   56DOPE  H14X 7210   1.298   4.199  14.085  0.8426  0.7143  0.4835
   56DOPE  H14Y 7211   1.366   4.342  13.999  0.0273  0.8026  0.0907
   56DOPE  C315 7212   1.148   4.318  13.989 -0.1545  0.0501 -0.2469
   56DOPE  H15X 7213   1.144   4.426  13.964  0.5963 -0.4275 -2.7842
   56DOPE  H15Y 7214   1.070   4.286  14.061  2.0851  1.1653  2.8763
   56DOPE  C316 7215   1.141   4.242  13.847 -0.1402  0.0296 -0.5749
   56DOPE  H16X 7216   1.146   4.132  13.856  2.7685  0.0313 -0.9645
   56DOPE  H16Y 7217   1.222   4.272  13.776  1.5462 -1.7767  0.4800
   56DOPE  C317 7218   1.009   4.279  13.772  0.0224  0.1197 -0.6190
   56DOPE  H17X 7219   0.925   4.240  13.834  0.7772  1.3012  1.2436
   56DOPE  H17Y 7220   0.999   4.389  13.783 -0.2815 -0.0686  1.3437
   56DOPE  C318 7221   0.995   4.243  13.624 -0.4086  0.3468  0.8664
   56DOPE  H18X 7222   0.990   4.133  13.617 -0.4780  0.4416 -0.9573
   56DOPE  H18Y 7223   0.895   4.281  13.591 -0.0373  0.8062  0.2407
   56DOPE  H18Z 7224   1.083   4.277  13.566 -1.9426 -0.2628 -2.0317
   57DOPE     N 7225   6.920   0.860  13.014 -0.3427  0.0835  0.0631
   57DOPE   HN1 7226   6.930   0.907  12.922  1.7120  1.1810  0.8003
   57DOPE   HN2 7227   6.999   0.799  13.043 -0.3599 -0.8283 -1.6866
   57DOPE   HN3 7228   6.831   0.806  13.006 -0.6439  0.2637  1.7215
   57DOPE   C12 7229   6.884   0.970  13.111  0.4425 -0.5484  0.1581
   57DOPE  H12A 7230   6.804   0.937  13.181 -1.5432  2.5190 -0.4890
   57DOPE  H12B 7231   6.827   1.039  13.046 -0.8899 -2.9728 -1.4053
   57DOPE   C11 7232   7.006   1.018  13.189 -0.3551 -0.1549 -0.7814
   57DOPE  H11A 7233   7.044   0.935  13.252 -2.6947 -0.5182  0.2547
   57DOPE  H11B 7234   6.974   1.097  13.261  0.6217 -0.8283  0.4305
   57DOPE     P 7235   7.086   1.214  13.044 -0.1789 -0.1870  0.2746
   57DOPE   O13 7236   6.970   1.215  12.953  0.1574  1.0858 -0.5298
   57DOPE   O14 7237   7.218   1.258  12.992  0.0050  0.1353  0.3512
   57DOPE   O11 7238   7.041   1.306  13.162  0.0835 -0.6148  0.4719
   57DOPE   O12 7239   7.112   1.067  13.103 -0.2215 -0.8236  0.2810
   57DOPE    C1 7240   7.141   1.360  13.249 -0.6138  0.0844 -0.1791
   57DOPE    HA 7241   7.163   1.464  13.218 -2.0294  0.3509 -0.3769
   57DOPE    HB 7242   7.238   1.306  13.247  0.2820  1.5952 -2.6016
   57DOPE    C2 7243   7.100   1.359  13.397 -0.2400 -0.1558 -0.1909
   57DOPE    HS 7244   7.160   1.432  13.456 -1.2211  1.6899 -1.3752
   57DOPE   O21 7245   7.111   1.227  13.438  0.2606 -0.5682  0.2530
   57DOPE   C21 7246   7.153   1.214  13.565  0.5713 -0.1456 -0.5036
   57DOPE   O22 7247   7.184   1.301  13.645  0.3069  0.3718  0.0938
   57DOPE   C22 7248   7.144   1.064  13.591  0.4691  0.2392  0.8368
   57DOPE   H2R 7249   7.207   1.003  13.521 -1.7176  1.2745 -2.2370
   57DOPE   H2S 7250   7.042   1.039  13.556  0.3889 -1.1562  1.9655
   57DOPE    C3 7251   6.953   1.407  13.399 -0.2409  0.0261 -0.5968
   57DOPE    HX 7252   6.893   1.343  13.331 -0.7139 -1.8707  1.4644
   57DOPE    HY 7253   6.938   1.508  13.357  0.1705  0.0723 -0.6358
   57DOPE   O31 7254   6.907   1.414  13.537  0.0077  0.6612  0.0760
   57DOPE   C31 7255   6.925   1.526  13.596 -0.3018  0.0148  0.9681
   57DOPE   O32 7256   7.006   1.610  13.557 -0.2828 -0.0205  0.1628
   57DOPE   C32 7257   6.833   1.527  13.722  0.2033 -0.5558 -0.7550
   57DOPE   H2X 7258   6.756   1.608  13.720 -0.6670 -1.2057  1.9265
   57DOPE   H2Y 7259   6.782   1.429  13.729 -0.1209 -0.2882  1.6450
   57DOPE   C23 7260   7.155   1.035  13.739 -0.7181 -0.1543  1.0570
   57DOPE   H3R 7261   7.251   1.076  13.777 -0.1027 -0.4922 -0.0703
   57DOPE   H3S 7262   7.177   0.927  13.742  3.7818  0.4734 -0.8182
   57DOPE   C24 7263   7.048   1.087  13.832 -0.0062 -0.5888 -0.5259
   57DOPE   H4R 7264   6.949   1.042  13.809 -0.4808 -1.0026  2.0235
   57DOPE   H4S 7265   7.038   1.196  13.815  1.9080 -0.4567 -1.0681
   57DOPE   C25 7266   7.075   1.069  13.985 -0.1070 -0.0356  0.4401
   57DOPE   H5R 7267   6.992   1.114  14.042  0.2848  1.2343  0.0275
   57DOPE   H5S 7268   7.169   1.119  14.017  0.4500 -1.0126  0.4007
   57DOPE   C26 7269   7.084   0.925  14.047  0.3774  0.0549  0.2183
   57DOPE   H6R 7270   7.179   0.883  14.009  0.5366 -1.5506  2.2093
   57DOPE   H6S 7271   7.004   0.865  13.997 -0.5028  0.7469  0.7552
   57DOPE   C27 7272   7.076   0.927  14.202  0.1662  0.8770  0.3644
   57DOPE   H7R 7273   7.154   0.992  14.246 -2.0276  2.2072  2.5306
   57DOPE   H7S 7274   7.108   0.825  14.233 -1.6475  0.8745  2.4533
   57DOPE   C28 7275   6.943   0.954  14.267 -0.0177  0.2497 -0.0558
   57DOPE   H8R 7276   6.875   0.875  14.227 -0.9330  1.0290 -0.0625
   57DOPE   H8S 7277   6.911   1.054  14.231 -0.3479 -0.2224 -1.1195
   57DOPE   C29 7278   6.958   0.954  14.416  0.3881  0.5384 -0.2176
   57DOPE   H9R 7279   7.004   1.043  14.462  1.0018  1.0080 -1.6770
   57DOPE  C210 7280   6.941   0.862  14.506  0.1527 -0.4070 -0.5832
   57DOPE  H10R 7281   6.956   0.890  14.612 -1.1584  0.9252 -0.7123
   57DOPE  C211 7282   6.901   0.719  14.483  0.6220  0.2678  0.6135
   57DOPE  H11R 7283   6.892   0.690  14.376 -0.6978 -0.3235  0.8594
   57DOPE  H11S 7284   6.793   0.713  14.509  0.4057  0.9697 -0.0660
   57DOPE  C212 7285   6.996   0.620  14.558  0.3463 -0.6856  0.0331
   57DOPE  H12R 7286   7.099   0.608  14.517  0.7335 -1.1798  1.1295
   57DOPE  H12S 7287   6.943   0.523  14.547  1.6483 -1.3455 -0.7656
   57DOPE  C213 7288   6.995   0.633  14.706 -0.6121  0.6509  0.8942
   57DOPE  H13R 7289   6.885   0.641  14.721 -0.8436 -3.8727  3.4433
   57DOPE  H13S 7290   7.048   0.726  14.732 -1.2847  2.0101 -2.1440
   57DOPE  C214 7291   7.036   0.500  14.777 -0.0070 -0.0809 -0.1560
   57DOPE  H14R 7292   7.140   0.487  14.739  0.4962 -1.3925  1.5203
   57DOPE  H14S 7293   6.969   0.419  14.742 -0.7592  0.3062  0.3659
   57DOPE  C215 7294   7.024   0.524  14.926 -0.0790 -0.4718 -0.3909
   57DOPE  H15R 7295   6.920   0.514  14.963  0.1239  0.3574  0.4543
   57DOPE  H15S 7296   7.061   0.623  14.960 -2.4742  0.2955  0.1697
   57DOPE  C216 7297   7.101   0.413  15.011  0.1116 -0.6888 -0.5007
   57DOPE  H16R 7298   7.083   0.321  14.951 -0.7326 -2.0646  1.7691
   57DOPE  H16S 7299   7.061   0.395  15.113 -0.4907 -2.5055 -1.0264
   57DOPE  C217 7300   7.249   0.432  15.008 -0.2055 -0.1476  0.0672
   57DOPE  H17R 7301   7.278   0.501  15.091  0.0332 -1.9532  1.5581
   57DOPE  H17S 7302   7.272   0.474  14.908 -0.9134  1.0558  0.3815
   57DOPE  C218 7303   7.342   0.306  15.019  0.4743  0.2014  0.6020
   57DOPE  H18R 7304   7.327   0.263  15.120  0.0458 -0.5449  0.2339
   57DOPE  H18S 7305   7.444   0.345  14.997  0.1935  0.1675 -0.8909
   57DOPE  H18T 7306   7.323   0.235  14.936  0.2512 -0.1289  0.9383
   57DOPE   C33 7307   6.924   1.557  13.853 -0.0214  0.4476  0.2944
   57DOPE   H3X 7308   6.952   1.664  13.861  2.9210 -0.1516 -0.7186
   57DOPE   H3Y 7309   7.016   1.496  13.843 -1.7058 -1.8971 -3.0992
   57DOPE   C34 7310   6.853   1.516  13.980 -0.8517  0.1010 -0.6831
   57DOPE   H4X 7311   6.764   1.579  13.996 -1.1014 -0.1548 -1.0431
   57DOPE   H4Y 7312   6.811   1.414  13.964 -0.2771  0.1192 -2.4908
   57DOPE   C35 7313   6.937   1.526  14.108 -0.9890 -0.4379 -0.0121
   57DOPE   H5X 7314   6.972   1.631  14.121 -0.4649 -0.7343  1.0696
   57DOPE   H5Y 7315   7.031   1.467  14.104 -0.8418 -0.1646 -0.6897
   57DOPE   C36 7316   6.851   1.470  14.226 -0.0600 -0.5087 -0.3137
   57DOPE   H6X 7317   6.845   1.360  14.222  3.3163 -0.8139  0.0820
   57DOPE   H6Y 7318   6.749   1.510  14.207 -0.1269  0.7307  2.2624
   57DOPE   C37 7319   6.897   1.518  14.373  0.0792  0.1601  0.3921
   57DOPE   H7X 7320   7.002   1.485  14.387 -0.0706 -0.7641 -0.4693
   57DOPE   H7Y 7321   6.889   1.628  14.387 -1.0651  0.0932  0.3867
   57DOPE   C38 7322   6.814   1.463  14.493  0.3663 -0.2386  0.1776
   57DOPE   H8X 7323   6.710   1.500  14.491  0.8487  1.2647  1.2192
   57DOPE   H8Y 7324   6.847   1.490  14.595 -0.6320  1.4195  0.0798
   57DOPE   C39 7325   6.800   1.312  14.492 -0.5479  0.3794  0.7615
   57DOPE   H9X 7326   6.834   1.255  14.405 -0.8283 -0.2452  1.0504
   57DOPE  C310 7327   6.774   1.229  14.595 -0.0854 -0.0480 -0.0492
   57DOPE  H10X 7328   6.765   1.120  14.581  0.1969 -0.0535 -0.1759
   57DOPE  C311 7329   6.710   1.277  14.719  0.0338 -0.5977  0.7550
   57DOPE  H11X 7330   6.773   1.249  14.806 -0.4636 -0.3558  1.1939
   57DOPE  H11Y 7331   6.705   1.388  14.715 -0.8362 -0.6460  0.2620
   57DOPE  C312 7332   6.570   1.228  14.745 -0.1340 -0.0384  0.0368
   57DOPE  H12X 7333   6.559   1.117  14.741  1.4429 -0.2595  0.9514
   57DOPE  H12Y 7334   6.509   1.261  14.659  0.5161  0.7952 -0.1208
   57DOPE  C313 7335   6.520   1.275  14.879 -0.4663  0.1490  0.2526
   57DOPE  H13X 7336   6.554   1.195  14.948 -2.5272 -0.2122  0.8940
   57DOPE  H13Y 7337   6.573   1.365  14.918  1.0337 -0.6275  0.0926
   57DOPE  C314 7338   6.366   1.291  14.884  0.0715  0.1359 -0.2459
   57DOPE  H14X 7339   6.326   1.188  14.882  1.4329 -0.6376  3.3793
   57DOPE  H14Y 7340   6.333   1.363  14.806 -1.5061 -0.2161  0.0748
   57DOPE  C315 7341   6.325   1.341  15.019 -0.0018  0.9699 -0.5006
   57DOPE  H15X 7342   6.335   1.451  15.030  1.3926  0.6577  2.9595
   57DOPE  H15Y 7343   6.404   1.293  15.083 -1.8853 -1.2683  0.2965
   57DOPE  C316 7344   6.187   1.296  15.065  0.0241  0.0229 -0.0832
   57DOPE  H16X 7345   6.192   1.185  15.056  1.9434 -0.1673  2.2844
   57DOPE  H16Y 7346   6.125   1.345  14.987  0.9756  2.2416  0.4799
   57DOPE  C317 7347   6.135   1.350  15.200 -0.9001 -0.2683  0.7409
   57DOPE  H17X 7348   6.123   1.460  15.184 -3.1495 -0.6721 -0.8710
   57DOPE  H17Y 7349   6.033   1.317  15.227 -1.0382 -2.3127 -1.9027
   57DOPE  C318 7350   6.229   1.312  15.311 -0.0164 -0.2575 -0.1517
   57DOPE  H18X 7351   6.222   1.202  15.330  0.2762 -0.1746  0.4353
   57DOPE  H18Y 7352   6.335   1.339  15.290  0.1226  0.0984  0.9354
   57DOPE  H18Z 7353   6.212   1.362  15.408  1.1777  0.1741 -0.1418
   58DOPE     N 7354   5.742   4.700  13.315 -0.3706  0.5594  0.1327
   58DOPE   HN1 7355   5.655   4.663  13.360  0.5218 -2.5370 -0.4216
   58DOPE   HN2 7356   5.716   4.742  13.223  0.7218  0.1724 -0.3664
   58DOPE   HN3 7357   5.799   4.616  13.292 -0.8541 -0.2670  1.7450
   58DOPE   C12 7358   5.798   4.800  13.412 -0.1429  0.1575  0.4158
   58DOPE  H12A 7359   5.874   4.860  13.358 -1.6256  0.8268 -0.9974
   58DOPE  H12B 7360   5.852   4.759  13.500 -1.5730  0.8868  1.6993
   58DOPE   C11 7361   5.690   4.912  13.444  0.1289 -0.1131  0.2166
   58DOPE  H11A 7362   5.737   4.970  13.526  1.0649 -0.4703 -0.0535
   58DOPE  H11B 7363   5.604   4.873  13.503  1.1395 -2.4941  0.2171
   58DOPE     P 7364   5.673   5.124  13.315 -0.3866 -0.3459 -0.1077
   58DOPE   O13 7365   5.564   5.194  13.239  0.3274  0.5158  0.3045
   58DOPE   O14 7366   5.809   5.138  13.262 -0.3721 -0.3368  0.1855
   58DOPE   O11 7367   5.679   5.186  13.459  0.0117 -0.2175  0.0162
   58DOPE   O12 7368   5.638   4.979  13.334 -0.1181 -0.8305 -0.4877
   58DOPE    C1 7369   5.574   5.214  13.549  0.4010 -0.0731  0.1259
   58DOPE    HA 7370   5.581   5.139  13.631  1.5291 -0.2265 -0.1018
   58DOPE    HB 7371   5.477   5.195  13.498  0.4739 -0.3892  0.1001
   58DOPE    C2 7372   5.581   5.355  13.606 -0.6574 -0.0247  0.0051
   58DOPE    HS 7373   5.603   5.430  13.527  0.8425 -1.2960 -0.8363
   58DOPE   O21 7374   5.691   5.356  13.704  0.9397 -0.5085  0.1458
   58DOPE   C21 7375   5.814   5.399  13.660  0.5051  0.4037  0.0343
   58DOPE   O22 7376   5.832   5.444  13.545  0.5768  0.3380 -0.2651
   58DOPE   C22 7377   5.920   5.345  13.753 -0.0891  0.4959 -0.3488
   58DOPE   H2R 7378   5.984   5.268  13.706  0.1420 -0.4116  1.3899
   58DOPE   H2S 7379   5.871   5.285  13.832  0.8786  0.6071  0.3518
   58DOPE    C3 7380   5.457   5.391  13.684  0.2397  0.2720 -0.4155
   58DOPE    HX 7381   5.476   5.490  13.730  0.4291  1.2110 -2.3980
   58DOPE    HY 7382   5.444   5.316  13.765 -0.3337  1.2342  0.4004
   58DOPE   O31 7383   5.334   5.363  13.605 -0.4333  0.6565  0.5354
   58DOPE   C31 7384   5.314   5.464  13.515  0.5355  0.1999 -0.0321
   58DOPE   O32 7385   5.379   5.568  13.509  1.0586  0.0720  0.0927
   58DOPE   C32 7386   5.200   5.430  13.423 -0.0161 -0.5353 -0.1255
   58DOPE   H2X 7387   5.238   5.395  13.325  2.0688  1.6680 -0.1737
   58DOPE   H2Y 7388   5.144   5.347  13.472  0.8137 -0.2104  1.4265
   58DOPE   C23 7389   6.017   5.444  13.817  0.7178 -0.3879 -0.0162
   58DOPE   H3R 7390   6.047   5.509  13.733  0.3088  1.0759  0.9275
   58DOPE   H3S 7391   6.106   5.388  13.852  1.4085 -0.6628 -2.0925
   58DOPE   C24 7392   5.966   5.519  13.938 -0.2349 -0.3356  0.4270
   58DOPE   H4R 7393   5.927   5.449  14.016  2.5749 -1.8425  0.5981
   58DOPE   H4S 7394   5.884   5.585  13.904 -1.0109 -1.4352  0.0886
   58DOPE   C25 7395   6.077   5.604  13.995  1.4867 -0.3957  0.2975
   58DOPE   H5R 7396   6.115   5.680  13.923  2.2042 -1.8210 -0.8871
   58DOPE   H5S 7397   6.162   5.547  14.038  1.3381 -0.7610  0.1137
   58DOPE   C26 7398   6.026   5.696  14.111 -0.2577  1.0014  0.0141
   58DOPE   H6R 7399   5.975   5.627  14.182 -1.3546  0.8659 -0.8632
   58DOPE   H6S 7400   5.941   5.756  14.071 -0.2574 -0.4764 -2.4462
   58DOPE   C27 7401   6.143   5.764  14.180  0.5152 -0.0950  0.4993
   58DOPE   H7R 7402   6.175   5.851  14.119 -0.3423  0.0777  0.2801
   58DOPE   H7S 7403   6.232   5.697  14.177  2.2142  2.0532  0.4779
   58DOPE   C28 7404   6.116   5.828  14.325  0.0640 -0.5670 -0.6814
   58DOPE   H8R 7405   6.021   5.885  14.317  2.8680  4.9728  0.7288
   58DOPE   H8S 7406   6.195   5.905  14.340 -0.2826  0.0281 -1.8056
   58DOPE   C29 7407   6.122   5.727  14.441  0.8599  0.5790 -0.5946
   58DOPE   H9R 7408   6.156   5.625  14.417  0.5275  0.1713  0.5838
   58DOPE  C210 7409   6.082   5.748  14.564 -0.2865 -0.4030 -0.2831
   58DOPE  H10R 7410   6.097   5.662  14.631 -0.8685 -1.6013 -1.6132
   58DOPE  C211 7411   6.037   5.879  14.619  0.8914 -0.4547  0.2241
   58DOPE  H11R 7412   5.943   5.866  14.678  0.4754  2.8127  0.4784
   58DOPE  H11S 7413   6.023   5.957  14.541  0.3703  0.7060  1.4366
   58DOPE  C212 7414   6.137   5.925  14.729 -0.2685 -0.0730  0.2106
   58DOPE  H12R 7415   6.236   5.912  14.682  0.2023  0.6908  0.9580
   58DOPE  H12S 7416   6.136   5.844  14.804 -0.4950 -0.5943 -0.3507
   58DOPE  C213 7417   6.114   6.063  14.798  0.6297 -1.2533 -0.0149
   58DOPE  H13R 7418   6.029   6.062  14.869  0.4983  0.8675 -0.0882
   58DOPE  H13S 7419   6.089   6.139  14.721  1.0191 -1.0958  0.0101
   58DOPE  C214 7420   6.240   6.102  14.871  0.3330 -1.0132  0.1800
   58DOPE  H14R 7421   6.227   6.203  14.916  0.2098 -1.5790  1.4603
   58DOPE  H14S 7422   6.315   6.114  14.790  0.3535  0.0468  0.3352
   58DOPE  C215 7423   6.286   6.007  14.990 -0.2510  0.5285  0.5369
   58DOPE  H15R 7424   6.274   5.903  14.955  0.9990  0.7742 -0.6674
   58DOPE  H15S 7425   6.208   6.015  15.070  0.9651  3.8049  1.5695
   58DOPE  C216 7426   6.412   6.053  15.052 -0.8439 -0.4863  0.4728
   58DOPE  H16R 7427   6.481   6.078  14.968  0.0563  0.6013  1.4848
   58DOPE  H16S 7428   6.447   5.975  15.123 -1.8533  0.2821  1.8821
   58DOPE  C217 7429   6.396   6.179  15.144  0.0933  0.1151 -0.3268
   58DOPE  H17R 7430   6.307   6.169  15.210  1.3100 -0.1554  1.3434
   58DOPE  H17S 7431   6.382   6.267  15.078 -1.0299  0.1616 -0.0479
   58DOPE  C218 7432   6.525   6.208  15.226  0.5013 -1.0540 -0.6693
   58DOPE  H18R 7433   6.519   6.312  15.265 -1.1119 -1.6396  0.7648
   58DOPE  H18S 7434   6.612   6.190  15.159 -0.5686 -0.4994 -2.2564
   58DOPE  H18T 7435   6.529   6.137  15.311 -2.4658 -1.2897 -0.6246
   58DOPE   C33 7436   5.105   5.542  13.391  0.2345 -0.2766 -0.1919
   58DOPE   H3X 7437   5.096   5.547  13.281  1.5659 -1.5721 -0.3888
   58DOPE   H3Y 7438   5.144   5.643  13.417 -1.6823  1.0609 -2.1768
   58DOPE   C34 7439   4.968   5.539  13.457 -0.6204 -0.0252 -0.2363
   58DOPE   H4X 7440   4.919   5.634  13.426 -0.8769 -0.3581 -0.8507
   58DOPE   H4Y 7441   4.910   5.455  13.415 -0.8012  0.5961 -1.2546
   58DOPE   C35 7442   4.954   5.514  13.610 -0.0263 -0.4580  0.0752
   58DOPE   H5X 7443   4.989   5.413  13.640 -0.7605 -0.4612  0.9491
   58DOPE   H5Y 7444   4.845   5.514  13.630  0.3553 -0.2918  2.4475
   58DOPE   C36 7445   5.019   5.631  13.691  0.2135  0.4059  0.0951
   58DOPE   H6X 7446   4.961   5.726  13.681 -3.9928 -1.7293  2.0333
   58DOPE   H6Y 7447   5.127   5.637  13.663  0.7541 -0.7505  1.7979
   58DOPE   C37 7448   5.031   5.593  13.843 -0.2194 -0.2981  0.7182
   58DOPE   H7X 7449   5.046   5.676  13.916  2.8639 -1.2850  1.3655
   58DOPE   H7Y 7450   4.937   5.540  13.870 -0.9826  0.2472 -0.7636
   58DOPE   C38 7451   5.154   5.505  13.873 -0.2000 -0.2815  0.1280
   58DOPE   H8X 7452   5.171   5.428  13.794 -0.9456 -0.8200  0.4800
   58DOPE   H8Y 7453   5.129   5.444  13.962  2.0355 -1.4886 -0.0157
   58DOPE   C39 7454   5.279   5.578  13.894  0.0658 -0.5296  0.0337
   58DOPE   H9X 7455   5.319   5.625  13.803 -0.3012 -0.2638  0.0112
   58DOPE  C310 7456   5.358   5.587  14.007  0.2254  0.0666  0.2149
   58DOPE  H10X 7457   5.451   5.646  14.008 -0.3542  1.2290 -2.9196
   58DOPE  C311 7458   5.332   5.537  14.145 -0.1495  0.9220 -0.2509
   58DOPE  H11X 7459   5.334   5.426  14.146 -1.5914  0.8627 -1.5463
   58DOPE  H11Y 7460   5.420   5.575  14.203 -0.8898  1.6967  0.3827
   58DOPE  C312 7461   5.204   5.576  14.209 -0.0195 -0.3538 -0.0574
   58DOPE  H12X 7462   5.121   5.580  14.136  1.5464  0.6681 -1.8832
   58DOPE  H12Y 7463   5.230   5.682  14.229  1.6825 -1.1253  2.2945
   58DOPE  C313 7464   5.157   5.510  14.337 -0.3470 -0.3161  0.2975
   58DOPE  H13X 7465   5.084   5.574  14.392  0.0005 -1.2124  1.8562
   58DOPE  H13Y 7466   5.120   5.408  14.315 -2.0040  0.5882 -1.4368
   58DOPE  C314 7467   5.279   5.490  14.426  0.2117  0.0505 -0.0588
   58DOPE  H14X 7468   5.327   5.590  14.431 -1.1101  0.6677  1.0216
   58DOPE  H14Y 7469   5.346   5.414  14.382  1.0790 -0.2163  1.6230
   58DOPE  C315 7470   5.261   5.446  14.572 -0.7916  0.2431  0.1993
   58DOPE  H15X 7471   5.360   5.412  14.611 -1.3051 -0.6284  0.7853
   58DOPE  H15Y 7472   5.192   5.359  14.575 -0.8589  0.3173  1.3247
   58DOPE  C316 7473   5.218   5.563  14.654  0.7874 -0.1212 -0.4458
   58DOPE  H16X 7474   5.120   5.592  14.611  0.7171 -0.5636 -0.5878
   58DOPE  H16Y 7475   5.286   5.651  14.662  0.4940 -0.0329  1.7387
   58DOPE  C317 7476   5.185   5.529  14.802  0.3171  0.4272 -0.2661
   58DOPE  H17X 7477   5.132   5.431  14.802  1.1676 -0.0700 -1.5279
   58DOPE  H17Y 7478   5.285   5.519  14.848 -0.4245  1.2055  1.6298
   58DOPE  C318 7479   5.116   5.631  14.884  1.0543 -0.4924 -0.8716
   58DOPE  H18X 7480   5.015   5.647  14.841  1.1325 -0.1912 -0.9468
   58DOPE  H18Y 7481   5.102   5.593  14.987 -0.1235 -1.0922 -1.2390
   58DOPE  H18Z 7482   5.167   5.730  14.885 -0.6069  0.3876 -0.5235
   59DOPE     N 7483   0.245   0.399  13.604 -0.0753 -0.3210  0.2143
   59DOPE   HN1 7484   0.326   0.446  13.649  0.7613 -2.7503  1.4204
   59DOPE   HN2 7485   0.191   0.354  13.680 -0.6193 -0.6708 -0.3730
   59DOPE   HN3 7486   0.262   0.336  13.524 -1.2028 -0.8881  0.4026
   59DOPE   C12 7487   0.143   0.496  13.546  0.1663 -0.1219  0.5592
   59DOPE  H12A 7488   0.196   0.549  13.464  1.8025 -1.1787  0.8662
   59DOPE  H12B 7489   0.117   0.560  13.633 -0.4297 -2.2675  2.0518
   59DOPE   C11 7490   0.013   0.422  13.512  0.5290  0.1628  0.1154
   59DOPE  H11A 7491   0.037   0.351  13.429  1.2570  0.4165  0.1016
   59DOPE  H11B 7492  -0.059   0.499  13.479  0.3521 -0.4436 -0.9745
   59DOPE     P 7493  -0.177   0.286  13.607  0.1113  0.0416 -0.0540
   59DOPE   O13 7494  -0.170   0.173  13.699 -0.2587 -0.0658  0.3819
   59DOPE   O14 7495  -0.215   0.258  13.469 -0.0995  0.4635 -0.0666
   59DOPE   O11 7496  -0.278   0.397  13.657  0.7168  0.4598 -0.6180
   59DOPE   O12 7497  -0.042   0.357  13.623 -0.3470 -0.1329  0.3023
   59DOPE    C1 7498  -0.275   0.446  13.787  0.3378  0.8907  0.9378
   59DOPE    HA 7499  -0.290   0.555  13.771 -2.0684  0.3991 -0.6809
   59DOPE    HB 7500  -0.174   0.439  13.833  0.4058  1.7483  0.9405
   59DOPE    C2 7501  -0.389   0.393  13.876 -0.1137  1.0886  0.0580
   59DOPE    HS 7502  -0.384   0.454  13.969  3.3718 -0.8089  1.3129
   59DOPE   O21 7503  -0.377   0.249  13.905  0.3140  0.2840  0.5196
   59DOPE   C21 7504  -0.281   0.219  13.989 -0.0896 -0.0871 -0.0403
   59DOPE   O22 7505  -0.226   0.301  14.060  0.1616  0.2194  0.2791
   59DOPE   C22 7506  -0.260   0.071  13.990 -0.0100 -0.3370 -0.4021
   59DOPE   H2R 7507  -0.172   0.053  13.924 -0.9364 -3.8129 -0.9214
   59DOPE   H2S 7508  -0.350   0.023  13.945  0.6246 -2.3887  0.3804
   59DOPE    C3 7509  -0.523   0.413  13.812  0.0160  0.1072 -0.4419
   59DOPE    HX 7510  -0.533   0.341  13.728 -3.2004 -0.6158  0.4439
   59DOPE    HY 7511  -0.532   0.519  13.778  0.0364  0.2640  0.0444
   59DOPE   O31 7512  -0.632   0.376  13.897  0.5187 -0.7331  0.0095
   59DOPE   C31 7513  -0.655   0.462  14.001 -0.3992 -0.5434  0.3815
   59DOPE   O32 7514  -0.590   0.562  14.024 -0.3163 -0.0255 -0.0731
   59DOPE   C32 7515  -0.779   0.424  14.069  0.2658  0.1529 -0.5662
   59DOPE   H2X 7516  -0.842   0.508  14.034  0.3471  0.9358  1.0838
   59DOPE   H2Y 7517  -0.819   0.326  14.036 -1.3087  0.1437  1.2079
   59DOPE   C23 7518  -0.222   0.024  14.129 -0.1251  0.3672  0.1176
   59DOPE   H3R 7519  -0.310   0.037  14.197  0.4060 -0.2481  0.9514
   59DOPE   H3S 7520  -0.152   0.095  14.177  0.9928 -1.2367  0.9628
   59DOPE   C24 7521  -0.166  -0.117  14.126 -0.2446  0.6358  0.0020
   59DOPE   H4R 7522  -0.077  -0.130  14.060 -1.5802  0.4810 -1.8285
   59DOPE   H4S 7523  -0.237  -0.188  14.078 -1.3430  1.9933 -0.4412
   59DOPE   C25 7524  -0.118  -0.179  14.263 -0.4771 -0.2186 -0.2655
   59DOPE   H5R 7525  -0.209  -0.191  14.325 -1.9300 -1.5055 -2.4939
   59DOPE   H5S 7526  -0.044  -0.106  14.303 -1.2549  0.0775  0.6604
   59DOPE   C26 7527  -0.057  -0.314  14.244 -0.1112 -0.2753  0.7453
   59DOPE   H6R 7528   0.034  -0.314  14.181  0.3694  0.9438  1.4012
   59DOPE   H6S 7529  -0.138  -0.383  14.211  0.5151 -1.0745  0.8628
   59DOPE   C27 7530  -0.005  -0.377  14.379  0.6711 -0.4876  0.1675
   59DOPE   H7R 7531  -0.078  -0.394  14.461  2.3144  1.4811  2.1726
   59DOPE   H7S 7532   0.071  -0.305  14.415  0.3472 -0.0445 -0.0225
   59DOPE   C28 7533   0.067  -0.506  14.352  0.3474  0.4270 -0.8260
   59DOPE   H8R 7534   0.099  -0.540  14.452  0.9962  2.6416 -0.2266
   59DOPE   H8S 7535   0.167  -0.484  14.308  0.8448  1.5533  0.7843
   59DOPE   C29 7536  -0.012  -0.616  14.284  0.1694 -0.1453 -0.1080
   59DOPE   H9R 7537  -0.062  -0.586  14.191 -0.3388 -1.1787 -0.1750
   59DOPE  C210 7538  -0.041  -0.734  14.338  0.1612  0.0290 -0.5275
   59DOPE  H10R 7539  -0.100  -0.812  14.289 -2.8599  1.0696  1.1736
   59DOPE  C211 7540  -0.010  -0.785  14.478  0.4925  0.6118  0.3682
   59DOPE  H11R 7541  -0.062  -0.703  14.533  2.5709  1.4725  1.1460
   59DOPE  H11S 7542   0.098  -0.778  14.501  0.1042 -0.0455  2.6610
   59DOPE  C212 7543  -0.084  -0.909  14.527  0.3352  0.0891 -0.1962
   59DOPE  H12R 7544  -0.040  -0.999  14.479  1.4508 -0.1319  1.1633
   59DOPE  H12S 7545  -0.191  -0.899  14.501 -0.2731 -1.7273  1.2989
   59DOPE  C213 7546  -0.070  -0.919  14.684 -0.1895  0.5110  0.0300
   59DOPE  H13R 7547  -0.093  -0.819  14.726  3.6648  2.0101 -0.9809
   59DOPE  H13S 7548   0.040  -0.932  14.701 -0.2046  0.3267 -0.0014
   59DOPE  C214 7549  -0.156  -1.026  14.745  0.4498 -0.6502 -0.9201
   59DOPE  H14R 7550  -0.137  -1.118  14.686  1.1092  0.0054 -1.7569
   59DOPE  H14S 7551  -0.263  -0.999  14.732 -0.6150 -4.4693 -1.2670
   59DOPE  C215 7552  -0.134  -1.047  14.895 -0.3520  0.0452 -0.6135
   59DOPE  H15R 7553  -0.177  -1.139  14.940  0.6461  1.1590  3.0180
   59DOPE  H15S 7554  -0.174  -0.958  14.948  1.6155  0.1113  0.8818
   59DOPE  C216 7555   0.018  -1.053  14.938 -0.3679 -0.5055  0.5148
   59DOPE  H16R 7556   0.077  -0.977  14.883 -1.5990 -0.7277 -1.2077
   59DOPE  H16S 7557   0.048  -1.153  14.900  0.2202 -1.2421  2.7492
   59DOPE  C217 7558   0.033  -1.045  15.088 -1.0178  0.1873  0.0571
   59DOPE  H17R 7559  -0.039  -1.110  15.142  0.3909 -0.6153  1.0253
   59DOPE  H17S 7560  -0.008  -0.942  15.101  0.1665  0.9756 -1.9399
   59DOPE  C218 7561   0.174  -1.064  15.145 -0.3352  0.8262 -0.8579
   59DOPE  H18R 7562   0.195  -1.172  15.162  0.5612  1.1473  0.1603
   59DOPE  H18S 7563   0.174  -1.016  15.245 -2.1066 -0.0652 -0.3722
   59DOPE  H18T 7564   0.260  -1.032  15.084  0.2238 -1.9600 -1.7075
   59DOPE   C33 7565  -0.769   0.434  14.222 -0.6515  0.3177  0.3650
   59DOPE   H3X 7566  -0.861   0.423  14.283  1.9982 -0.8200  4.5645
   59DOPE   H3Y 7567  -0.737   0.536  14.254 -2.0334  1.4091 -1.4620
   59DOPE   C34 7568  -0.670   0.327  14.282  0.2228  0.0409  0.0502
   59DOPE   H4X 7569  -0.687   0.328  14.392  2.3353  0.7929  0.4321
   59DOPE   H4Y 7570  -0.703   0.230  14.240 -0.2072  0.7054 -1.2050
   59DOPE   C35 7571  -0.523   0.350  14.254 -0.5495 -0.2936  1.2591
   59DOPE   H5X 7572  -0.497   0.457  14.270  0.2785 -0.4020  0.7125
   59DOPE   H5Y 7573  -0.508   0.333  14.145 -1.5704  2.9526  0.4927
   59DOPE   C36 7574  -0.429   0.272  14.347 -0.3079 -0.0615  0.3705
   59DOPE   H6X 7575  -0.323   0.282  14.314 -0.0879  1.6442  1.4702
   59DOPE   H6Y 7576  -0.456   0.165  14.332  1.0369 -0.2681 -0.8159
   59DOPE   C37 7577  -0.444   0.310  14.492  0.3383  0.2875 -0.2083
   59DOPE   H7X 7578  -0.426   0.419  14.503  1.4841 -0.0897  2.4005
   59DOPE   H7Y 7579  -0.550   0.313  14.527  0.2165  1.7976 -0.6171
   59DOPE   C38 7580  -0.350   0.233  14.588  0.0276  0.4095  0.1732
   59DOPE   H8X 7581  -0.344   0.284  14.686  1.5280  0.1504  0.2375
   59DOPE   H8Y 7582  -0.251   0.239  14.538 -0.5980  2.0131 -0.9542
   59DOPE   C39 7583  -0.413   0.096  14.611 -0.4227  0.0673  0.0780
   59DOPE   H9X 7584  -0.522   0.110  14.605 -0.5307 -0.8223 -0.3337
   59DOPE  C310 7585  -0.350  -0.012  14.657  0.6725  0.5876  0.3953
   59DOPE  H10X 7586  -0.407  -0.106  14.659  1.4323 -0.1836 -3.9094
   59DOPE  C311 7587  -0.202  -0.035  14.676 -0.8298 -0.6429 -0.5149
   59DOPE  H11X 7588  -0.174  -0.142  14.660  1.7880  0.1938 -2.1637
   59DOPE  H11Y 7589  -0.153   0.031  14.602 -3.8777 -0.6990 -2.7477
   59DOPE  C312 7590  -0.159   0.003  14.827 -0.5436  0.3360  0.7257
   59DOPE  H12X 7591  -0.223  -0.061  14.892  0.6789  0.8146  2.4834
   59DOPE  H12Y 7592  -0.169   0.110  14.851  1.7614  0.3395  1.9967
   59DOPE  C313 7593  -0.010  -0.033  14.853 -0.4976 -0.1200  0.2538
   59DOPE  H13X 7594  -0.012  -0.144  14.854 -2.4909 -0.1287  1.4034
   59DOPE  H13Y 7595   0.065   0.003  14.780  0.4782 -1.5450  0.5076
   59DOPE  C314 7596   0.031   0.018  14.992  0.4616  0.1373 -0.8132
   59DOPE  H14X 7597  -0.049  -0.028  15.054  0.9420  0.6208  0.1733
   59DOPE  H14Y 7598   0.030   0.129  15.001 -1.5128  0.2471 -1.7632
   59DOPE  C315 7599   0.165  -0.027  15.037  0.6527  0.1455 -0.7055
   59DOPE  H15X 7600   0.232   0.024  14.964 -0.4553  0.6140 -1.4284
   59DOPE  H15Y 7601   0.172  -0.138  15.032  1.0524  0.0214  1.5737
   59DOPE  C316 7602   0.201   0.027  15.178  0.4398 -0.0652 -0.0225
   59DOPE  H16X 7603   0.167   0.130  15.204 -1.2613 -1.0855  2.1291
   59DOPE  H16Y 7604   0.312   0.023  15.176  0.4094 -1.4495  0.0661
   59DOPE  C317 7605   0.157  -0.060  15.298 -0.2145  0.7148  0.3857
   59DOPE  H17X 7606   0.139  -0.165  15.264  3.7342  0.2110 -0.5886
   59DOPE  H17Y 7607   0.232  -0.077  15.378 -2.1151 -1.8102  1.7995
   59DOPE  C318 7608   0.028  -0.005  15.362  0.4276  0.3613 -0.5289
   59DOPE  H18X 7609   0.037   0.087  15.424 -0.6083 -0.4054  0.8240
   59DOPE  H18Y 7610  -0.051   0.001  15.284 -0.2435  1.6995  0.2081
   59DOPE  H18Z 7611  -0.015  -0.076  15.435  0.0147  1.8330  0.7226
   60DOPE     N 7612   0.737   6.220  13.403  0.0776  1.0888 -0.4543
   60DOPE   HN1 7613   0.666   6.294  13.387  0.0906  0.7199 -2.3888
   60DOPE   HN2 7614   0.693   6.127  13.414  0.2879  0.8986 -1.2015
   60DOPE   HN3 7615   0.794   6.232  13.490 -0.1163 -1.6121  0.1156
   60DOPE   C12 7616   0.822   6.194  13.286 -0.3614  0.2972  0.0725
   60DOPE  H12A 7617   0.918   6.146  13.315  0.3885  1.1621 -0.8970
   60DOPE  H12B 7618   0.847   6.291  13.237 -0.2092 -0.6182 -1.7437
   60DOPE   C11 7619   0.743   6.111  13.189  0.9834  0.0988  0.3135
   60DOPE  H11A 7620   0.802   6.102  13.095 -0.5726 -2.0674 -0.5586
   60DOPE  H11B 7621   0.650   6.167  13.163  0.2988 -1.3970 -0.6272
   60DOPE     P 7622   0.566   5.940  13.274  0.1458 -0.4140 -0.4275
   60DOPE   O13 7623   0.574   5.795  13.321  0.0946  0.0865  0.3163
   60DOPE   O14 7624   0.454   5.968  13.182  0.1485  0.0628  0.3083
   60DOPE   O11 7625   0.569   6.029  13.405 -0.1863  0.3623 -0.5661
   60DOPE   O12 7626   0.708   5.970  13.227 -0.7274 -0.1535  0.3101
   60DOPE    C1 7627   0.443   6.037  13.481  0.5355 -0.2016 -0.0538
   60DOPE    HA 7628   0.384   5.943  13.484 -1.4990  1.0077 -0.2236
   60DOPE    HB 7629   0.380   6.123  13.448  1.3860  1.3690  2.1769
   60DOPE    C2 7630   0.458   6.076  13.638  0.2874  0.1980  0.2288
   60DOPE    HS 7631   0.526   6.162  13.649  2.7924 -1.6943  0.4339
   60DOPE   O21 7632   0.518   5.955  13.692  0.0120  0.3372  0.0660
   60DOPE   C21 7633   0.647   5.945  13.668 -0.1779 -0.0952 -0.3407
   60DOPE   O22 7634   0.720   6.031  13.622  0.7143 -0.0406  0.0659
   60DOPE   C22 7635   0.697   5.803  13.705 -0.5236  0.4995  0.1860
   60DOPE   H2R 7636   0.794   5.799  13.651 -0.6611  0.7820 -0.0875
   60DOPE   H2S 7637   0.624   5.731  13.664 -0.8122  0.3969  0.8767
   60DOPE    C3 7638   0.329   6.095  13.709  0.0294  0.2022  0.5392
   60DOPE    HX 7639   0.280   5.996  13.715 -0.5289  0.4370 -0.0989
   60DOPE    HY 7640   0.262   6.154  13.644  0.0025 -2.4048 -1.9959
   60DOPE   O31 7641   0.351   6.157  13.837 -0.3990 -0.1645  0.7231
   60DOPE   C31 7642   0.347   6.287  13.853  0.7821 -0.1523 -0.7147
   60DOPE   O32 7643   0.336   6.371  13.766 -0.2180 -0.4655 -0.1017
   60DOPE   C32 7644   0.345   6.326  14.008 -0.1567  0.5033 -0.0964
   60DOPE   H2X 7645   0.314   6.231  14.055 -0.8522  1.5109  1.5786
   60DOPE   H2Y 7646   0.452   6.336  14.035  0.5465  2.0063 -2.9639
   60DOPE   C23 7647   0.720   5.792  13.852 -0.4437 -0.2388  0.0276
   60DOPE   H3R 7648   0.720   5.686  13.886 -2.7089 -0.6040 -0.8724
   60DOPE   H3S 7649   0.633   5.827  13.912 -0.5278  1.3638 -0.9707
   60DOPE   C24 7650   0.840   5.870  13.906  0.4502  0.3849  0.0447
   60DOPE   H4R 7651   0.824   5.884  14.015 -2.1121  0.9024 -0.3276
   60DOPE   H4S 7652   0.845   5.972  13.863  2.1748  0.3919  0.2165
   60DOPE   C25 7653   0.971   5.796  13.881  0.3368 -0.2926 -0.1550
   60DOPE   H5R 7654   1.050   5.870  13.853 -1.6829  1.9984 -0.1664
   60DOPE   H5S 7655   0.960   5.729  13.793  0.5677  0.9626 -1.1741
   60DOPE   C26 7656   1.011   5.703  13.988 -0.2309  0.4705 -0.2249
   60DOPE   H6R 7657   0.930   5.632  14.013  0.2771  0.1270  0.4981
   60DOPE   H6S 7658   1.028   5.759  14.082  0.0664  2.2040 -1.2694
   60DOPE   C27 7659   1.132   5.610  13.949 -0.5419  0.0204 -0.3621
   60DOPE   H7R 7660   1.129   5.584  13.841 -0.4499  0.8370 -0.5667
   60DOPE   H7S 7661   1.123   5.522  14.017 -0.8770  0.5138  0.2450
   60DOPE   C28 7662   1.268   5.670  13.971  0.0823  0.4128  0.3394
   60DOPE   H8R 7663   1.269   5.696  14.079 -3.2804  1.0477  0.3222
   60DOPE   H8S 7664   1.275   5.769  13.921  0.7642 -0.1548 -0.7282
   60DOPE   C29 7665   1.382   5.581  13.933  0.3827 -0.7689 -0.0036
   60DOPE   H9R 7666   1.409   5.587  13.827  0.4809  0.6533  0.0744
   60DOPE  C210 7667   1.455   5.512  14.019  0.5440  0.4578  0.6130
   60DOPE  H10R 7668   1.542   5.462  13.974 -1.0234 -0.4617 -1.5345
   60DOPE  C211 7669   1.438   5.496  14.164  0.2614 -0.1037 -0.8336
   60DOPE  H11R 7670   1.404   5.592  14.210  1.4831 -0.6855  1.4247
   60DOPE  H11S 7671   1.537   5.487  14.213  0.1719 -2.2961 -0.9719
   60DOPE  C212 7672   1.334   5.387  14.201 -0.4032  0.0507  0.5392
   60DOPE  H12R 7673   1.357   5.294  14.145  0.1724  1.3215 -1.4488
   60DOPE  H12S 7674   1.230   5.423  14.181 -0.8742 -0.2311  2.3270
   60DOPE  C213 7675   1.340   5.348  14.352 -0.2385  0.1349  0.3398
   60DOPE  H13R 7676   1.256   5.280  14.378 -0.6187  0.4521 -0.0680
   60DOPE  H13S 7677   1.338   5.444  14.408  0.2310  0.3223  0.0449
   60DOPE  C214 7678   1.469   5.261  14.373 -0.2093  0.5257  0.2102
   60DOPE  H14R 7679   1.558   5.318  14.342 -0.8287  1.6065  0.3641
   60DOPE  H14S 7680   1.469   5.179  14.297  0.3572 -0.1955  0.9686
   60DOPE  C215 7681   1.491   5.205  14.523  0.1356 -0.5290  0.0914
   60DOPE  H15R 7682   1.399   5.153  14.558 -0.1840 -0.9246 -1.2902
   60DOPE  H15S 7683   1.496   5.292  14.593 -1.1032 -0.3337 -0.0300
   60DOPE  C216 7684   1.618   5.127  14.537 -0.6205 -0.4463  0.1504
   60DOPE  H16R 7685   1.700   5.201  14.530 -2.6031  1.9182  0.3890
   60DOPE  H16S 7686   1.636   5.058  14.451 -0.5539  1.2498 -1.2548
   60DOPE  C217 7687   1.623   5.063  14.674 -0.6655  0.1224 -0.1693
   60DOPE  H17R 7688   1.551   4.978  14.674  1.3721 -1.6868 -0.2488
   60DOPE  H17S 7689   1.584   5.134  14.750  2.1690  2.3879 -0.6800
   60DOPE  C218 7690   1.759   5.011  14.717 -0.3212  0.1104 -0.3688
   60DOPE  H18R 7691   1.800   4.945  14.638 -1.1041  0.6610 -1.2525
   60DOPE  H18S 7692   1.751   4.946  14.807  1.2029  2.2503  1.4542
   60DOPE  H18T 7693   1.826   5.098  14.738  0.1941 -0.2291 -0.5998
   60DOPE   C33 7694   0.257   6.451  14.038  0.1898 -0.0253  0.5968
   60DOPE   H3X 7695   0.153   6.413  14.046 -0.0308  0.2395 -0.7994
   60DOPE   H3Y 7696   0.259   6.536  13.967  1.7141 -0.6017 -0.1103
   60DOPE   C34 7697   0.304   6.515  14.173 -0.7009 -0.0153 -1.1007
   60DOPE   H4X 7698   0.409   6.549  14.161 -0.8630  2.1166  2.0348
   60DOPE   H4Y 7699   0.243   6.605  14.197 -0.2253 -0.0848  0.4802
   60DOPE   C35 7700   0.305   6.415  14.284 -0.5874 -0.4317 -0.3788
   60DOPE   H5X 7701   0.381   6.338  14.259 -1.9408 -1.1342 -2.7253
   60DOPE   H5Y 7702   0.211   6.356  14.288  0.3029 -1.8307  0.9245
   60DOPE   C36 7703   0.332   6.479  14.427 -0.0015  0.7263  0.1843
   60DOPE   H6X 7704   0.372   6.581  14.412 -1.6402  1.3626  0.0069
   60DOPE   H6Y 7705   0.393   6.414  14.493 -0.7903  0.0313  0.2442
   60DOPE   C37 7706   0.206   6.496  14.517 -0.5087 -0.1860  0.1877
   60DOPE   H7X 7707   0.247   6.582  14.575  3.1148 -0.4037 -1.7614
   60DOPE   H7Y 7708   0.123   6.538  14.455  0.1851  1.1768  0.1317
   60DOPE   C38 7709   0.168   6.374  14.606  0.9194  0.2039 -0.3833
   60DOPE   H8X 7710   0.100   6.418  14.683  0.8975  1.0090 -0.8548
   60DOPE   H8Y 7711   0.261   6.345  14.659  1.4669 -0.1641 -1.5186
   60DOPE   C39 7712   0.108   6.272  14.520  1.0376  0.3161  0.1259
   60DOPE   H9X 7713   0.036   6.311  14.446 -0.2458  0.0963  1.2288
   60DOPE  C310 7714   0.146   6.145  14.511  0.5288 -0.4997 -0.6683
   60DOPE  H10X 7715   0.088   6.073  14.452 -1.6332  0.1952  0.4848
   60DOPE  C311 7716   0.247   6.084  14.605 -0.3312  0.0705  0.7409
   60DOPE  H11X 7717   0.293   6.001  14.547  0.8575  1.8926 -1.0601
   60DOPE  H11Y 7718   0.334   6.144  14.639  0.2007 -0.4399  0.2940
   60DOPE  C312 7719   0.178   6.028  14.734  0.4391  0.5917 -0.2797
   60DOPE  H12X 7720   0.110   5.945  14.705  0.6927  0.4908 -0.5855
   60DOPE  H12Y 7721   0.123   6.104  14.792  0.0893 -1.1218  1.7711
   60DOPE  C313 7722   0.276   5.960  14.830  0.3708 -0.1283  0.5832
   60DOPE  H13X 7723   0.321   5.877  14.771 -0.5603 -0.5778  0.4886
   60DOPE  H13Y 7724   0.357   6.030  14.861  0.0385  1.5587 -2.0812
   60DOPE  C314 7725   0.209   5.894  14.954 -0.3111 -0.1910 -0.2897
   60DOPE  H14X 7726   0.144   5.815  14.911  0.1028 -0.5777 -0.2072
   60DOPE  H14Y 7727   0.145   5.961  15.015 -0.3780  0.2918 -0.8855
   60DOPE  C315 7728   0.316   5.806  15.030 -0.4277 -0.5978  0.6190
   60DOPE  H15X 7729   0.379   5.755  14.954  0.2090 -1.4204  1.6728
   60DOPE  H15Y 7730   0.277   5.711  15.073 -2.0631 -1.2218 -1.9882
   60DOPE  C316 7731   0.411   5.890  15.115 -0.2146 -0.1689 -0.1951
   60DOPE  H16X 7732   0.352   5.921  15.204 -2.4153 -1.3159 -1.1676
   60DOPE  H16Y 7733   0.432   5.978  15.050  1.4211 -0.0626  0.4319
   60DOPE  C317 7734   0.545   5.833  15.161 -0.0103  0.2522 -0.2429
   60DOPE  H17X 7735   0.606   5.791  15.077  0.3642  1.4785 -0.6067
   60DOPE  H17Y 7736   0.606   5.917  15.201 -2.7541  1.9333  0.6366
   60DOPE  C318 7737   0.532   5.720  15.270 -0.1557  0.2060  0.6534
   60DOPE  H18X 7738   0.627   5.669  15.294  0.0885  1.1380  1.7239
   60DOPE  H18Y 7739   0.501   5.757  15.370  0.2132 -3.4385  2.2819
   60DOPE  H18Z 7740   0.457   5.646  15.234 -0.9195  0.9636  0.6587
   6123SM     N 7741   1.545   3.570  17.546 -0.0393 -0.1815  0.3353
   6123SM   C15 7742   1.421   3.646  17.595 -0.3023  0.1160 -0.6071
   6123SM  H15A 7743   1.337   3.580  17.612 -0.6935  0.5986 -0.6384
   6123SM  H15B 7744   1.395   3.723  17.524  3.2709  1.2159 -0.9065
   6123SM  H15C 7745   1.457   3.706  17.677 -0.6362  0.8331 -0.9764
   6123SM   C14 7746   1.645   3.672  17.484  0.6856 -0.3207 -0.8022
   6123SM  H14A 7747   1.738   3.622  17.459  0.6323 -0.9828  0.2545
   6123SM  H14B 7748   1.651   3.756  17.551 -0.8199 -1.7472  1.2697
   6123SM  H14C 7749   1.602   3.701  17.389 -0.1082 -2.7549 -1.2669
   6123SM   C13 7750   1.604   3.502  17.660  0.7815 -0.6475 -0.5058
   6123SM  H13A 7751   1.684   3.560  17.705 -1.6009  1.8515  0.7956
   6123SM  H13B 7752   1.655   3.413  17.626  0.3152 -0.2478 -2.3585
   6123SM  H13C 7753   1.541   3.486  17.746  2.3704 -2.6526  0.3800
   6123SM   C12 7754   1.501   3.460  17.442  0.4584  0.3718 -0.2592
   6123SM  H12A 7755   1.434   3.388  17.488  0.9160  0.9181  1.3175
   6123SM  H12B 7756   1.586   3.399  17.414 -0.6960 -2.0943  1.2722
   6123SM   C11 7757   1.432   3.501  17.308 -0.7074  0.6076  0.0480
   6123SM  H11A 7758   1.345   3.561  17.343 -1.7400  0.5976 -2.3628
   6123SM  H11B 7759   1.409   3.410  17.249  0.6698  1.4524 -1.8699
   6123SM     P 7760   1.654   3.551  17.166 -0.1759 -0.5760 -0.1392
   6123SM   O13 7761   1.721   3.685  17.156  0.2723 -0.0150  0.0432
   6123SM   O14 7762   1.725   3.447  17.250 -0.0341 -0.0411  0.2861
   6123SM   O11 7763   1.618   3.498  17.019  0.1911  0.1663 -0.3706
   6123SM   O12 7764   1.517   3.593  17.242 -0.8391 -0.3082  0.1370
   6123SM   C1S 7765   1.572   3.600  16.926  0.0771 -0.3847 -0.3272
   6123SM   H1S 7766   1.638   3.689  16.922 -0.9361  0.3707 -0.5414
   6123SM   H1T 7767   1.468   3.630  16.952  0.1789  0.1740 -0.5564
   6123SM    NF 7768   1.565   3.639  16.678  0.0469  0.5312 -0.0006
   6123SM   HNF 7769   1.472   3.672  16.662  0.3110  1.4094  0.2216
   6123SM   C2S 7770   1.573   3.531  16.782 -0.6334 -0.5769  0.5086
   6123SM   H2S 7771   1.672   3.482  16.777 -0.3429 -0.4963  3.6128
   6123SM   C3S 7772   1.463   3.418  16.778 -0.8249  0.4130 -0.3019
   6123SM   H3S 7773   1.368   3.462  16.816 -0.2145  1.3137  0.2114
   6123SM    O3 7774   1.476   3.308  16.872  0.4536  0.0245  0.7042
   6123SM   HO3 7775   1.541   3.345  16.932  0.7377 -0.2254  0.5556
   6123SM   C4S 7776   1.453   3.364  16.637 -0.3095  0.4104 -1.3301
   6123SM   H4S 7777   1.556   3.346  16.605  0.7063 -4.0059  3.1147
   6123SM   C5S 7778   1.350   3.343  16.553 -0.0266  0.5966 -0.3881
   6123SM   H5S 7779   1.244   3.361  16.576 -0.9664 -2.8848 -1.3852
   6123SM   C6S 7780   1.364   3.277  16.421 -0.3619 -0.1470 -0.4628
   6123SM   H6S 7781   1.298   3.329  16.349  0.4044  0.3210 -0.8458
   6123SM   H6T 7782   1.334   3.170  16.418  0.4207 -0.3708 -0.7065
   6123SM   C7S 7783   1.500   3.296  16.347 -0.5317  0.5231 -0.2612
   6123SM   H7S 7784   1.577   3.228  16.390  2.5373  3.0414 -1.3643
   6123SM   H7T 7785   1.532   3.401  16.362  1.0004  0.2533 -1.3449
   6123SM   C8S 7786   1.492   3.251  16.202  0.1151  0.8371  0.1686
   6123SM   H8S 7787   1.428   3.321  16.144 -0.0463  0.0974 -0.5723
   6123SM   H8T 7788   1.434   3.157  16.211 -0.3201  1.2259  1.7475
   6123SM   C9S 7789   1.631   3.226  16.139  0.2789 -0.8411  0.3213
   6123SM   H9S 7790   1.696   3.156  16.196 -0.2832 -1.4387  0.2358
   6123SM   H9T 7791   1.694   3.317  16.135 -0.0728 -0.6539 -1.8173
   6123SM  C10S 7792   1.613   3.161  15.998 -0.4436 -0.0059 -0.5479
   6123SM  H10S 7793   1.548   3.224  15.933 -0.7415 -1.5521 -1.8087
   6123SM  H10T 7794   1.549   3.072  16.014 -0.1425  0.1863  2.2653
   6123SM  C11S 7795   1.749   3.133  15.936  0.2034  0.1129  0.0596
   6123SM  H11S 7796   1.793   3.046  15.989 -0.1848  0.1604  0.4618
   6123SM  H11T 7797   1.815   3.223  15.943  0.9900 -0.6068  2.7351
   6123SM  C12S 7798   1.735   3.098  15.781  0.1858  0.2008 -0.6064
   6123SM  H12S 7799   1.685   3.182  15.727  1.4060  0.8447 -0.7802
   6123SM  H12T 7800   1.679   3.002  15.786  1.7950 -0.7434 -0.0437
   6123SM  C13S 7801   1.874   3.086  15.708 -0.1607  0.3250 -0.0463
   6123SM  H13S 7802   1.933   3.024  15.778  0.2305  0.7035 -0.0434
   6123SM  H13T 7803   1.926   3.184  15.709 -0.2582  0.4184 -1.5680
   6123SM  C14S 7804   1.851   3.020  15.572  0.1683 -0.1232  0.0196
   6123SM  H14S 7805   1.791   3.085  15.505 -0.2158 -0.7651 -0.2722
   6123SM  H14T 7806   1.785   2.932  15.586 -2.4318  1.8072  0.6833
   6123SM  C15S 7807   1.980   2.996  15.500  0.0453  0.2195 -0.1013
   6123SM  H15S 7808   2.041   2.918  15.551 -1.0708  1.4557  3.4411
   6123SM  H15T 7809   2.040   3.088  15.520  1.8878 -0.9927  0.1959
   6123SM  C16S 7810   1.978   2.972  15.354  0.2869  0.0057  0.7035
   6123SM  H16S 7811   1.951   3.066  15.300 -0.3985 -0.2795  0.5462
   6123SM  H16T 7812   1.902   2.896  15.327  1.5697 -0.2340 -2.9269
   6123SM  C17S 7813   2.119   2.913  15.308 -0.1387  1.1114  0.4633
   6123SM  H17S 7814   2.202   2.971  15.353 -0.1099  0.7651  0.8632
   6123SM  H17T 7815   2.124   2.916  15.197 -0.6583 -0.9375  0.3384
   6123SM  C18S 7816   2.144   2.762  15.336 -0.4805  0.1323  0.2455
   6123SM  H18S 7817   2.232   2.729  15.277 -1.2126 -0.8160 -0.3535
   6123SM  H18T 7818   2.064   2.687  15.320  0.8008 -1.8611  2.3912
   6123SM  H18U 7819   2.174   2.751  15.443  1.7561 -1.4624 -0.4683
   6123SM   C1F 7820   1.671   3.717  16.657  0.2080  0.1556 -0.3143
   6123SM    OF 7821   1.777   3.695  16.715  0.1429 -0.1136  0.1912
   6123SM   C2F 7822   1.648   3.841  16.573 -0.3822 -0.6381  0.0051
   6123SM   H2F 7823   1.657   3.928  16.641 -1.4026  0.3960 -1.1479
   6123SM   H2G 7824   1.547   3.844  16.527 -0.2791 -0.5410 -0.2182
   6123SM   C3F 7825   1.748   3.860  16.458 -1.1944  0.4280  0.0710
   6123SM   H3F 7826   1.847   3.892  16.498 -0.7329  1.1950 -1.6021
   6123SM   H3G 7827   1.711   3.944  16.396  0.0007  0.6674 -0.3394
   6123SM   C4F 7828   1.754   3.739  16.362  0.2637  0.2440  0.1112
   6123SM   H4F 7829   1.783   3.645  16.412  0.7481 -0.1715 -0.9065
   6123SM   H4G 7830   1.825   3.771  16.282 -1.3072  0.8495 -1.0843
   6123SM   C5F 7831   1.611   3.722  16.288  0.0719  0.0122  0.1832
   6123SM   H5F 7832   1.578   3.825  16.262  1.3468  1.1128  2.6327
   6123SM   H5G 7833   1.536   3.679  16.358 -2.3026  2.1025 -0.9015
   6123SM   C6F 7834   1.606   3.628  16.166  0.2971 -0.6963 -0.0815
   6123SM   H6F 7835   1.640   3.530  16.206 -0.9782 -1.9054 -1.8027
   6123SM   H6G 7836   1.675   3.664  16.086 -0.5416  1.4299  0.0810
   6123SM   C7F 7837   1.468   3.628  16.094 -0.0417 -0.1473  0.0163
   6123SM   H7F 7838   1.437   3.731  16.067 -4.9169 -0.9326  1.7436
   6123SM   H7G 7839   1.391   3.592  16.165  1.5770 -0.2922  1.8019
   6123SM   C8F 7840   1.486   3.547  15.969 -0.6656 -0.1159 -0.5696
   6123SM   H8F 7841   1.500   3.440  15.997  1.5390  0.2776  0.0114
   6123SM   H8G 7842   1.576   3.586  15.918 -1.0079 -1.7780 -2.6195
   6123SM   C9F 7843   1.364   3.558  15.873  0.0048 -0.3719 -0.5551
   6123SM   H9F 7844   1.331   3.662  15.853 -0.0283  0.0089  1.3070
   6123SM   H9G 7845   1.277   3.499  15.909  1.1198 -0.9842  1.3256
   6123SM  C10F 7846   1.412   3.517  15.731 -0.1490 -0.1055 -0.4426
   6123SM  H10F 7847   1.453   3.414  15.745 -1.4197 -0.7790 -1.3878
   6123SM  H10G 7848   1.491   3.589  15.702  0.8834 -0.8879  0.3327
   6123SM  C11F 7849   1.295   3.524  15.632  0.3497 -0.0307  0.0662
   6123SM  H11F 7850   1.232   3.616  15.633  1.2250  0.5669  0.3698
   6123SM  H11G 7851   1.218   3.448  15.658 -0.3479  1.2669  1.9951
   6123SM  C12F 7852   1.344   3.498  15.487  0.3475 -0.3003  0.2345
   6123SM  H12F 7853   1.348   3.389  15.465 -2.4354 -0.4202 -0.0275
   6123SM  H12G 7854   1.446   3.536  15.465  0.7862 -0.6665  1.5719
   6123SM  C13F 7855   1.236   3.544  15.385 -0.1369 -0.1657 -0.0162
   6123SM  H13F 7856   1.214   3.650  15.412  2.5611  0.2628  0.7610
   6123SM  H13G 7857   1.147   3.478  15.396 -1.6212  1.7374  0.0223
   6123SM  C14F 7858   1.300   3.531  15.241 -0.3428 -0.7100  0.2424
   6123SM  H14F 7859   1.309   3.425  15.210  3.7740  0.1686 -2.2792
   6123SM  H14G 7860   1.401   3.576  15.242 -1.5114  2.5658 -2.9293
   6123SM  C15F 7861   1.227   3.636  15.146  1.0280  0.2673  0.4415
   6123SM  H15F 7862   1.285   3.671  15.058 -0.4551  1.3026 -0.1737
   6123SM  H15G 7863   1.204   3.725  15.209 -1.6263 -0.4281  0.5841
   6123SM  C16F 7864   1.088   3.582  15.105  0.3685  0.4337  0.4107
   6123SM  H16F 7865   1.028   3.543  15.189 -1.1076  0.7078 -0.4675
   6123SM  H16G 7866   1.101   3.508  15.023 -0.7230  1.3034 -0.5815
   6123SM  C17F 7867   1.011   3.693  15.038 -0.0214 -0.0847 -0.5250
   6123SM  H17F 7868   1.067   3.730  14.950 -0.2365  0.8697 -0.2639
   6123SM  H17G 7869   0.995   3.778  15.108  0.5752 -0.8649  0.6027
   6123SM  C18F 7870   0.875   3.639  14.980 -0.2404 -0.6975  0.0485
   6123SM  H18F 7871   0.831   3.573  15.058 -1.3723  1.1974  1.0918
   6123SM  H18G 7872   0.897   3.574  14.893 -0.5090  1.0481 -1.3769
   6123SM  C19F 7873   0.777   3.736  14.928 -0.1086 -0.5171  0.0208
   6123SM  H19F 7874   0.817   3.793  14.841  2.7766 -2.6046 -0.1946
   6123SM  H19G 7875   0.747   3.814  15.001  2.1993  3.0815 -2.4931
   6123SM  C20F 7876   0.646   3.662  14.895 -0.0990  0.4712  0.1197
   6123SM  H20F 7877   0.568   3.739  14.915 -0.2871  0.5099 -0.7452
   6123SM  H20G 7878   0.617   3.586  14.970  1.6968 -1.0459 -0.6383
   6123SM  C21F 7879   0.629   3.628  14.750 -0.2457  0.5158 -0.5966
   6123SM  H21F 7880   0.705   3.554  14.716  0.0732  0.5251  0.0777
   6123SM  H21G 7881   0.657   3.719  14.694 -0.7850  1.5896  0.8091
   6123SM  C22F 7882   0.492   3.581  14.715 -0.3218 -0.2722 -0.2159
   6123SM  H22F 7883   0.425   3.664  14.744  0.6226  0.6361 -0.5875
   6123SM  H22G 7884   0.468   3.479  14.754  0.8911  0.0175  1.4047
   6123SM  C23F 7885   0.489   3.568  14.564  0.1521 -0.0526  0.4108
   6123SM  H23F 7886   0.388   3.540  14.525  0.7396 -0.5863 -0.7701
   6123SM  H23G 7887   0.558   3.485  14.538  1.4009  0.7447  1.0856
   6123SM  H23H 7888   0.523   3.659  14.511 -1.3774 -0.1598 -0.8569
   6223SM     N 7889   0.579   2.376  17.283 -0.3034 -0.2069 -0.0440
   6223SM   C15 7890   0.547   2.435  17.153  0.0691 -0.4086 -0.6305
   6223SM  H15A 7891   0.504   2.365  17.083 -2.2559  0.9188 -0.6059
   6223SM  H15B 7892   0.636   2.473  17.104 -2.0551  1.3380 -3.4170
   6223SM  H15C 7893   0.482   2.521  17.162 -0.0375 -0.6373  0.9253
   6223SM   C14 7894   0.631   2.468  17.387 -0.2022  0.1748  0.1417
   6223SM  H14A 7895   0.575   2.561  17.391 -1.7807 -0.7839  1.2004
   6223SM  H14B 7896   0.737   2.484  17.373 -0.1941  3.8248  2.9260
   6223SM  H14C 7897   0.627   2.417  17.481 -0.1597  0.5821  0.3664
   6223SM   C13 7898   0.449   2.312  17.331 -0.0487 -0.3064  0.6054
   6223SM  H13A 7899   0.465   2.264  17.426 -0.7909 -0.1613  0.8098
   6223SM  H13B 7900   0.409   2.229  17.276  1.6552 -0.4947 -0.4055
   6223SM  H13C 7901   0.378   2.393  17.343  0.3537  0.6374 -2.4913
   6223SM   C12 7902   0.679   2.265  17.260 -0.0335  0.2953  0.2185
   6223SM  H12A 7903   0.626   2.194  17.198 -1.0830  0.8069  0.5003
   6223SM  H12B 7904   0.686   2.211  17.353 -1.3539  2.6186  1.7738
   6223SM   C11 7905   0.817   2.291  17.200 -0.5579 -0.6403 -0.1804
   6223SM  H11A 7906   0.876   2.197  17.193 -0.3605 -0.5838  0.6035
   6223SM  H11B 7907   0.871   2.344  17.282 -2.1004 -0.7667  0.9608
   6223SM     P 7908   0.930   2.446  17.019  0.2092 -0.3986 -0.0349
   6223SM   O13 7909   0.947   2.575  17.092 -0.0273  0.3815 -0.0522
   6223SM   O14 7910   1.047   2.361  17.006  0.2293  0.6662  0.3337
   6223SM   O11 7911   0.879   2.480  16.878  0.3782  0.2889  0.1763
   6223SM   O12 7912   0.806   2.361  17.079 -0.1189 -0.9412 -0.1858
   6223SM   C1S 7913   0.945   2.571  16.785  0.3583 -0.6113 -0.2342
   6223SM   H1S 7914   1.044   2.528  16.758  0.3652 -0.3358 -0.6613
   6223SM   H1T 7915   0.955   2.672  16.830 -2.0857 -0.2309 -0.3858
   6223SM    NF 7916   0.934   2.665  16.553 -0.2546  0.0539  0.1012
   6223SM   HNF 7917   0.913   2.762  16.556 -0.9574 -0.1064  1.2842
   6223SM   C2S 7918   0.854   2.591  16.656 -0.4002  0.3856  0.0114
   6223SM   H2S 7919   0.832   2.488  16.619  2.0954 -1.0614  2.2199
   6223SM   C3S 7920   0.715   2.647  16.686  0.7845  0.0505  0.2547
   6223SM   H3S 7921   0.721   2.745  16.739  0.6664 -0.0724  0.4956
   6223SM    O3 7922   0.634   2.579  16.788  0.3424 -0.2492 -0.1364
   6223SM   HO3 7923   0.700   2.550  16.851  1.4227  1.2993 -0.4903
   6223SM   C4S 7924   0.642   2.655  16.557 -0.2488 -0.3181  0.5971
   6223SM   H4S 7925   0.623   2.756  16.519  0.3233 -0.3426  0.2354
   6223SM   C5S 7926   0.602   2.553  16.482  0.7929 -0.6429 -0.1679
   6223SM   H5S 7927   0.608   2.446  16.507  0.2193 -0.5159  0.5468
   6223SM   C6S 7928   0.539   2.575  16.345  0.5186 -0.4269 -0.0113
   6223SM   H6S 7929   0.527   2.684  16.325 -1.7474 -0.3524  1.3387
   6223SM   H6T 7930   0.438   2.529  16.335 -0.7345  2.1072 -0.0131
   6223SM   C7S 7931   0.634   2.519  16.231 -0.6061 -0.1319 -0.1231
   6223SM   H7S 7932   0.739   2.551  16.252 -0.2513 -0.4478 -1.3503
   6223SM   H7T 7933   0.608   2.577  16.140  0.8676  0.4761 -0.1758
   6223SM   C8S 7934   0.612   2.369  16.195  0.2949  0.6360 -0.1209
   6223SM   H8S 7935   0.506   2.338  16.195  1.3053 -3.5361 -1.0511
   6223SM   H8T 7936   0.655   2.311  16.280 -3.9992 -4.7634 -1.1095
   6223SM   C9S 7937   0.665   2.333  16.060 -0.0391 -0.7936  0.2252
   6223SM   H9S 7938   0.770   2.371  16.058 -0.2548 -0.1669  0.5697
   6223SM   H9T 7939   0.607   2.397  15.990  0.9187  1.9238  1.7537
   6223SM  C10S 7940   0.656   2.186  16.022  0.0125 -0.4337  0.0741
   6223SM  H10S 7941   0.552   2.146  16.019  0.7053 -2.3029 -0.3146
   6223SM  H10T 7942   0.712   2.126  16.097  1.5419 -1.1889 -1.5956
   6223SM  C11S 7943   0.722   2.173  15.880 -0.6304  0.0632  0.6538
   6223SM  H11S 7944   0.724   2.067  15.850  1.3166  0.3148 -0.2293
   6223SM  H11T 7945   0.831   2.191  15.892 -0.2510 -1.8312  0.2671
   6223SM  C12S 7946   0.664   2.251  15.754 -0.1766  0.1596 -0.2888
   6223SM  H12S 7947   0.705   2.354  15.764  2.9472 -0.9537 -0.6404
   6223SM  H12T 7948   0.553   2.244  15.761 -0.0369 -1.5507  0.9925
   6223SM  C13S 7949   0.715   2.179  15.624  0.2383 -0.0104  0.1895
   6223SM  H13S 7950   0.722   2.069  15.639  3.8517 -0.0944 -1.0532
   6223SM  H13T 7951   0.820   2.214  15.613 -0.5887  2.1198 -1.8171
   6223SM  C14S 7952   0.624   2.211  15.506  0.1709 -0.3168  0.1146
   6223SM  H14S 7953   0.581   2.314  15.512 -1.3379 -0.8517 -0.9550
   6223SM  H14T 7954   0.531   2.150  15.510 -0.9933  1.0815 -2.9353
   6223SM  C15S 7955   0.713   2.191  15.381 -0.2612 -0.3026  0.0923
   6223SM  H15S 7956   0.787   2.111  15.400 -2.5404 -2.4028  0.7236
   6223SM  H15T 7957   0.777   2.277  15.352  0.4894 -1.1422 -0.8093
   6223SM  C16S 7958   0.648   2.155  15.250 -0.8202  0.3081 -0.4704
   6223SM  H16S 7959   0.565   2.223  15.220 -1.3124  0.2595  0.7271
   6223SM  H16T 7960   0.602   2.059  15.282  0.8541 -0.0097  1.1780
   6223SM  C17S 7961   0.750   2.136  15.134  0.6351  0.0613  0.3389
   6223SM  H17S 7962   0.830   2.068  15.170  0.6482  0.7418  1.6834
   6223SM  H17T 7963   0.780   2.230  15.082  0.0388 -0.3435 -0.7605
   6223SM  C18S 7964   0.693   2.045  15.027  0.3782 -0.0583 -0.0080
   6223SM  H18S 7965   0.621   2.101  14.965  0.8852  1.6275  0.8588
   6223SM  H18T 7966   0.642   1.961  15.078  0.6480  0.5071  1.2370
   6223SM  H18U 7967   0.777   2.009  14.963 -1.1271 -0.5471 -1.7873
   6223SM   C1F 7968   1.042   2.620  16.483 -0.0755 -0.2528  0.1956
   6223SM    OF 7969   1.086   2.508  16.501  0.0130 -0.2736  0.3030
   6223SM   C2F 7970   1.110   2.716  16.388 -0.2975  0.0041 -0.3220
   6223SM   H2F 7971   1.059   2.815  16.388 -0.3752 -0.0283 -1.0984
   6223SM   H2G 7972   1.101   2.664  16.290  0.2693  0.9006 -0.8757
   6223SM   C3F 7973   1.259   2.736  16.429  0.8060  0.3817 -0.5725
   6223SM   H3F 7974   1.312   2.639  16.445 -0.7283 -0.2197  1.3725
   6223SM   H3G 7975   1.275   2.798  16.520  1.9678 -2.1859  1.1092
   6223SM   C4F 7976   1.340   2.801  16.320 -0.0787 -0.5389 -0.0647
   6223SM   H4F 7977   1.439   2.840  16.351 -0.0408  0.3815 -1.2582
   6223SM   H4G 7978   1.287   2.892  16.284  1.9571  0.3316 -1.0362
   6223SM   C5F 7979   1.360   2.712  16.193 -0.9465  0.3422  0.2413
   6223SM   H5F 7980   1.259   2.678  16.161 -0.2083 -1.1619 -0.5783
   6223SM   H5G 7981   1.417   2.625  16.231 -1.5358  0.3390  1.1376
   6223SM   C6F 7982   1.422   2.787  16.082 -0.1251 -0.4066  0.2229
   6223SM   H6F 7983   1.515   2.838  16.115  0.8185 -1.8703 -0.0515
   6223SM   H6G 7984   1.366   2.874  16.043  2.4310  0.9101 -0.7271
   6223SM   C7F 7985   1.466   2.698  15.963 -0.2695 -0.0860 -0.1372
   6223SM   H7F 7986   1.425   2.595  15.956 -0.8251 -0.1445  2.5484
   6223SM   H7G 7987   1.576   2.684  15.967 -0.4144 -2.3318 -1.8508
   6223SM   C8F 7988   1.435   2.784  15.837  0.0578 -0.0273 -0.0981
   6223SM   H8F 7989   1.492   2.879  15.845  1.5282 -0.8710 -0.2272
   6223SM   H8G 7990   1.328   2.814  15.839  0.5480  1.7960  2.3277
   6223SM   C9F 7991   1.460   2.709  15.708 -0.1545 -0.1289 -0.0006
   6223SM   H9F 7992   1.423   2.606  15.727  1.1249 -1.2549 -2.9841
   6223SM   H9G 7993   1.569   2.705  15.689 -0.0060 -0.7649  0.9092
   6223SM  C10F 7994   1.399   2.759  15.580 -0.1107  0.5046 -0.1239
   6223SM  H10F 7995   1.295   2.790  15.605 -0.7745 -1.9361  0.3302
   6223SM  H10G 7996   1.388   2.677  15.506 -0.7059 -0.2005  0.7367
   6223SM  C11F 7997   1.475   2.885  15.515 -0.3069  0.1965 -0.1417
   6223SM  H11F 7998   1.567   2.835  15.477 -0.6073 -0.7277  0.3144
   6223SM  H11G 7999   1.500   2.966  15.586  1.3451  1.6295 -2.2349
   6223SM  C12F 8000   1.390   2.952  15.409  0.0441  0.3318 -0.2015
   6223SM  H12F 8001   1.302   3.002  15.453 -0.1556 -0.1156 -0.0906
   6223SM  H12G 8002   1.351   2.873  15.342 -0.0999  1.6746 -1.7871
   6223SM  C13F 8003   1.466   3.054  15.321  0.4597 -0.2945  0.8593
   6223SM  H13F 8004   1.555   2.994  15.293 -0.9368 -1.7498 -0.7172
   6223SM  H13G 8005   1.507   3.134  15.385 -0.9619  0.6983  0.5738
   6223SM  C14F 8006   1.416   3.097  15.186 -0.0966 -0.5048 -0.5239
   6223SM  H14F 8007   1.320   3.149  15.206  0.6782  0.9642 -0.4879
   6223SM  H14G 8008   1.408   3.012  15.115  0.3223  0.2508 -1.5038
   6223SM  C15F 8009   1.515   3.199  15.123  0.1375 -0.1459 -0.3479
   6223SM  H15F 8010   1.615   3.150  15.119  0.6602  0.7865  0.7096
   6223SM  H15G 8011   1.527   3.292  15.182 -1.9891 -0.2583  0.3761
   6223SM  C16F 8012   1.465   3.258  14.996 -0.0606 -0.6168 -0.5830
   6223SM  H16F 8013   1.361   3.294  15.008  0.4388  0.6357  0.1206
   6223SM  H16G 8014   1.466   3.181  14.916 -2.8250 -2.4188  0.9130
   6223SM  C17F 8015   1.554   3.371  14.939 -0.2140  0.0490 -0.6302
   6223SM  H17F 8016   1.663   3.356  14.951 -0.0658  1.3244 -0.2278
   6223SM  H17G 8017   1.536   3.456  15.008 -0.1582 -1.1128  0.8675
   6223SM  C18F 8018   1.507   3.405  14.794 -0.1588  0.0009  0.2746
   6223SM  H18F 8019   1.399   3.428  14.794 -0.0288  0.6178  0.2088
   6223SM  H18G 8020   1.530   3.319  14.728  1.3148  0.4185  0.2031
   6223SM  C19F 8021   1.567   3.528  14.728 -0.7672 -0.4682  0.3569
   6223SM  H19F 8022   1.521   3.616  14.779  0.4295 -0.6128  1.7400
   6223SM  H19G 8023   1.543   3.508  14.621  1.9518  0.9777 -0.6110
   6223SM  C20F 8024   1.722   3.538  14.746 -0.2949 -0.0394 -0.0806
   6223SM  H20F 8025   1.774   3.445  14.717 -2.2576 -1.5581  1.0316
   6223SM  H20G 8026   1.742   3.546  14.855  0.1663 -1.1066 -0.0758
   6223SM  C21F 8027   1.794   3.649  14.667  0.2162 -0.1573 -0.3269
   6223SM  H21F 8028   1.755   3.741  14.715  1.1122  0.3687 -0.5904
   6223SM  H21G 8029   1.755   3.639  14.563 -0.3690 -1.6105  0.0090
   6223SM  C22F 8030   1.946   3.639  14.667 -0.0448 -0.0892  0.2280
   6223SM  H22F 8031   1.980   3.547  14.615  0.6990  0.6597 -0.6605
   6223SM  H22G 8032   1.985   3.635  14.771  1.2510  0.8000 -0.1905
   6223SM  C23F 8033   2.010   3.748  14.582 -0.1594 -0.3914 -0.2123
   6223SM  H23F 8034   1.978   3.748  14.475 -0.6577 -0.3100 -0.0653
   6223SM  H23G 8035   2.119   3.729  14.569  0.1743  1.3684 -0.2132
   6223SM  H23H 8036   1.994   3.849  14.624 -1.9673 -1.4914  1.9912
   6323SM     N 8037   3.348   4.563  17.461  0.6037  0.0577  0.4443
   6323SM   C15 8038   3.210   4.503  17.462  0.1777 -0.4535 -0.2821
   6323SM  H15A 8039   3.140   4.556  17.399 -1.5307 -1.3433  0.7869
   6323SM  H15B 8040   3.168   4.511  17.561 -0.5088  1.0234 -0.6619
   6323SM  H15C 8041   3.215   4.397  17.442 -0.1110 -0.8160  1.3902
   6323SM   C14 8042   3.339   4.704  17.523  0.1317 -0.1481  0.3834
   6323SM  H14A 8043   3.433   4.754  17.502 -1.3317  2.5334 -0.2387
   6323SM  H14B 8044   3.300   4.704  17.624  0.9972 -1.6294  0.7601
   6323SM  H14C 8045   3.274   4.760  17.458  1.0665  1.5193  0.8230
   6323SM   C13 8046   3.433   4.469  17.545  0.1484  0.1891 -0.0374
   6323SM  H13A 8047   3.429   4.369  17.505 -0.2436  0.5421 -0.9167
   6323SM  H13B 8048   3.399   4.463  17.647 -1.2675  1.1086 -0.4283
   6323SM  H13C 8049   3.537   4.499  17.537  0.4568 -0.7963  0.1675
   6323SM   C12 8050   3.407   4.568  17.322  0.0288  0.4037 -0.1406
   6323SM  H12A 8051   3.420   4.465  17.292  1.4464  0.2259  1.0027
   6323SM  H12B 8052   3.509   4.602  17.317  1.4112 -3.0940  1.0458
   6323SM   C11 8053   3.334   4.638  17.207  0.2422  0.7458  0.3256
   6323SM  H11A 8054   3.231   4.596  17.198  1.8683 -3.3959 -1.5586
   6323SM  H11B 8055   3.377   4.604  17.110  1.9728 -0.8885  1.5976
   6323SM     P 8056   3.376   4.885  17.118  0.1282 -0.0370 -0.0695
   6323SM   O13 8057   3.288   4.998  17.114 -0.2053  0.4017 -0.0651
   6323SM   O14 8058   3.516   4.912  17.163  0.3969  0.0547  0.6173
   6323SM   O11 8059   3.386   4.822  16.971  0.2033  0.1790  0.2263
   6323SM   O12 8060   3.315   4.781  17.222  0.3264  0.5271  0.1206
   6323SM   C1S 8061   3.511   4.771  16.926  0.0940  0.2579  0.3699
   6323SM   H1S 8062   3.540   4.675  16.975  1.7404  0.7161  0.3708
   6323SM   H1T 8063   3.597   4.837  16.949 -0.9736  1.6823  0.3823
   6323SM    NF 8064   3.658   4.720  16.725 -0.0733 -0.1664 -0.6856
   6323SM   HNF 8065   3.710   4.787  16.672  1.3026 -0.2378  0.5238
   6323SM   C2S 8066   3.523   4.761  16.770 -0.1760 -0.1561 -0.6384
   6323SM   H2S 8067   3.456   4.682  16.730 -0.6632 -0.0351 -0.0777
   6323SM   C3S 8068   3.472   4.900  16.712 -0.2427 -0.0930  0.5151
   6323SM   H3S 8069   3.542   4.971  16.761  2.9321  0.7384 -4.5179
   6323SM    O3 8070   3.337   4.943  16.751 -0.1278 -0.2183 -0.1972
   6323SM   HO3 8071   3.321   4.899  16.834 -0.7408  0.2637 -0.0604
   6323SM   C4S 8072   3.492   4.916  16.561  0.5345 -0.1358 -0.8120
   6323SM   H4S 8073   3.583   4.976  16.544  0.3125  0.1191 -1.1150
   6323SM   C5S 8074   3.413   4.891  16.457  0.1724  0.0193  0.0059
   6323SM   H5S 8075   3.308   4.857  16.462  0.8094 -1.9125  2.5302
   6323SM   C6S 8076   3.448   4.933  16.316  0.5561 -0.1896 -1.0557
   6323SM   H6S 8077   3.531   5.007  16.316 -0.4293  0.9611  0.3636
   6323SM   H6T 8078   3.362   4.986  16.270 -0.4795 -1.0430 -0.1339
   6323SM   C7S 8079   3.463   4.811  16.229 -0.2449 -0.6639 -0.4369
   6323SM   H7S 8080   3.380   4.738  16.242 -1.1869  0.0669 -2.0500
   6323SM   H7T 8081   3.554   4.755  16.260 -1.8057 -2.0842  1.9343
   6323SM   C8S 8082   3.456   4.842  16.077 -0.2356  0.0772 -0.6484
   6323SM   H8S 8083   3.540   4.912  16.063 -0.1991  1.0819  3.3706
   6323SM   H8T 8084   3.369   4.904  16.047  0.5988  0.9263 -1.3691
   6323SM   C9S 8085   3.466   4.712  15.993  0.0668  0.3861  0.3577
   6323SM   H9S 8086   3.375   4.649  16.006 -0.1219  0.4871 -0.4070
   6323SM   H9T 8087   3.546   4.643  16.026  0.5203 -0.0912 -1.5916
   6323SM  C10S 8088   3.478   4.740  15.847  0.0079 -0.8651 -0.2821
   6323SM  H10S 8089   3.513   4.845  15.834  0.0912 -1.0194 -1.4095
   6323SM  H10T 8090   3.375   4.720  15.812  0.1096  0.3725 -1.4080
   6323SM  C11S 8091   3.590   4.667  15.770  0.3931  0.2497  0.2285
   6323SM  H11S 8092   3.583   4.557  15.779 -0.6291  0.3046  0.2303
   6323SM  H11T 8093   3.685   4.704  15.815  0.7687 -2.0990  1.5286
   6323SM  C12S 8094   3.602   4.710  15.623  0.0915 -1.0004  0.3858
   6323SM  H12S 8095   3.703   4.686  15.583 -0.3480 -2.7216  0.2389
   6323SM  H12T 8096   3.592   4.820  15.630 -0.2930 -0.9986 -0.1704
   6323SM  C13S 8097   3.499   4.646  15.525 -0.1559 -0.3034  0.1539
   6323SM  H13S 8098   3.394   4.680  15.538 -0.3225 -0.3484 -1.0290
   6323SM  H13T 8099   3.508   4.539  15.553  0.0878 -0.5640 -0.8924
   6323SM  C14S 8100   3.534   4.675  15.384 -0.1572  0.6057  0.7768
   6323SM  H14S 8101   3.634   4.637  15.355 -0.6999  0.7763 -1.4686
   6323SM  H14T 8102   3.546   4.785  15.370 -0.6039  0.4473 -0.9982
   6323SM  C15S 8103   3.447   4.613  15.269  0.1830 -0.2697  0.1339
   6323SM  H15S 8104   3.494   4.645  15.174  2.9983  1.1815  1.8729
   6323SM  H15T 8105   3.344   4.653  15.281 -0.4104 -1.7858  0.3244
   6323SM  C16S 8106   3.456   4.458  15.275  0.2315 -0.5965 -0.4710
   6323SM  H16S 8107   3.387   4.420  15.353  0.0239 -1.3029 -0.9821
   6323SM  H16T 8108   3.553   4.428  15.320  0.6580  2.6406  1.0503
   6323SM  C17S 8109   3.416   4.386  15.150 -0.3209  0.2330  0.5417
   6323SM  H17S 8110   3.432   4.276  15.155  4.2469  0.7358  1.0356
   6323SM  H17T 8111   3.486   4.424  15.073 -0.8156  0.0389 -0.0080
   6323SM  C18S 8112   3.277   4.415  15.099  0.2140  0.5336 -0.5512
   6323SM  H18S 8113   3.217   4.340  15.155  0.5674 -0.1094 -1.0212
   6323SM  H18T 8114   3.267   4.400  14.990 -0.3449  0.3349 -0.4740
   6323SM  H18U 8115   3.241   4.512  15.138  2.3665 -0.2697  4.1554
   6323SM   C1F 8116   3.720   4.604  16.747 -0.1638  0.5705  0.6478
   6323SM    OF 8117   3.655   4.514  16.794  0.0623 -0.4966 -0.6616
   6323SM   C2F 8118   3.863   4.586  16.707 -0.2659  0.6589  0.0886
   6323SM   H2F 8119   3.911   4.523  16.785 -0.1715 -0.1164 -0.5785
   6323SM   H2G 8120   3.915   4.684  16.700  1.7761 -0.4328 -0.9016
   6323SM   C3F 8121   3.866   4.500  16.581  0.4110 -0.0069  0.3992
   6323SM   H3F 8122   3.784   4.424  16.580  0.5668 -0.1987 -1.4771
   6323SM   H3G 8123   3.964   4.449  16.590  0.1374 -0.7665 -0.6859
   6323SM   C4F 8124   3.863   4.588  16.449 -0.7088  0.0602 -0.0254
   6323SM   H4F 8125   3.950   4.656  16.441 -0.4140  0.0389  2.2884
   6323SM   H4G 8126   3.773   4.653  16.457 -0.7927 -0.2157  1.8529
   6323SM   C5F 8127   3.843   4.493  16.325 -0.2323 -0.4397 -0.3109
   6323SM   H5F 8128   3.751   4.438  16.353  0.0392 -0.0822  1.4396
   6323SM   H5G 8129   3.927   4.421  16.314  0.0507  0.1377 -2.3092
   6323SM   C6F 8130   3.816   4.566  16.196 -0.5062  0.0778 -0.7572
   6323SM   H6F 8131   3.894   4.639  16.166  0.5019 -0.4801  0.3977
   6323SM   H6G 8132   3.724   4.628  16.205 -0.8672 -0.3481 -1.4552
   6323SM   C7F 8133   3.802   4.474  16.078  0.6695  0.5442  0.0099
   6323SM   H7F 8134   3.769   4.549  16.003 -0.9483  0.6384  0.7790
   6323SM   H7G 8135   3.719   4.402  16.096  1.8749 -1.0106 -0.4054
   6323SM   C8F 8136   3.926   4.400  16.026 -0.0821  0.0743 -0.0596
   6323SM   H8F 8137   3.977   4.341  16.106 -0.6418  0.2209  0.4158
   6323SM   H8G 8138   3.997   4.477  15.989  1.5337 -1.4227 -0.2578
   6323SM   C9F 8139   3.906   4.291  15.916 -0.9145 -0.0645 -0.4381
   6323SM   H9F 8140   3.834   4.220  15.962  2.1936 -2.2546  1.4956
   6323SM   H9G 8141   3.996   4.226  15.907  1.0325  2.3024  0.5970
   6323SM  C10F 8142   3.851   4.342  15.786  0.1377  0.6527 -0.7307
   6323SM  H10F 8143   3.927   4.408  15.741  1.8693 -0.8452 -0.1123
   6323SM  H10G 8144   3.759   4.402  15.803  1.3013  2.4702 -0.6664
   6323SM  C11F 8145   3.824   4.224  15.690  0.1161 -0.3740 -0.4430
   6323SM  H11F 8146   3.757   4.143  15.726 -0.5484 -0.5574 -2.0066
   6323SM  H11G 8147   3.918   4.166  15.682  0.3121 -0.0954 -0.2034
   6323SM  C12F 8148   3.791   4.274  15.548  0.2016 -0.5527  0.7059
   6323SM  H12F 8149   3.848   4.362  15.513  0.7785 -0.0461  2.7801
   6323SM  H12G 8150   3.691   4.322  15.545  0.6170  0.5321  2.5437
   6323SM  C13F 8151   3.799   4.167  15.437 -0.4037  0.2800  0.3533
   6323SM  H13F 8152   3.739   4.079  15.466 -0.3819  0.2514  0.3101
   6323SM  H13G 8153   3.904   4.131  15.433  0.2372  2.0170  0.4446
   6323SM  C14F 8154   3.764   4.217  15.293 -0.1112  0.2615  0.5677
   6323SM  H14F 8155   3.655   4.231  15.275 -0.6136 -2.9940  0.4950
   6323SM  H14G 8156   3.792   4.145  15.213  0.9828  4.6389 -3.4242
   6323SM  C15F 8157   3.842   4.343  15.244 -0.5528 -0.1897  0.0350
   6323SM  H15F 8158   3.952   4.337  15.258 -0.4576  1.3615  0.1144
   6323SM  H15G 8159   3.805   4.433  15.298 -0.2416 -0.7813  1.2673
   6323SM  C16F 8160   3.816   4.380  15.100 -0.3218  0.0100  0.5733
   6323SM  H16F 8161   3.710   4.366  15.068 -0.5513  1.2230  0.7549
   6323SM  H16G 8162   3.873   4.321  15.025 -2.1989 -0.5640 -0.4872
   6323SM  C17F 8163   3.852   4.526  15.066 -0.1113  0.2095  0.2342
   6323SM  H17F 8164   3.957   4.541  15.097 -0.6420  0.8789  1.8071
   6323SM  H17G 8165   3.794   4.593  15.133  1.9526  2.0237  0.3124
   6323SM  C18F 8166   3.863   4.555  14.916  0.0900 -0.3113  0.4525
   6323SM  H18F 8167   3.949   4.498  14.873 -1.1639 -0.5591 -1.9172
   6323SM  H18G 8168   3.887   4.663  14.918 -1.0216 -0.0465  0.2670
   6323SM  C19F 8169   3.737   4.533  14.825  0.4486 -0.6955 -0.2634
   6323SM  H19F 8170   3.644   4.576  14.868 -0.3119 -0.0008 -2.4981
   6323SM  H19G 8171   3.699   4.428  14.827 -3.3912  0.5309  0.4607
   6323SM  C20F 8172   3.743   4.598  14.681 -0.2175 -0.0465  1.0061
   6323SM  H20F 8173   3.845   4.586  14.638 -0.1151  0.3411  1.1312
   6323SM  H20G 8174   3.740   4.708  14.698  3.0085  0.1418  0.9616
   6323SM  C21F 8175   3.631   4.561  14.587  0.3632 -0.1814  0.2272
   6323SM  H21F 8176   3.538   4.604  14.630  0.0122  0.3800 -1.0385
   6323SM  H21G 8177   3.625   4.452  14.570  2.8929 -0.3199 -0.2073
   6323SM  C22F 8178   3.622   4.629  14.450  0.2387  0.6991  0.2800
   6323SM  H22F 8179   3.719   4.610  14.398 -0.3860 -1.6924 -0.1268
   6323SM  H22G 8180   3.599   4.738  14.453 -2.6935  0.1646  0.0251
   6323SM  C23F 8181   3.513   4.560  14.359 -0.2180 -0.1359  0.2853
   6323SM  H23F 8182   3.507   4.607  14.258  1.3967 -2.1823 -0.8433
   6323SM  H23G 8183   3.424   4.564  14.425  0.9481 -2.0016  2.1028
   6323SM  H23H 8184   3.538   4.452  14.354  1.1050  0.2071 -3.0519
   6423SM     N 8185   3.530   3.582  17.158  0.0359  0.7343 -0.1223
   6423SM   C15 8186   3.411   3.664  17.152 -0.2269 -1.1380 -0.1734
   6423SM  H15A 8187   3.357   3.648  17.060  1.0935  0.0398 -1.1845
   6423SM  H15B 8188   3.444   3.766  17.159 -1.0694 -0.9520  1.6833
   6423SM  H15C 8189   3.341   3.650  17.233  1.7269 -0.6218  1.6907
   6423SM   C14 8190   3.588   3.597  17.301 -0.1410  0.5022  0.5177
   6423SM  H14A 8191   3.609   3.701  17.322  0.9981  0.2876  0.5145
   6423SM  H14B 8192   3.684   3.548  17.310  0.1985  0.9230 -0.5881
   6423SM  H14C 8193   3.530   3.542  17.374  1.9029 -1.0434  1.0880
   6423SM   C13 8194   3.504   3.434  17.131  0.1048  0.0664  0.4997
   6423SM  H13A 8195   3.421   3.396  17.190 -0.8495  3.4454  1.6068
   6423SM  H13B 8196   3.594   3.376  17.140  0.1806 -0.6043 -3.2078
   6423SM  H13C 8197   3.480   3.417  17.028  0.8332  0.7905  0.1997
   6423SM   C12 8198   3.635   3.640  17.057  0.3521 -0.3742 -0.7061
   6423SM  H12A 8199   3.681   3.727  17.102  1.1885 -0.9863 -0.3549
   6423SM  H12B 8200   3.581   3.682  16.974  1.0558 -0.5021 -1.2424
   6423SM   C11 8201   3.750   3.546  17.013  0.3334 -0.3650 -0.0224
   6423SM  H11A 8202   3.805   3.585  16.925 -0.4223 -1.4873 -1.0327
   6423SM  H11B 8203   3.704   3.455  16.969  0.2018 -0.1336 -0.3691
   6423SM     P 8204   3.886   3.380  17.168  0.2492 -0.2741  0.0326
   6423SM   O13 8205   4.008   3.403  17.247 -0.1656  0.0182  0.6555
   6423SM   O14 8206   3.777   3.321  17.246  0.2238  0.6846 -0.0495
   6423SM   O11 8207   3.922   3.307  17.036  0.0298 -0.0626 -0.4376
   6423SM   O12 8208   3.842   3.525  17.112 -0.2058  0.1472  0.3561
   6423SM   C1S 8209   3.843   3.216  16.961 -0.1163 -0.4332  0.3269
   6423SM   H1S 8210   3.736   3.220  16.988 -0.3855 -4.3256  0.3798
   6423SM   H1T 8211   3.871   3.112  16.988 -2.7307 -1.5631 -0.8929
   6423SM    NF 8212   3.753   3.156  16.742 -0.6055  0.3216  0.2439
   6423SM   HNF 8213   3.789   3.071  16.705 -1.4139 -0.8328  1.9369
   6423SM   C2S 8214   3.857   3.236  16.806  0.7891  0.3769 -0.6670
   6423SM   H2S 8215   3.839   3.343  16.781 -0.9861  1.3225  3.6847
   6423SM   C3S 8216   3.999   3.201  16.760 -0.0521 -1.0519  0.2945
   6423SM   H3S 8217   4.013   3.093  16.782 -1.4446 -1.8024 -2.1333
   6423SM    O3 8218   4.086   3.275  16.841 -0.7456  0.7771 -1.1433
   6423SM   HO3 8219   4.029   3.312  16.910  0.9739  2.7863 -0.7166
   6423SM   C4S 8220   4.033   3.213  16.608 -0.6229 -0.0415 -0.5039
   6423SM   H4S 8221   4.024   3.116  16.558 -3.2287 -0.3764  0.4434
   6423SM   C5S 8222   4.074   3.325  16.540  0.1718 -0.8357 -0.1542
   6423SM   H5S 8223   4.098   3.417  16.595 -0.6673 -0.8057  0.1756
   6423SM   C6S 8224   4.111   3.325  16.393 -0.1552  0.1280  0.8766
   6423SM   H6S 8225   4.203   3.381  16.366  0.4130 -1.1629  0.0058
   6423SM   H6T 8226   4.028   3.372  16.336  0.0906 -1.6893 -1.0946
   6423SM   C7S 8227   4.137   3.186  16.330 -0.0148  0.1389 -0.3045
   6423SM   H7S 8228   4.054   3.113  16.338 -0.5829  0.6530 -1.3601
   6423SM   H7T 8229   4.219   3.136  16.387 -0.0368 -0.6800 -0.9841
   6423SM   C8S 8230   4.196   3.198  16.193  0.0885  0.0632  0.7152
   6423SM   H8S 8231   4.287   3.261  16.185 -1.5786  2.4096 -1.7387
   6423SM   H8T 8232   4.133   3.273  16.141  0.2826 -0.3361 -0.1225
   6423SM   C9S 8233   4.201   3.058  16.125 -0.0527 -0.3920  0.4058
   6423SM   H9S 8234   4.106   3.004  16.141 -0.1426 -0.4471 -0.3066
   6423SM   H9T 8235   4.291   2.999  16.154  1.1407  0.0739 -2.0668
   6423SM  C10S 8236   4.222   3.068  15.976 -0.9987 -0.3303  0.2087
   6423SM  H10S 8237   4.314   3.124  15.949 -1.0167  0.1551  1.1122
   6423SM  H10T 8238   4.137   3.125  15.933 -0.2797  1.8030  1.4120
   6423SM  C11S 8239   4.249   2.931  15.908 -0.2301 -0.1522  0.4245
   6423SM  H11S 8240   4.163   2.865  15.932  0.9965 -1.9416  0.1278
   6423SM  H11T 8241   4.343   2.894  15.954 -0.4820 -1.8203 -0.3530
   6423SM  C12S 8242   4.266   2.947  15.754 -0.4276 -0.5216 -0.2297
   6423SM  H12S 8243   4.326   2.865  15.708  0.3110  0.4726 -1.0939
   6423SM  H12T 8244   4.320   3.042  15.731 -3.3507  1.7658  1.6406
   6423SM  C13S 8245   4.140   2.941  15.663 -1.0083  0.7166  0.7873
   6423SM  H13S 8246   4.058   3.015  15.676 -0.4121  1.8355 -1.2885
   6423SM  H13T 8247   4.099   2.839  15.677  2.3615 -1.0824 -1.2316
   6423SM  C14S 8248   4.168   2.968  15.517 -0.3312  0.1386  0.2030
   6423SM  H14S 8249   4.268   2.925  15.496  0.2892  1.3369  0.5953
   6423SM  H14T 8250   4.185   3.077  15.499  1.0047 -0.1341 -0.2864
   6423SM  C15S 8251   4.059   2.912  15.433  0.0683  0.5957 -0.0553
   6423SM  H15S 8252   3.964   2.948  15.478  0.4602 -0.6418  1.8419
   6423SM  H15T 8253   4.064   2.804  15.456  2.8999  0.8735  0.9687
   6423SM  C16S 8254   4.057   2.942  15.285  0.9330 -0.4701  0.0205
   6423SM  H16S 8255   4.159   2.949  15.241 -0.6560 -2.1678 -4.6478
   6423SM  H16T 8256   4.016   3.045  15.287  1.5690 -0.2262  1.5176
   6423SM  C17S 8257   3.961   2.842  15.209  0.3277  0.3056 -0.7076
   6423SM  H17S 8258   4.011   2.743  15.212 -1.8491 -0.8904 -1.7384
   6423SM  H17T 8259   3.959   2.873  15.102  1.5978 -1.1483 -1.1866
   6423SM  C18S 8260   3.817   2.831  15.266 -0.4154 -0.2211 -0.4776
   6423SM  H18S 8261   3.790   2.935  15.296  0.9802 -0.0107  0.1320
   6423SM  H18T 8262   3.827   2.764  15.354  0.3416  0.5677  0.0538
   6423SM  H18U 8263   3.749   2.784  15.193 -0.6478 -0.5477 -0.0547
   6423SM   C1F 8264   3.627   3.183  16.741  0.4828 -0.0010  0.0179
   6423SM    OF 8265   3.595   3.288  16.803 -0.5385 -0.2762  0.2131
   6423SM   C2F 8266   3.529   3.095  16.676 -0.1474 -0.1587 -0.5621
   6423SM   H2F 8267   3.519   3.129  16.571  0.4063 -1.7528 -1.1643
   6423SM   H2G 8268   3.427   3.110  16.718  0.6117  0.3216  1.2010
   6423SM   C3F 8269   3.570   2.950  16.684  0.9985 -0.3544 -0.4520
   6423SM   H3F 8270   3.557   2.918  16.790  0.1633 -2.7480 -1.2308
   6423SM   H3G 8271   3.675   2.932  16.655  1.5825 -0.7116  1.6993
   6423SM   C4F 8272   3.463   2.860  16.620 -0.6881  0.1759 -0.4193
   6423SM   H4F 8273   3.364   2.875  16.669 -0.3280 -0.4317  0.5345
   6423SM   H4G 8274   3.483   2.753  16.641 -0.1115  0.6527  1.7238
   6423SM   C5F 8275   3.467   2.871  16.468  0.2087  0.1140 -0.8130
   6423SM   H5F 8276   3.416   2.969  16.454  1.5293  0.8273 -0.7920
   6423SM   H5G 8277   3.399   2.791  16.432 -0.8561  0.4235  0.4290
   6423SM   C6F 8278   3.606   2.856  16.406 -0.4308 -0.4929  0.3831
   6423SM   H6F 8279   3.666   2.774  16.451 -0.7779 -0.5296  0.7823
   6423SM   H6G 8280   3.666   2.948  16.423 -1.9176  1.0781 -2.2177
   6423SM   C7F 8281   3.600   2.839  16.253 -0.0961 -0.4914 -0.2836
   6423SM   H7F 8282   3.547   2.927  16.210 -0.1750  0.0164  0.8148
   6423SM   H7G 8283   3.532   2.753  16.234  0.0705 -1.3548  2.6122
   6423SM   C8F 8284   3.736   2.848  16.192 -1.5169  0.4529 -0.3007
   6423SM   H8F 8285   3.805   2.799  16.264 -0.7397 -0.1456 -1.4283
   6423SM   H8G 8286   3.758   2.951  16.156  0.6755  0.0434 -0.2784
   6423SM   C9F 8287   3.735   2.753  16.070  0.5961 -0.3807  0.4740
   6423SM   H9F 8288   3.691   2.809  15.985 -0.0705 -4.5743 -2.2281
   6423SM   H9G 8289   3.671   2.663  16.086 -1.2206  0.6701 -0.5979
   6423SM  C10F 8290   3.880   2.718  16.025  0.4013  0.4013 -0.7529
   6423SM  H10F 8291   3.928   2.684  16.118  1.3892  1.7095 -0.7626
   6423SM  H10G 8292   3.931   2.813  16.000  1.6329  0.2693  1.1056
   6423SM  C11F 8293   3.887   2.618  15.905 -0.1023 -0.4311  0.6621
   6423SM  H11F 8294   3.842   2.663  15.814  0.8228 -1.1402 -0.1649
   6423SM  H11G 8295   3.828   2.530  15.938 -2.7753  0.5996 -1.0617
   6423SM  C12F 8296   4.029   2.572  15.891 -0.5211  0.4879  0.3978
   6423SM  H12F 8297   4.066   2.506  15.972 -0.4213  2.8475  2.3618
   6423SM  H12G 8298   4.096   2.661  15.886  0.7274 -0.4455 -0.0166
   6423SM  C13F 8299   4.056   2.487  15.756  0.2604 -0.0840  0.1518
   6423SM  H13F 8300   3.994   2.539  15.679 -1.4331 -1.5111  0.4748
   6423SM  H13G 8301   4.021   2.384  15.778  1.9169 -0.7250 -0.0796
   6423SM  C14F 8302   4.197   2.489  15.714  0.3206  0.7276  0.4653
   6423SM  H14F 8303   4.253   2.427  15.788 -0.2000  0.0219  0.2838
   6423SM  H14G 8304   4.244   2.589  15.718  1.8453  0.1015 -0.7155
   6423SM  C15F 8305   4.204   2.426  15.573  0.1592 -0.3720 -0.2557
   6423SM  H15F 8306   4.119   2.467  15.514  1.2389  1.0583 -0.8628
   6423SM  H15G 8307   4.186   2.316  15.583  2.3178 -0.5863  2.2927
   6423SM  C16F 8308   4.338   2.451  15.499  0.7036  0.2790  0.2535
   6423SM  H16F 8309   4.419   2.420  15.569  0.9334  1.2098  0.4142
   6423SM  H16G 8310   4.346   2.560  15.482 -2.2346  0.5236 -0.0751
   6423SM  C17F 8311   4.354   2.372  15.366  0.5719  0.0105 -0.3906
   6423SM  H17F 8312   4.326   2.266  15.384  2.2969 -0.1904  1.5357
   6423SM  H17G 8313   4.459   2.377  15.330  0.1070  0.3077 -1.7766
   6423SM  C18F 8314   4.256   2.435  15.262 -0.0083 -0.1307 -0.8872
   6423SM  H18F 8315   4.264   2.546  15.261 -2.0495  0.1003 -3.7941
   6423SM  H18G 8316   4.152   2.415  15.295 -0.2076 -0.1750 -1.5324
   6423SM  C19F 8317   4.263   2.379  15.123  0.0725  0.0627 -0.0718
   6423SM  H19F 8318   4.219   2.277  15.113  0.7264 -0.1491 -0.9472
   6423SM  H19G 8319   4.365   2.378  15.078  0.4970  1.3580  0.8107
   6423SM  C20F 8320   4.174   2.459  15.030 -0.2915  0.4986 -0.5981
   6423SM  H20F 8321   4.068   2.461  15.065  0.5907  1.2522  2.2904
   6423SM  H20G 8322   4.174   2.405  14.933  1.1634 -1.7630  0.5645
   6423SM  C21F 8323   4.209   2.600  15.004  0.2436 -0.1216  0.3560
   6423SM  H21F 8324   4.310   2.613  14.959  0.6962 -0.3659  1.2657
   6423SM  H21G 8325   4.189   2.666  15.091 -1.0572 -1.3360  1.0194
   6423SM  C22F 8326   4.119   2.667  14.894  0.3211  0.6321 -0.1604
   6423SM  H22F 8327   4.015   2.669  14.933  0.2305 -0.7158 -0.2823
   6423SM  H22G 8328   4.103   2.606  14.802 -0.0640  1.8713 -0.9487
   6423SM  C23F 8329   4.157   2.805  14.849  0.3303 -0.2595  0.4227
   6423SM  H23F 8330   4.258   2.806  14.803  0.0081  1.3697 -0.3293
   6423SM  H23G 8331   4.174   2.880  14.929 -1.1104 -0.5379  1.0292
   6423SM  H23H 8332   4.085   2.842  14.772  0.1545  0.3977  0.8983
   6523SM     N 8333   4.518   4.449  17.076 -0.3516  0.6026  0.8236
   6523SM   C15 8334   4.625   4.525  17.153 -0.3719 -0.0119 -0.3855
   6523SM  H15A 8335   4.714   4.549  17.097  0.3837  0.2489  0.8974
   6523SM  H15B 8336   4.665   4.468  17.235 -0.2599 -0.4997 -0.7707
   6523SM  H15C 8337   4.573   4.613  17.189  0.7720  0.9128 -0.9212
   6523SM   C14 8338   4.393   4.452  17.162 -0.1296 -0.4072  0.1793
   6523SM  H14A 8339   4.323   4.389  17.108  0.9398 -0.5825 -1.0457
   6523SM  H14B 8340   4.355   4.551  17.180 -0.5948 -0.4530 -0.5279
   6523SM  H14C 8341   4.402   4.406  17.260 -1.2274 -0.1290  0.4266
   6523SM   C13 8342   4.491   4.514  16.938  1.0259 -0.6875  0.5291
   6523SM  H13A 8343   4.580   4.506  16.877  0.3880  0.5896 -0.6347
   6523SM  H13B 8344   4.487   4.622  16.948  2.2673 -0.6004  0.3596
   6523SM  H13C 8345   4.408   4.470  16.885  1.0597 -1.2220  0.9157
   6523SM   C12 8346   4.562   4.311  17.051 -0.2916 -0.0875  0.7185
   6523SM  H12A 8347   4.570   4.251  17.141 -1.8971 -1.8375 -0.2462
   6523SM  H12B 8348   4.660   4.329  17.009 -1.3569  3.4452 -0.5191
   6523SM   C11 8349   4.479   4.216  16.961 -0.4149  0.2380 -0.6954
   6523SM  H11A 8350   4.536   4.121  16.953 -1.9166 -0.6222 -2.1552
   6523SM  H11B 8351   4.474   4.248  16.854 -4.5489  1.1841 -0.3878
   6523SM     P 8352   4.306   4.096  17.115 -0.0626  0.3797  0.3239
   6523SM   O13 8353   4.419   4.064  17.210  0.2697  0.3685 -0.2322
   6523SM   O14 8354   4.181   4.132  17.177  0.3379 -0.0536 -0.2345
   6523SM   O11 8355   4.287   3.973  17.007  0.1589  0.2150 -0.5477
   6523SM   O12 8356   4.342   4.213  17.013 -0.9021 -0.1210 -0.3088
   6523SM   C1S 8357   4.183   3.979  16.913 -0.3487  0.4336  0.7292
   6523SM   H1S 8358   4.108   4.058  16.930  1.7487  2.5932  0.5508
   6523SM   H1T 8359   4.128   3.883  16.908  0.4303 -0.1222  2.4104
   6523SM    NF 8360   4.129   3.991  16.677 -0.7510  0.5854 -1.1679
   6523SM   HNF 8361   4.079   3.907  16.656  0.4550 -0.2192 -0.8918
   6523SM   C2S 8362   4.242   3.987  16.771 -0.5137 -0.2561  0.6033
   6523SM   H2S 8363   4.294   4.085  16.762  1.4890 -1.2985  0.1193
   6523SM   C3S 8364   4.334   3.867  16.738  0.0496 -0.1867 -0.2823
   6523SM   H3S 8365   4.269   3.783  16.707  0.3721 -0.0805 -1.2886
   6523SM    O3 8366   4.419   3.817  16.845 -0.7312 -0.5525 -0.3692
   6523SM   HO3 8367   4.393   3.879  16.914  2.3529 -0.8090  1.2038
   6523SM   C4S 8368   4.411   3.902  16.612 -0.1163  0.2031 -0.8143
   6523SM   H4S 8369   4.351   3.887  16.521 -0.8964  0.4438 -0.3496
   6523SM   C5S 8370   4.542   3.936  16.599 -0.0714 -0.5277 -0.1787
   6523SM   H5S 8371   4.612   3.960  16.681  0.0931 -1.0213 -0.1723
   6523SM   C6S 8372   4.617   3.954  16.464 -0.8250  0.2825 -0.3058
   6523SM   H6S 8373   4.707   3.889  16.450 -0.0985  0.9403  1.1193
   6523SM   H6T 8374   4.663   4.055  16.455 -2.0953  0.7941 -1.4534
   6523SM   C7S 8375   4.541   3.942  16.338  0.7219  0.4726 -0.3279
   6523SM   H7S 8376   4.469   4.026  16.329  1.3407  0.8693 -1.9580
   6523SM   H7T 8377   4.478   3.852  16.347  2.7465 -1.0076 -0.3505
   6523SM   C8S 8378   4.617   3.930  16.209 -0.2393 -0.8036 -0.0790
   6523SM   H8S 8379   4.677   3.838  16.216 -0.4072 -0.8371  1.0846
   6523SM   H8T 8380   4.678   4.021  16.191 -1.3108  0.2450  1.3643
   6523SM   C9S 8381   4.535   3.905  16.085 -0.4604  0.1209  0.2550
   6523SM   H9S 8382   4.515   3.796  16.084  0.0457  0.0263  0.2083
   6523SM   H9T 8383   4.584   3.938  15.991  3.3252  0.1956  2.0631
   6523SM  C10S 8384   4.397   3.973  16.099  0.0659  0.2834  0.4421
   6523SM  H10S 8385   4.408   4.083  16.107 -0.4073  0.2978  0.9553
   6523SM  H10T 8386   4.349   3.935  16.192  0.6584 -1.4552  0.0673
   6523SM  C11S 8387   4.292   3.951  15.980 -0.0871  0.8108  1.3702
   6523SM  H11S 8388   4.203   4.014  16.003 -1.5057 -1.1995  1.5973
   6523SM  H11T 8389   4.264   3.845  15.996 -0.4599  0.8598  1.0520
   6523SM  C12S 8390   4.349   3.976  15.838 -0.1157  0.1968  0.4170
   6523SM  H12S 8391   4.425   3.899  15.814 -0.9590 -0.0614 -1.6359
   6523SM  H12T 8392   4.396   4.077  15.828 -2.4409  1.4485  1.2988
   6523SM  C13S 8393   4.242   3.964  15.734 -0.0031 -0.0653  0.1239
   6523SM  H13S 8394   4.195   4.060  15.707 -0.5713 -0.8872 -2.0356
   6523SM  H13T 8395   4.169   3.888  15.768  1.3825 -0.7384  1.7486
   6523SM  C14S 8396   4.298   3.914  15.604  0.8098  0.1628 -0.5405
   6523SM  H14S 8397   4.208   3.904  15.539 -0.5441  2.9452  0.7356
   6523SM  H14T 8398   4.355   3.820  15.622  2.3237  1.0167 -0.6918
   6523SM  C15S 8399   4.385   4.007  15.516  0.0089  0.3368  0.2363
   6523SM  H15S 8400   4.444   4.065  15.590 -2.4760  0.0616  2.6302
   6523SM  H15T 8401   4.316   4.081  15.469 -1.4400 -0.3688  1.1703
   6523SM  C16S 8402   4.469   3.940  15.412 -0.0602  0.3892  0.0484
   6523SM  H16S 8403   4.514   4.021  15.350  2.1970 -0.1742  0.8643
   6523SM  H16T 8404   4.403   3.877  15.350  0.2614 -0.2633  0.3579
   6523SM  C17S 8405   4.582   3.853  15.461 -0.6304  0.3623 -0.3519
   6523SM  H17S 8406   4.575   3.850  15.572 -0.6201  3.6651 -0.1780
   6523SM  H17T 8407   4.672   3.913  15.436 -0.9478  1.1655  0.3922
   6523SM  C18S 8408   4.586   3.713  15.395  0.5495  0.5219 -0.0851
   6523SM  H18S 8409   4.674   3.651  15.424  0.3562  1.3536  2.5522
   6523SM  H18T 8410   4.610   3.720  15.287  0.5936 -2.0315 -0.2942
   6523SM  H18U 8411   4.484   3.670  15.404  0.1515 -0.2673 -5.3470
   6523SM   C1F 8412   4.065   4.098  16.644  0.2758 -0.1248  0.2259
   6523SM    OF 8413   4.113   4.209  16.680  0.5446 -0.3516 -0.2382
   6523SM   C2F 8414   3.950   4.082  16.560  0.0906 -0.2952  0.0553
   6523SM   H2F 8415   3.859   4.121  16.610  0.6890  1.0447  0.1384
   6523SM   H2G 8416   3.936   3.973  16.541 -0.4493 -0.5109  1.6163
   6523SM   C3F 8417   3.974   4.155  16.432 -0.0917  0.2177  0.0562
   6523SM   H3F 8418   4.076   4.146  16.389 -0.5379  0.0156 -0.9789
   6523SM   H3G 8419   3.959   4.264  16.450  1.2155  0.6620 -1.3574
   6523SM   C4F 8420   3.881   4.113  16.319 -0.3749  0.4916  0.5780
   6523SM   H4F 8421   3.912   4.185  16.240  1.6231 -0.4021  0.5062
   6523SM   H4G 8422   3.775   4.136  16.346 -0.1311  0.2665  1.7928
   6523SM   C5F 8423   3.873   3.965  16.272  0.2165  0.4041  0.3284
   6523SM   H5F 8424   3.827   3.960  16.172  0.7545  0.2089  0.0850
   6523SM   H5G 8425   3.813   3.907  16.347 -0.4922  0.6031 -0.0773
   6523SM   C6F 8426   4.016   3.910  16.269  0.0949  0.2798 -0.4199
   6523SM   H6F 8427   4.066   3.905  16.368 -1.4277 -0.5276  0.3533
   6523SM   H6G 8428   4.084   3.967  16.203  0.3256  0.0170 -0.4127
   6523SM   C7F 8429   4.021   3.761  16.209 -0.4419 -0.4143 -0.2605
   6523SM   H7F 8430   4.023   3.779  16.099  1.2838 -2.6206 -0.6690
   6523SM   H7G 8431   3.931   3.698  16.227  0.0858 -1.1013  0.0450
   6523SM   C8F 8432   4.155   3.685  16.236 -0.4833 -0.0729  0.3987
   6523SM   H8F 8433   4.168   3.658  16.343 -1.6777  0.4572  0.6952
   6523SM   H8G 8434   4.246   3.745  16.214 -1.3110  0.3121 -2.3103
   6523SM   C9F 8435   4.159   3.563  16.147 -0.5292  0.6423 -0.4432
   6523SM   H9F 8436   4.060   3.512  16.156  0.0057 -0.2175  0.9041
   6523SM   H9G 8437   4.236   3.490  16.178 -2.6016 -0.5551  2.3460
   6523SM  C10F 8438   4.186   3.581  15.994  0.1484  0.3217  0.5867
   6523SM  H10F 8439   4.284   3.627  15.970 -0.5194  1.0569 -0.9044
   6523SM  H10G 8440   4.107   3.644  15.948  0.0877 -0.7350 -0.8235
   6523SM  C11F 8441   4.164   3.456  15.908 -0.3210  0.2769 -0.0670
   6523SM  H11F 8442   4.071   3.408  15.946  0.5518 -1.2468  0.2293
   6523SM  H11G 8443   4.242   3.388  15.948  0.1536 -0.4447 -2.1240
   6523SM  C12F 8444   4.186   3.475  15.749  0.2445  0.1304  0.7063
   6523SM  H12F 8445   4.261   3.557  15.745  0.1136  0.1931 -1.2476
   6523SM  H12G 8446   4.083   3.505  15.718 -0.9249 -1.5601  2.6523
   6523SM  C13F 8447   4.214   3.343  15.689  0.2351  0.2825  0.4090
   6523SM  H13F 8448   4.130   3.271  15.702 -1.9349  2.7876  1.2152
   6523SM  H13G 8449   4.306   3.306  15.740  0.9526  1.4772  0.0293
   6523SM  C14F 8450   4.250   3.356  15.542  0.3383  0.0390 -0.1500
   6523SM  H14F 8451   4.306   3.269  15.501  0.9871  1.0442 -1.4715
   6523SM  H14G 8452   4.312   3.447  15.526  0.3812  0.5654  2.5850
   6523SM  C15F 8453   4.122   3.369  15.457  0.4818 -0.3104  0.1621
   6523SM  H15F 8454   4.052   3.443  15.500  0.0545 -1.0923  0.8221
   6523SM  H15G 8455   4.067   3.273  15.448  0.1961  0.0170 -2.8276
   6523SM  C16F 8456   4.159   3.414  15.309 -0.0999 -0.0822 -0.0574
   6523SM  H16F 8457   4.070   3.391  15.248 -1.2845  1.9502  0.8002
   6523SM  H16G 8458   4.246   3.352  15.277 -1.2512 -2.0468  0.4787
   6523SM  C17F 8459   4.195   3.563  15.312  0.1926 -0.4895 -0.2628
   6523SM  H17F 8460   4.220   3.597  15.209  1.0176 -1.2536 -0.3292
   6523SM  H17G 8461   4.282   3.576  15.380  0.0206  0.3887 -0.2023
   6523SM  C18F 8462   4.084   3.658  15.358  0.8512 -0.0206  0.2276
   6523SM  H18F 8463   4.111   3.764  15.337  0.9853 -0.0309  0.3388
   6523SM  H18G 8464   4.076   3.662  15.469  2.2434 -1.3361  0.4112
   6523SM  C19F 8465   3.942   3.640  15.294  0.4617  0.0394  0.5413
   6523SM  H19F 8466   3.903   3.536  15.303  0.9329 -0.4384 -1.9872
   6523SM  H19G 8467   3.955   3.668  15.187  1.0540  2.9687  1.2941
   6523SM  C20F 8468   3.842   3.739  15.357  0.3431  0.1647  0.2205
   6523SM  H20F 8469   3.888   3.839  15.340  0.9292 -0.2026 -0.4151
   6523SM  H20G 8470   3.834   3.727  15.467 -2.3954  0.3475  0.1144
   6523SM  C21F 8471   3.705   3.734  15.280  0.4745 -0.5619 -0.2073
   6523SM  H21F 8472   3.659   3.633  15.292  1.8713 -1.0378  1.4963
   6523SM  H21G 8473   3.721   3.747  15.171  0.5169 -0.9019 -0.2429
   6523SM  C22F 8474   3.611   3.839  15.334  0.2186  0.0391  1.0896
   6523SM  H22F 8475   3.660   3.938  15.327  1.0076 -0.4573 -1.8611
   6523SM  H22G 8476   3.603   3.812  15.442  1.1921  0.9264  1.3966
   6523SM  C23F 8477   3.476   3.845  15.257 -0.1480 -0.5881  0.3772
   6523SM  H23F 8478   3.391   3.833  15.329  0.4337  0.8050  1.3399
   6523SM  H23G 8479   3.472   3.766  15.179  2.7824 -0.9140  0.4578
   6523SM  H23H 8480   3.468   3.934  15.191  0.0388 -0.6841  0.2273
   6623SM     N 8481   1.289   0.260  17.357 -0.0715 -0.2107  0.5647
   6623SM   C15 8482   1.150   0.208  17.364 -0.3298  0.2317  0.0857
   6623SM  H15A 8483   1.086   0.290  17.335  2.1579  1.8393 -1.1765
   6623SM  H15B 8484   1.118   0.185  17.465 -0.7753  2.6101  0.5552
   6623SM  H15C 8485   1.133   0.117  17.308  1.1050  1.5264 -2.6743
   6623SM   C14 8486   1.311   0.383  17.438 -0.5285  0.8186  0.0760
   6623SM  H14A 8487   1.285   0.372  17.543  1.9104  1.9737  0.8642
   6623SM  H14B 8488   1.247   0.458  17.394 -2.6678 -1.6937 -1.3896
   6623SM  H14C 8489   1.414   0.408  17.416 -0.2802 -0.8383 -0.7637
   6623SM   C13 8490   1.379   0.149  17.404  0.8322  0.4262 -0.5377
   6623SM  H13A 8491   1.367   0.123  17.508 -0.3667 -1.7318 -1.1599
   6623SM  H13B 8492   1.485   0.165  17.392  1.1975 -0.7091  0.8824
   6623SM  H13C 8493   1.368   0.064  17.339  3.4669  0.5172 -1.2332
   6623SM   C12 8494   1.313   0.291  17.208  0.7839  0.4523 -0.1129
   6623SM  H12A 8495   1.228   0.344  17.167  0.8843  2.7343  2.3601
   6623SM  H12B 8496   1.324   0.195  17.159 -1.1083  0.3934 -0.5011
   6623SM   C11 8497   1.443   0.367  17.167  0.0314  0.5220  0.1827
   6623SM  H11A 8498   1.436   0.474  17.196  0.6470  1.1018 -1.6350
   6623SM  H11B 8499   1.440   0.356  17.056  0.8397 -3.0566  0.3935
   6623SM     P 8500   1.682   0.362  17.274 -0.4598 -0.1534  0.1626
   6623SM   O13 8501   1.631   0.477  17.346  0.2533  0.1331 -0.2348
   6623SM   O14 8502   1.762   0.264  17.353 -0.3910 -0.1940  0.2179
   6623SM   O11 8503   1.759   0.429  17.156  0.1338  0.5032 -0.0095
   6623SM   O12 8504   1.562   0.297  17.208 -0.9570  0.2770 -0.1634
   6623SM   C1S 8505   1.844   0.356  17.066 -0.7545  0.3666  0.0791
   6623SM   H1S 8506   1.783   0.287  17.004  1.2209 -0.6293 -0.8513
   6623SM   H1T 8507   1.909   0.283  17.119 -1.7728 -1.0917 -0.5892
   6623SM    NF 8508   2.021   0.391  16.893 -0.0611 -0.0471  0.6952
   6623SM   HNF 8509   2.120   0.385  16.897 -0.0875 -3.1098 -0.6005
   6623SM   C2S 8510   1.946   0.455  16.998  0.2307  0.3040  0.5705
   6623SM   H2S 8511   1.888   0.537  16.951 -0.8514  0.3433  1.9105
   6623SM   C3S 8512   2.035   0.524  17.107 -0.6560  0.7030 -1.1264
   6623SM   H3S 8513   2.083   0.443  17.167 -1.2246 -0.5920 -2.3463
   6623SM    O3 8514   1.950   0.581  17.214 -0.1753  0.2259  0.1091
   6623SM   HO3 8515   1.863   0.540  17.212 -0.3207  0.2305  2.8503
   6623SM   C4S 8516   2.144   0.612  17.051  0.0178  0.1346 -0.6115
   6623SM   H4S 8517   2.109   0.684  16.976  0.3633  2.6172  1.4482
   6623SM   C5S 8518   2.276   0.608  17.076  0.5397 -0.5289  0.3159
   6623SM   H5S 8519   2.311   0.529  17.144  1.4820 -0.6649 -0.3151
   6623SM   C6S 8520   2.372   0.693  16.996  0.2081 -0.3194  0.2926
   6623SM   H6S 8521   2.339   0.705  16.890  1.7238 -0.4825 -0.2323
   6623SM   H6T 8522   2.470   0.647  16.969  2.4540  2.3347  3.1871
   6623SM   C7S 8523   2.394   0.830  17.070 -0.1753  1.2658  0.3232
   6623SM   H7S 8524   2.419   0.806  17.176  0.9091  1.6881  0.1689
   6623SM   H7T 8525   2.302   0.892  17.069  0.0894  1.7137  1.3998
   6623SM   C8S 8526   2.505   0.912  17.009  0.0621  0.1326  0.1313
   6623SM   H8S 8527   2.596   0.849  17.001  0.3335  0.7122 -1.8559
   6623SM   H8T 8528   2.528   1.006  17.064  2.9221 -0.2138 -0.3241
   6623SM   C9S 8529   2.480   0.941  16.855 -0.7379 -0.4961 -1.4006
   6623SM   H9S 8530   2.381   0.990  16.846 -0.1070  0.5972 -2.6770
   6623SM   H9T 8531   2.476   0.847  16.796 -1.6309 -0.6930 -1.0381
   6623SM  C10S 8532   2.593   1.027  16.788  0.1894  0.4160 -0.2645
   6623SM  H10S 8533   2.689   0.970  16.787 -0.2951 -0.5868  2.5212
   6623SM  H10T 8534   2.613   1.120  16.846  3.8864  0.9046 -1.9884
   6623SM  C11S 8535   2.557   1.098  16.654  0.9362  0.1333  0.3898
   6623SM  H11S 8536   2.645   1.159  16.627  2.6094 -2.2686  0.0856
   6623SM  H11T 8537   2.480   1.178  16.656  2.0308  1.1953  1.1105
   6623SM  C12S 8538   2.531   0.998  16.539 -0.5148  1.4026  0.3881
   6623SM  H12S 8539   2.444   0.938  16.573 -0.1367  1.3487  1.3022
   6623SM  H12T 8540   2.617   0.927  16.537 -1.0825  0.7003 -2.1100
   6623SM  C13S 8541   2.529   1.068  16.404 -0.6590  0.4723  0.4674
   6623SM  H13S 8542   2.627   1.116  16.385 -0.2727 -0.0088  1.1686
   6623SM  H13T 8543   2.456   1.151  16.407 -0.6408  0.6010 -1.5643
   6623SM  C14S 8544   2.506   0.971  16.286  0.9517 -0.3051 -0.3229
   6623SM  H14S 8545   2.502   1.022  16.187 -0.5680  0.0276 -0.1149
   6623SM  H14T 8546   2.405   0.928  16.302  1.3469 -1.5809 -1.0959
   6623SM  C15S 8547   2.602   0.855  16.278  0.2256  0.2855 -0.2668
   6623SM  H15S 8548   2.594   0.785  16.363  3.2649  0.6413  0.4537
   6623SM  H15T 8549   2.704   0.901  16.279  1.1011 -1.5577  1.1243
   6623SM  C16S 8550   2.583   0.776  16.146 -0.0391 -0.3089  0.3593
   6623SM  H16S 8551   2.597   0.849  16.063 -0.5197 -0.6720 -0.0498
   6623SM  H16T 8552   2.473   0.756  16.147 -0.7439  2.6246 -2.1875
   6623SM  C17S 8553   2.668   0.653  16.125  0.0630 -0.3763  0.1671
   6623SM  H17S 8554   2.654   0.592  16.217  1.2153  0.0011  0.6118
   6623SM  H17T 8555   2.776   0.672  16.108 -0.1192  0.6765  0.1217
   6623SM  C18S 8556   2.621   0.574  16.009  0.2534  0.9396 -0.0675
   6623SM  H18S 8557   2.510   0.566  16.015  0.4330 -1.2309  1.6381
   6623SM  H18T 8558   2.674   0.476  16.004  0.8891  1.2213  0.8254
   6623SM  H18U 8559   2.632   0.626  15.912  2.7806  0.2738 -0.2161
   6623SM   C1F 8560   1.960   0.344  16.784 -0.0089 -0.3373 -0.7393
   6623SM    OF 8561   1.845   0.374  16.761  0.0368 -0.6891 -0.1756
   6623SM   C2F 8562   2.047   0.267  16.690 -0.1454  0.7503  0.8473
   6623SM   H2F 8563   1.987   0.189  16.638  1.2994  1.0238 -1.3514
   6623SM   H2G 8564   2.137   0.235  16.746 -0.1725  1.5703  1.3842
   6623SM   C3F 8565   2.097   0.357  16.575 -0.4738 -0.5105  0.0727
   6623SM   H3F 8566   2.168   0.430  16.618 -0.1498  0.1982 -1.5692
   6623SM   H3G 8567   2.010   0.410  16.529  0.1901  0.8726  0.3943
   6623SM   C4F 8568   2.175   0.272  16.463 -0.1830  0.0281  0.5721
   6623SM   H4F 8569   2.101   0.193  16.437 -0.2687 -0.1502  1.3163
   6623SM   H4G 8570   2.269   0.229  16.504  0.5342  1.7663  0.8354
   6623SM   C5F 8571   2.216   0.353  16.338 -0.9942 -1.1147 -0.2676
   6623SM   H5F 8572   2.304   0.417  16.362 -2.0558 -0.4777  2.2958
   6623SM   H5G 8573   2.129   0.417  16.310 -0.1868  0.4612  0.6612
   6623SM   C6F 8574   2.260   0.263  16.217 -0.2465 -0.0402 -0.2291
   6623SM   H6F 8575   2.255   0.326  16.126  1.3139  0.5149  0.0398
   6623SM   H6G 8576   2.190   0.177  16.215 -0.5977  0.2391  0.0327
   6623SM   C7F 8577   2.401   0.219  16.242 -0.0114 -0.0016  0.2570
   6623SM   H7F 8578   2.407   0.181  16.346 -0.8348  0.7263  0.5792
   6623SM   H7G 8579   2.468   0.308  16.244 -1.3784  1.0730  2.6481
   6623SM   C8F 8580   2.457   0.112  16.146 -0.0519 -0.3756  0.7573
   6623SM   H8F 8581   2.396   0.020  16.145 -1.4707  0.5338 -1.1821
   6623SM   H8G 8582   2.554   0.093  16.197 -0.1391 -0.0087  1.0697
   6623SM   C9F 8583   2.457   0.172  15.998  0.2708 -0.9964  0.4715
   6623SM   H9F 8584   2.498   0.275  16.001  0.1729 -0.9585  2.7380
   6623SM   H9G 8585   2.351   0.175  15.967  0.5158 -0.1818 -0.3277
   6623SM  C10F 8586   2.539   0.097  15.894  0.2974 -0.1284 -0.4865
   6623SM  H10F 8587   2.645   0.128  15.907  0.5207 -0.4234 -1.5137
   6623SM  H10G 8588   2.498   0.125  15.795 -0.5067  1.9963  0.3834
   6623SM  C11F 8589   2.526  -0.057  15.915 -0.1397 -0.2793 -0.3708
   6623SM  H11F 8590   2.423  -0.095  15.933  0.6398 -2.2163  0.3378
   6623SM  H11G 8591   2.588  -0.091  16.001  1.5539 -0.7213 -1.7068
   6623SM  C12F 8592   2.567  -0.134  15.791 -0.6207  0.3046 -0.3020
   6623SM  H12F 8593   2.492  -0.125  15.710  0.3129  0.6791 -1.1392
   6623SM  H12G 8594   2.572  -0.244  15.805 -0.1017  0.5249  1.6219
   6623SM  C13F 8595   2.709  -0.093  15.725 -0.1490 -0.7308 -0.4537
   6623SM  H13F 8596   2.780  -0.065  15.805 -0.1576 -0.9366 -0.3732
   6623SM  H13G 8597   2.689  -0.003  15.662  0.2201  0.6341  1.2986
   6623SM  C14F 8598   2.750  -0.214  15.639 -0.3762  0.5244  0.1234
   6623SM  H14F 8599   2.751  -0.311  15.695 -0.8503 -0.0057 -0.7694
   6623SM  H14G 8600   2.858  -0.196  15.620 -0.4187 -0.8719 -1.7126
   6623SM  C15F 8601   2.681  -0.220  15.501 -0.9790 -0.5913  0.4119
   6623SM  H15F 8602   2.677  -0.122  15.449  2.0297  0.8190  2.5929
   6623SM  H15G 8603   2.575  -0.255  15.500 -0.7514 -1.4420 -2.0569
   6623SM  C16F 8604   2.748  -0.327  15.415 -0.2220  0.1346  0.0982
   6623SM  H16F 8605   2.753  -0.429  15.460  2.0071 -1.2183 -2.8181
   6623SM  H16G 8606   2.854  -0.294  15.406  0.3784 -1.7386 -0.2127
   6623SM  C17F 8607   2.686  -0.330  15.270 -0.6503  0.0814  0.3348
   6623SM  H17F 8608   2.681  -0.230  15.224 -1.4400 -0.0175  0.1848
   6623SM  H17G 8609   2.582  -0.369  15.275 -0.6498 -0.6817 -3.0985
   6623SM  C18F 8610   2.765  -0.417  15.176  0.0528  0.3958 -0.0173
   6623SM  H18F 8611   2.870  -0.379  15.171  1.1486 -2.5282 -1.3011
   6623SM  H18G 8612   2.728  -0.418  15.071 -1.0261  0.3704  0.3569
   6623SM  C19F 8613   2.778  -0.563  15.224  0.4748  0.1274  0.0688
   6623SM  H19F 8614   2.684  -0.593  15.276  1.1143 -1.3227  0.4522
   6623SM  H19G 8615   2.862  -0.563  15.297 -0.0314 -0.2555  0.6627
   6623SM  C20F 8616   2.794  -0.664  15.109 -0.2977  0.1180  0.4991
   6623SM  H20F 8617   2.898  -0.661  15.070  0.3036 -0.3894  1.9587
   6623SM  H20G 8618   2.722  -0.642  15.028  0.1405 -0.5029 -0.0715
   6623SM  C21F 8619   2.782  -0.811  15.154  0.5321  0.5906 -0.0567
   6623SM  H21F 8620   2.684  -0.847  15.193  1.7539 -0.9100  1.7945
   6623SM  H21G 8621   2.854  -0.837  15.234  0.5666  1.2332  0.1279
   6623SM  C22F 8622   2.822  -0.910  15.041 -0.4741 -0.0161 -0.8935
   6623SM  H22F 8623   2.925  -0.878  15.013  0.4994 -1.6386  0.6464
   6623SM  H22G 8624   2.746  -0.900  14.961  0.8248 -0.2035 -2.1999
   6623SM  C23F 8625   2.829  -1.052  15.084  0.4113  0.1709  0.4028
   6623SM  H23F 8626   2.849  -1.130  15.007  2.8556  1.2794 -0.1896
   6623SM  H23G 8627   2.732  -1.080  15.128  0.8259 -1.1319  0.5265
   6623SM  H23H 8628   2.914  -1.059  15.156  1.3271  0.2564 -0.6319
   6723SM     N 8629   2.765   5.663  17.382  0.5480 -0.1379  0.1586
   6723SM   C15 8630   2.635   5.609  17.442 -0.1273  0.0513  0.1430
   6723SM  H15A 8631   2.579   5.548  17.373 -1.3161  0.9920  0.2381
   6723SM  H15B 8632   2.566   5.685  17.477 -0.0707  0.9176 -1.5233
   6723SM  H15C 8633   2.663   5.541  17.522  0.6120  0.0291 -0.1306
   6723SM   C14 8634   2.736   5.779  17.299  0.7582  0.2965 -0.2183
   6723SM  H14A 8635   2.672   5.763  17.213  0.9161  1.1219 -0.4991
   6723SM  H14B 8636   2.829   5.826  17.270  1.2976  0.1025  1.1181
   6723SM  H14C 8637   2.691   5.854  17.361  1.9657  1.3708 -0.6036
   6723SM   C13 8638   2.844   5.720  17.493  0.1163 -0.3777 -0.1200
   6723SM  H13A 8639   2.881   5.637  17.551  0.2273 -1.4883 -1.7045
   6723SM  H13B 8640   2.790   5.787  17.559 -1.8331  0.3222 -2.2886
   6723SM  H13C 8641   2.934   5.768  17.458  0.0436  0.1582  0.3997
   6723SM   C12 8642   2.842   5.549  17.313  0.0939  0.5222 -0.2871
   6723SM  H12A 8643   2.846   5.471  17.387  0.1560 -0.2849 -1.1256
   6723SM  H12B 8644   2.940   5.592  17.298 -0.6068  3.1290  1.8534
   6723SM   C11 8645   2.776   5.492  17.173  0.1782 -0.1469  0.1741
   6723SM  H11A 8646   2.844   5.422  17.119  1.0643 -0.3572  1.5167
   6723SM  H11B 8647   2.769   5.581  17.107  1.3751  1.9513  2.6923
   6723SM     P 8648   2.614   5.294  17.235  0.2938 -0.1419 -0.0876
   6723SM   O13 8649   2.728   5.233  17.305 -0.5559  0.2178  0.0950
   6723SM   O14 8650   2.488   5.281  17.309  0.2088  0.1022 -0.0956
   6723SM   O11 8651   2.608   5.219  17.099  0.2676 -0.2293  0.2930
   6723SM   O12 8652   2.644   5.442  17.203  0.4844  0.0102  0.7275
   6723SM   C1S 8653   2.549   5.272  16.976  0.4538 -0.2047  0.1955
   6723SM   H1S 8654   2.503   5.371  16.994 -4.2645 -2.2936  1.0071
   6723SM   H1T 8655   2.467   5.208  16.938  1.0616 -1.6802  1.2602
   6723SM    NF 8656   2.617   5.312  16.748 -0.2663  0.1405  0.3602
   6723SM   HNF 8657   2.587   5.243  16.682  1.2239 -0.8028  0.6236
   6723SM   C2S 8658   2.661   5.258  16.869 -0.1514  0.1023 -0.2745
   6723SM   H2S 8659   2.745   5.317  16.912 -0.3911 -0.3235  0.8069
   6723SM   C3S 8660   2.724   5.111  16.856 -1.1773 -0.2976 -0.9026
   6723SM   H3S 8661   2.643   5.038  16.837 -0.6502 -0.9340 -0.7653
   6723SM    O3 8662   2.796   5.064  16.981 -0.4584 -0.2719  0.4188
   6723SM   HO3 8663   2.767   5.134  17.039 -1.5895 -0.3779  0.0138
   6723SM   C4S 8664   2.819   5.101  16.739 -0.1042  0.0109  0.6285
   6723SM   H4S 8665   2.760   5.060  16.656 -1.3407  0.0654  1.4606
   6723SM   C5S 8666   2.953   5.126  16.740  0.3077 -0.0690  0.3389
   6723SM   H5S 8667   2.996   5.159  16.836  0.1460  1.0770  0.0320
   6723SM   C6S 8668   3.046   5.109  16.620 -0.1617  0.9518 -0.5782
   6723SM   H6S 8669   3.117   5.030  16.651 -1.9480 -0.1432  0.9735
   6723SM   H6T 8670   3.102   5.204  16.608  1.2712  0.2615  0.4181
   6723SM   C7S 8671   2.978   5.063  16.487 -0.0009 -0.5100  0.0067
   6723SM   H7S 8672   2.897   5.134  16.463  2.4646  2.0744 -1.3270
   6723SM   H7T 8673   2.930   4.963  16.498  0.5295 -0.6813  0.8383
   6723SM   C8S 8674   3.085   5.067  16.372  0.4488 -0.5026 -0.5315
   6723SM   H8S 8675   3.153   4.979  16.365  1.4774  0.3267 -1.4517
   6723SM   H8T 8676   3.155   5.153  16.387  1.4856 -1.2526 -0.9174
   6723SM   C9S 8677   3.020   5.096  16.237  0.3088 -0.3476 -0.0261
   6723SM   H9S 8678   2.949   5.180  16.252  0.8253 -0.2547  2.2300
   6723SM   H9T 8679   2.968   5.008  16.193 -1.2747  0.4820  0.1358
   6723SM  C10S 8680   3.130   5.126  16.132 -0.1456  0.1191 -0.0891
   6723SM  H10S 8681   3.213   5.052  16.134  0.4845  0.7868  2.8735
   6723SM  H10T 8682   3.174   5.223  16.161 -1.8084  0.4369  1.5487
   6723SM  C11S 8683   3.069   5.148  15.991  0.0220  0.6812 -0.0590
   6723SM  H11S 8684   3.005   5.238  15.983  2.0338  2.0893 -1.2329
   6723SM  H11T 8685   3.002   5.062  15.970  0.2312  0.4372  0.2538
   6723SM  C12S 8686   3.174   5.177  15.880 -0.5652  0.4447 -0.2529
   6723SM  H12S 8687   3.274   5.189  15.927 -0.4047  3.4114 -1.1450
   6723SM  H12T 8688   3.142   5.267  15.824 -1.2196  0.0669 -0.5075
   6723SM  C13S 8689   3.190   5.066  15.773 -0.5758 -0.0455 -0.1809
   6723SM  H13S 8690   3.099   5.057  15.710 -0.1081 -0.3075 -0.8307
   6723SM  H13T 8691   3.222   4.973  15.824  0.7427  0.7303  0.4696
   6723SM  C14S 8692   3.299   5.106  15.663 -0.2197 -0.6386 -0.2346
   6723SM  H14S 8693   3.324   5.019  15.599 -2.3032 -1.3325 -0.1569
   6723SM  H14T 8694   3.400   5.121  15.708  0.2775 -0.2631 -1.4323
   6723SM  C15S 8695   3.255   5.230  15.577 -0.1038  0.0258 -0.6503
   6723SM  H15S 8696   3.276   5.323  15.635  1.2105 -0.0558 -0.9724
   6723SM  H15T 8697   3.144   5.225  15.569 -0.0332 -1.2507 -1.0426
   6723SM  C16S 8698   3.314   5.247  15.443 -0.2646  0.3477  0.0131
   6723SM  H16S 8699   3.302   5.148  15.394 -0.0765 -0.3719  1.3679
   6723SM  H16T 8700   3.422   5.264  15.462 -0.1718 -1.0229  0.8131
   6723SM  C17S 8701   3.249   5.359  15.356 -0.4036  0.5060  0.1178
   6723SM  H17S 8702   3.264   5.461  15.397 -0.9886  1.0217 -0.8906
   6723SM  H17T 8703   3.139   5.345  15.358 -0.4733  1.0734  0.2567
   6723SM  C18S 8704   3.288   5.353  15.205 -0.1925  0.4379 -0.5493
   6723SM  H18S 8705   3.231   5.273  15.154  0.3832 -0.7498  0.5854
   6723SM  H18T 8706   3.397   5.331  15.209 -0.4740 -0.9732  0.4250
   6723SM  H18U 8707   3.280   5.451  15.153 -0.0304  0.3434 -0.7550
   6723SM   C1F 8708   2.587   5.446  16.739  0.4831 -0.2750  0.3091
   6723SM    OF 8709   2.616   5.531  16.818  0.1192  0.3630 -0.0928
   6723SM   C2F 8710   2.530   5.500  16.613  0.1732  0.5633  0.2423
   6723SM   H2F 8711   2.614   5.555  16.564  1.8430  0.4734  2.7900
   6723SM   H2G 8712   2.457   5.584  16.618 -0.4475  0.0945 -0.7582
   6723SM   C3F 8713   2.461   5.392  16.524  0.0491 -0.0584  0.4026
   6723SM   H3F 8714   2.376   5.340  16.573  0.5026 -0.9971  0.2055
   6723SM   H3G 8715   2.535   5.315  16.494 -0.0624  0.3017 -0.8533
   6723SM   C4F 8716   2.410   5.455  16.395  0.0581 -0.0761  0.3257
   6723SM   H4F 8717   2.474   5.540  16.362  0.9156 -0.3977  1.1111
   6723SM   H4G 8718   2.316   5.502  16.433  0.0854  0.3435 -0.1117
   6723SM   C5F 8719   2.392   5.344  16.283 -0.0532 -0.0354 -0.0919
   6723SM   H5F 8720   2.323   5.265  16.320 -0.8737 -0.0903 -1.6259
   6723SM   H5G 8721   2.491   5.299  16.262 -0.2258 -0.5626  0.1887
   6723SM   C6F 8722   2.349   5.404  16.147 -0.6127  0.4239 -0.1630
   6723SM   H6F 8723   2.418   5.487  16.121  1.1025 -1.5999 -2.5759
   6723SM   H6G 8724   2.247   5.445  16.157 -0.8982 -0.2985 -0.0737
   6723SM   C7F 8725   2.348   5.300  16.032 -0.6662  0.2464  0.5370
   6723SM   H7F 8726   2.296   5.207  16.063  1.6126 -1.0818  0.6034
   6723SM   H7G 8727   2.450   5.266  16.007 -0.6553  1.1888 -0.8232
   6723SM   C8F 8728   2.277   5.372  15.912  0.4069 -0.2485  0.1139
   6723SM   H8F 8729   2.324   5.473  15.917  1.5812 -0.7813  0.1408
   6723SM   H8G 8730   2.175   5.393  15.948  0.8498  0.4074  1.0378
   6723SM   C9F 8731   2.283   5.291  15.781 -0.0013 -0.0245  0.4626
   6723SM   H9F 8732   2.217   5.205  15.802 -0.0368  0.3983  2.2949
   6723SM   H9G 8733   2.385   5.259  15.750  0.4752  1.0929  0.8156
   6723SM  C10F 8734   2.229   5.377  15.663 -1.1021  0.4014 -0.3194
   6723SM  H10F 8735   2.293   5.466  15.649  1.4727 -1.2422  0.3757
   6723SM  H10G 8736   2.130   5.420  15.689 -1.6858 -1.6878  1.1874
   6723SM  C11F 8737   2.213   5.297  15.533 -0.2111  0.7514  0.0339
   6723SM  H11F 8738   2.154   5.208  15.562 -0.3532  1.0739  0.7459
   6723SM  H11G 8739   2.313   5.259  15.502  0.0540  2.9291 -2.1130
   6723SM  C12F 8740   2.159   5.388  15.419  0.0283 -0.0361  0.1310
   6723SM  H12F 8741   2.206   5.489  15.421 -0.9970  0.4550  0.2677
   6723SM  H12G 8742   2.054   5.406  15.450  0.2667  0.8995  0.4346
   6723SM  C13F 8743   2.178   5.330  15.283  0.4812 -0.2206  0.4892
   6723SM  H13F 8744   2.134   5.228  15.272  4.1908 -2.1018  1.2608
   6723SM  H13G 8745   2.288   5.310  15.277  1.2680  2.1460  4.1234
   6723SM  C14F 8746   2.134   5.425  15.169  0.4660 -0.3269 -1.1287
   6723SM  H14F 8747   2.182   5.523  15.186  1.8714 -1.0184 -0.9969
   6723SM  H14G 8748   2.024   5.441  15.171  0.5503  0.2433  0.4040
   6723SM  C15F 8749   2.186   5.374  15.043  0.1044 -0.3835 -0.1555
   6723SM  H15F 8750   2.109   5.297  15.021 -0.4210  0.4834 -1.4258
   6723SM  H15G 8751   2.290   5.337  15.055 -0.4704 -1.6289  1.3201
   6723SM  C16F 8752   2.189   5.478  14.929 -0.3771 -0.3596 -0.4882
   6723SM  H16F 8753   2.229   5.443  14.831  1.0092 -1.0346  0.2908
   6723SM  H16G 8754   2.265   5.554  14.956  1.0633 -2.5167  1.9583
   6723SM  C17F 8755   2.053   5.548  14.893 -0.1610 -0.2674 -0.3143
   6723SM  H17F 8756   2.063   5.639  14.831  0.1945 -1.3254 -1.8662
   6723SM  H17G 8757   2.016   5.593  14.988 -0.5004  0.6710 -0.8775
   6723SM  C18F 8758   1.954   5.446  14.830  0.1297  0.1759  1.1539
   6723SM  H18F 8759   1.929   5.365  14.902  2.6332 -1.0956  0.7178
   6723SM  H18G 8760   1.999   5.390  14.744 -2.4795  0.8054 -0.7251
   6723SM  C19F 8761   1.821   5.516  14.812 -0.7672  0.2835 -0.5559
   6723SM  H19F 8762   1.824   5.605  14.746  0.2021 -0.6019 -1.7450
   6723SM  H19G 8763   1.794   5.551  14.914 -0.3037 -0.2888 -0.2292
   6723SM  C20F 8764   1.702   5.432  14.764  0.3428 -0.1502  0.3501
   6723SM  H20F 8765   1.713   5.328  14.802  2.1141 -0.6831 -1.4245
   6723SM  H20G 8766   1.704   5.448  14.654  1.4419  0.6625  0.4731
   6723SM  C21F 8767   1.561   5.481  14.829  0.5867 -0.1803 -0.2622
   6723SM  H21F 8768   1.577   5.470  14.938 -2.6418 -0.6071  0.2851
   6723SM  H21G 8769   1.483   5.405  14.806 -0.7729  0.8567  0.6892
   6723SM  C22F 8770   1.526   5.628  14.781 -0.0761 -0.1177  0.1282
   6723SM  H22F 8771   1.523   5.629  14.670  0.2355 -1.3949  0.0861
   6723SM  H22G 8772   1.600   5.701  14.820 -1.0088 -0.1306  2.0448
   6723SM  C23F 8773   1.380   5.655  14.829  0.3041 -0.6061 -0.1566
   6723SM  H23F 8774   1.367   5.637  14.938  0.3981  2.2023  0.3790
   6723SM  H23G 8775   1.304   5.591  14.780 -0.4155  0.2855 -0.2315
   6723SM  H23H 8776   1.345   5.758  14.806  0.5480 -0.2895  0.8410
   6823SM     N 8777   1.518   7.343  17.076  0.3728 -0.2376  0.1046
   6823SM   C15 8778   1.544   7.360  16.927  0.6100  0.0401  0.2306
   6823SM  H15A 8779   1.480   7.312  16.855  3.0180 -1.5425 -0.9973
   6823SM  H15B 8780   1.634   7.305  16.905  0.5944 -0.8428  2.1622
   6823SM  H15C 8781   1.544   7.464  16.896  0.0358  0.0081  0.1030
   6823SM   C14 8782   1.637   7.402  17.153  0.1712  0.0831 -0.1110
   6823SM  H14A 8783   1.640   7.509  17.137  1.1635  0.0468 -0.2082
   6823SM  H14B 8784   1.727   7.354  17.117  0.5733 -0.3158  1.3529
   6823SM  H14C 8785   1.618   7.378  17.257  0.3367  0.4746  0.0104
   6823SM   C13 8786   1.398   7.423  17.115  0.0554 -0.1020  0.5268
   6823SM  H13A 8787   1.309   7.390  17.063  0.4626  0.8976 -0.8720
   6823SM  H13B 8788   1.397   7.525  17.079 -0.5897 -0.3260 -0.1305
   6823SM  H13C 8789   1.379   7.418  17.221 -2.9824 -3.1522  0.0291
   6823SM   C12 8790   1.494   7.201  17.112  0.1099 -0.0678 -0.5213
   6823SM  H12A 8791   1.413   7.161  17.052 -0.1710 -1.8796  0.9946
   6823SM  H12B 8792   1.454   7.204  17.212  1.1065  1.2912 -0.1381
   6823SM   C11 8793   1.608   7.098  17.097  0.0332 -0.0917 -0.2274
   6823SM  H11A 8794   1.640   7.097  16.991  0.4893 -1.6187 -0.0922
   6823SM  H11B 8795   1.568   6.996  17.114  3.9915 -2.0658 -1.3858
   6823SM     P 8796   1.859   7.062  17.148 -0.0529  0.1331  0.0003
   6823SM   O13 8797   1.963   7.092  17.253  0.2470  0.8551  0.3499
   6823SM   O14 8798   1.843   6.919  17.103 -0.4886 -0.0685 -0.6209
   6823SM   O11 8799   1.891   7.147  17.019 -0.0613  0.1389  0.3957
   6823SM   O12 8800   1.717   7.120  17.187 -0.6387  0.0192 -0.3747
   6823SM   C1S 8801   2.020   7.215  17.015  0.0399 -0.5218 -0.1756
   6823SM   H1S 8802   2.108   7.153  17.040  1.7287  1.7009 -0.2779
   6823SM   H1T 8803   2.017   7.303  17.082  0.0077 -0.0157 -0.8307
   6823SM    NF 8804   2.169   7.348  16.882  0.2018  0.6785  0.5039
   6823SM   HNF 8805   2.145   7.445  16.881 -0.7634  0.4503 -0.5741
   6823SM   C2S 8806   2.054   7.263  16.868  0.2360  0.5799 -0.3409
   6823SM   H2S 8807   2.077   7.180  16.798  1.0528  1.5300 -1.2269
   6823SM   C3S 8808   1.931   7.321  16.795 -0.1793  0.0870 -0.5300
   6823SM   H3S 8809   1.901   7.406  16.860  1.1757  0.7908 -0.7947
   6823SM    O3 8810   1.817   7.241  16.790 -0.2799  0.3284  0.3395
   6823SM   HO3 8811   1.827   7.169  16.853  0.5454  0.7893  0.7658
   6823SM   C4S 8812   1.965   7.368  16.655 -0.1984 -0.0944  0.3291
   6823SM   H4S 8813   1.989   7.294  16.577 -2.1141 -0.3843 -0.0462
   6823SM   C5S 8814   1.978   7.494  16.616  0.4636 -0.1821  0.2201
   6823SM   H5S 8815   1.946   7.575  16.683 -2.0681 -1.0131  0.1130
   6823SM   C6S 8816   2.034   7.550  16.485  0.4129 -0.1245 -0.2960
   6823SM   H6S 8817   2.124   7.612  16.507 -0.3253  1.5907 -1.9260
   6823SM   H6T 8818   1.971   7.630  16.441 -1.7844 -0.7044  1.6354
   6823SM   C7S 8819   2.068   7.442  16.379 -0.5021  0.3454  0.2581
   6823SM   H7S 8820   1.983   7.377  16.347 -0.5229  0.4328  0.1345
   6823SM   H7T 8821   2.149   7.385  16.429 -0.6169  0.6130  0.7578
   6823SM   C8S 8822   2.140   7.492  16.255 -0.2124  0.2661  0.1380
   6823SM   H8S 8823   2.230   7.555  16.271 -1.6536  2.5836 -0.4115
   6823SM   H8T 8824   2.061   7.549  16.201 -1.2379  1.5207  2.8210
   6823SM   C9S 8825   2.196   7.372  16.170 -0.1227 -0.1618  0.0043
   6823SM   H9S 8826   2.217   7.417  16.070  2.0471  1.5279  1.1511
   6823SM   H9T 8827   2.118   7.293  16.162 -0.0088 -0.2568 -0.2000
   6823SM  C10S 8828   2.331   7.321  16.220  0.3088  0.0212  0.0401
   6823SM  H10S 8829   2.329   7.327  16.331  2.0873  0.7298  0.0769
   6823SM  H10T 8830   2.421   7.383  16.196  0.9999 -1.0993 -0.3295
   6823SM  C11S 8831   2.374   7.181  16.165  0.3032 -0.0596  0.1534
   6823SM  H11S 8832   2.308   7.096  16.193  0.1439  0.3438  1.0249
   6823SM  H11T 8833   2.460   7.160  16.232 -0.9105 -3.9608  0.7384
   6823SM  C12S 8834   2.418   7.179  16.017 -0.3714 -0.4951  0.1715
   6823SM  H12S 8835   2.506   7.112  16.006 -0.4935 -0.5972 -0.1982
   6823SM  H12T 8836   2.446   7.277  15.974 -0.8249  1.9604  4.8391
   6823SM  C13S 8837   2.304   7.116  15.929 -0.2081 -0.5279 -0.2033
   6823SM  H13S 8838   2.207   7.154  15.966  1.4324  1.1445  2.7570
   6823SM  H13T 8839   2.305   7.009  15.956 -0.4817 -0.6474 -0.6516
   6823SM  C14S 8840   2.328   7.121  15.767  0.4287  0.1337 -0.5599
   6823SM  H14S 8841   2.374   7.218  15.737 -1.2107  0.7517 -1.2040
   6823SM  H14T 8842   2.226   7.111  15.724 -0.2516 -1.0422  1.2546
   6823SM  C15S 8843   2.411   7.008  15.719 -0.0285  0.4242 -0.0511
   6823SM  H15S 8844   2.367   6.923  15.775 -2.0732  1.5006  0.0435
   6823SM  H15T 8845   2.516   7.018  15.754  0.2104  1.2821 -0.9476
   6823SM  C16S 8846   2.396   6.975  15.567  0.8735  0.0362  0.2252
   6823SM  H16S 8847   2.433   7.060  15.507  1.3225 -0.0326  0.4030
   6823SM  H16T 8848   2.285   6.974  15.561  0.8475 -1.4942  0.3952
   6823SM  C17S 8849   2.452   6.838  15.513 -0.3202 -0.7770 -0.3663
   6823SM  H17S 8850   2.436   6.827  15.403  1.1846 -2.9060 -0.4377
   6823SM  H17T 8851   2.406   6.753  15.568 -0.8064  0.5959  1.4478
   6823SM  C18S 8852   2.606   6.830  15.547  0.0604 -0.3087  0.3588
   6823SM  H18S 8853   2.611   6.804  15.655 -2.2117 -0.6145  0.4271
   6823SM  H18T 8854   2.651   6.931  15.535  0.4760 -0.5382 -0.0777
   6823SM  H18U 8855   2.654   6.767  15.469  2.0194 -0.0530  1.3007
   6823SM   C1F 8856   2.288   7.303  16.911 -0.7965 -0.0793  0.2691
   6823SM    OF 8857   2.315   7.185  16.917 -0.0786 -0.1951 -0.6652
   6823SM   C2F 8858   2.390   7.407  16.944 -1.0612  0.4527 -0.2081
   6823SM   H2F 8859   2.459   7.366  17.021 -0.5505  1.7366  0.0291
   6823SM   H2G 8860   2.341   7.488  17.001 -1.2957 -0.0119  0.2621
   6823SM   C3F 8861   2.471   7.453  16.820 -0.7108  0.0271  0.3533
   6823SM   H3F 8862   2.517   7.368  16.764 -0.0300  2.2870 -2.8133
   6823SM   H3G 8863   2.561   7.508  16.855 -1.7881  1.9454  0.2135
   6823SM   C4F 8864   2.401   7.542  16.721  0.1109  0.0518  0.7819
   6823SM   H4F 8865   2.354   7.631  16.768 -0.9599 -0.2864  0.3719
   6823SM   H4G 8866   2.317   7.485  16.677 -1.1199  0.2771  2.7192
   6823SM   C5F 8867   2.491   7.576  16.591 -0.4579 -0.1363 -0.0545
   6823SM   H5F 8868   2.579   7.634  16.626 -0.9679  0.8000 -0.2640
   6823SM   H5G 8869   2.429   7.651  16.538  1.4283  1.9819  0.5705
   6823SM   C6F 8870   2.541   7.448  16.503  0.1073 -0.4796  0.1439
   6823SM   H6F 8871   2.454   7.386  16.470  1.1677 -2.5709  1.1092
   6823SM   H6G 8872   2.605   7.394  16.576 -1.1308 -0.4905  1.2480
   6823SM   C7F 8873   2.615   7.492  16.368  0.1998  0.0596 -0.3495
   6823SM   H7F 8874   2.688   7.573  16.390  1.0724 -0.6227 -0.6805
   6823SM   H7G 8875   2.547   7.535  16.291  0.8450  1.4423 -0.1755
   6823SM   C8F 8876   2.683   7.366  16.316 -0.2733 -0.4610  0.2888
   6823SM   H8F 8877   2.625   7.272  16.323 -1.3173  0.0118 -1.4163
   6823SM   H8G 8878   2.774   7.344  16.375 -0.1108 -1.5678 -0.3520
   6823SM   C9F 8879   2.710   7.384  16.168  0.1502 -0.1522 -0.2855
   6823SM   H9F 8880   2.776   7.473  16.154 -0.4880  0.3341 -0.2685
   6823SM   H9G 8881   2.613   7.418  16.127  0.0972 -2.1728 -1.9843
   6823SM  C10F 8882   2.769   7.258  16.106 -0.2496 -0.3351  0.0108
   6823SM  H10F 8883   2.710   7.167  16.132  2.1995 -1.3227  2.6251
   6823SM  H10G 8884   2.868   7.239  16.153  0.3688  0.8806 -0.7534
   6823SM  C11F 8885   2.795   7.269  15.957  0.4859 -0.2112  0.9158
   6823SM  H11F 8886   2.875   7.345  15.946 -0.9588  1.0838 -1.1070
   6823SM  H11G 8887   2.702   7.304  15.909  0.4969  0.6318  1.4965
   6823SM  C12F 8888   2.840   7.133  15.891 -0.2794 -0.2825 -0.3532
   6823SM  H12F 8889   2.770   7.054  15.923  0.5103 -0.9287 -0.1854
   6823SM  H12G 8890   2.942   7.110  15.930 -0.5465 -2.3562 -0.7495
   6823SM  C13F 8891   2.840   7.121  15.736 -0.3747  0.3084  0.0295
   6823SM  H13F 8892   2.913   7.194  15.697  1.1442 -0.7539  0.7849
   6823SM  H13G 8893   2.735   7.126  15.698 -1.1093 -0.2512  1.8818
   6823SM  C14F 8894   2.899   6.981  15.684  0.6570 -0.3677  0.3132
   6823SM  H14F 8895   2.888   6.987  15.574 -0.5632  0.3491  0.4538
   6823SM  H14G 8896   2.841   6.901  15.735 -0.0305  1.2999  2.3121
   6823SM  C15F 8897   3.051   6.966  15.712  0.0496  0.1235  0.6008
   6823SM  H15F 8898   3.058   6.960  15.823 -1.3709  0.7748  0.7414
   6823SM  H15G 8899   3.107   7.056  15.681  0.0389  0.2450  0.9293
   6823SM  C16F 8900   3.123   6.857  15.635  0.0166  0.0625 -0.3679
   6823SM  H16F 8901   3.089   6.761  15.681  3.6543 -1.2747 -0.1801
   6823SM  H16G 8902   3.233   6.858  15.646  0.2311 -2.8879 -1.2865
   6823SM  C17F 8903   3.094   6.855  15.488 -0.2168 -0.1744  0.5208
   6823SM  H17F 8904   3.110   6.959  15.450 -0.1253 -0.7368 -1.0604
   6823SM  H17G 8905   2.987   6.834  15.466  0.4912 -1.8414 -1.7403
   6823SM  C18F 8906   3.202   6.768  15.421  0.1480 -0.1490  0.4081
   6823SM  H18F 8907   3.305   6.803  15.440  0.7074 -1.7761  0.5603
   6823SM  H18G 8908   3.190   6.774  15.311  1.5812 -1.1000  0.1748
   6823SM  C19F 8909   3.194   6.618  15.464 -0.0781  0.1182 -0.5567
   6823SM  H19F 8910   3.232   6.617  15.568  0.7347 -0.0496 -0.8472
   6823SM  H19G 8911   3.268   6.554  15.411  0.6432  0.0604  0.5127
   6823SM  C20F 8912   3.050   6.563  15.461  0.8036  0.7766 -0.1019
   6823SM  H20F 8913   3.007   6.580  15.360  0.3941 -1.4780 -0.3691
   6823SM  H20G 8914   2.983   6.617  15.531 -3.1238 -0.4539 -2.5859
   6823SM  C21F 8915   3.041   6.404  15.488  0.1254 -0.2291  0.9549
   6823SM  H21F 8916   3.099   6.349  15.411  0.3423  1.2718  0.0093
   6823SM  H21G 8917   2.935   6.371  15.482 -0.3284  0.8865  2.2324
   6823SM  C22F 8918   3.093   6.367  15.630  0.1031  0.6631  0.8561
   6823SM  H22F 8919   3.199   6.400  15.628  1.0248 -2.0229  1.0069
   6823SM  H22G 8920   3.092   6.256  15.635  1.1536  0.5195 -1.2103
   6823SM  C23F 8921   3.014   6.428  15.742  0.9101  0.2186  0.8324
   6823SM  H23F 8922   3.042   6.535  15.751  0.1808  0.6465 -1.4384
   6823SM  H23G 8923   3.036   6.384  15.842  0.5003 -2.2175 -0.0725
   6823SM  H23H 8924   2.905   6.418  15.722  1.3993 -0.8101 -1.6930
   6923SM     N 8925   3.928   1.452  17.303 -0.0384 -0.1666  0.0493
   6923SM   C15 8926   3.982   1.333  17.230  0.6460  1.1905 -0.2151
   6923SM  H15A 8927   4.036   1.365  17.142  0.8936 -0.4743 -0.6997
   6923SM  H15B 8928   3.906   1.276  17.179  2.4231 -1.4558 -0.0974
   6923SM  H15C 8929   4.035   1.260  17.290 -0.7482  1.7159  1.7636
   6923SM   C14 8930   3.858   1.417  17.436 -0.4922 -0.1641  0.1504
   6923SM  H14A 8931   3.882   1.315  17.463  0.3996  0.3481  1.3672
   6923SM  H14B 8932   3.751   1.421  17.426 -0.5379 -0.3134  0.5542
   6923SM  H14C 8933   3.896   1.478  17.517  0.0887  0.6462 -0.6984
   6923SM   C13 8934   4.047   1.545  17.320 -0.6785  0.8826 -0.1003
   6923SM  H13A 8935   4.126   1.498  17.377 -2.1393 -0.0353  1.2721
   6923SM  H13B 8936   4.017   1.632  17.378  0.9336 -0.0138  2.2446
   6923SM  H13C 8937   4.094   1.569  17.226  1.0520  1.6841  0.9212
   6923SM   C12 8938   3.816   1.521  17.224  0.1736  0.4666 -0.0465
   6923SM  H12A 8939   3.853   1.586  17.146 -2.4256  2.3324  0.1636
   6923SM  H12B 8940   3.765   1.586  17.293  0.5383  0.0340  0.6346
   6923SM   C11 8941   3.707   1.423  17.158 -0.9831 -1.0654 -0.3375
   6923SM  H11A 8942   3.613   1.483  17.154 -0.1860  0.3240  0.8188
   6923SM  H11B 8943   3.687   1.341  17.230 -0.6409 -1.5243 -0.7657
   6923SM     P 8944   3.718   1.227  16.975  0.0163 -0.2420 -0.5409
   6923SM   O13 8945   3.769   1.221  16.839 -0.3197 -0.3024 -0.4769
   6923SM   O14 8946   3.775   1.130  17.070 -0.0832  0.0758 -0.4772
   6923SM   O11 8947   3.554   1.223  16.969  0.2365  0.0259 -0.2757
   6923SM   O12 8948   3.751   1.373  17.029  0.0950  0.8105 -0.0932
   6923SM   C1S 8949   3.478   1.335  16.920 -0.1400 -0.1716  0.2416
   6923SM   H1S 8950   3.540   1.427  16.912  0.2606 -0.5321 -1.0737
   6923SM   H1T 8951   3.393   1.357  16.987 -0.7925  1.3662 -1.0206
   6923SM    NF 8952   3.373   1.418  16.706  0.2846  0.1274  0.0373
   6923SM   HNF 8953   3.276   1.441  16.708  0.1978 -0.0265 -1.4330
   6923SM   C2S 8954   3.420   1.301  16.779  0.3271  0.5301  0.1100
   6923SM   H2S 8955   3.493   1.247  16.715 -2.5994 -1.0086 -2.1456
   6923SM   C3S 8956   3.309   1.193  16.807  0.4553 -0.6113 -0.3222
   6923SM   H3S 8957   3.232   1.235  16.876  0.5463  1.8229 -1.5969
   6923SM    O3 8958   3.357   1.076  16.875 -0.2951  0.3433  0.2085
   6923SM   HO3 8959   3.446   1.102  16.899 -0.5932 -0.8892  3.0718
   6923SM   C4S 8960   3.234   1.156  16.683 -0.6505 -0.3748  0.3527
   6923SM   H4S 8961   3.165   1.237  16.654  0.6853  1.6386  2.4356
   6923SM   C5S 8962   3.255   1.048  16.606 -0.3077  0.0624  0.6717
   6923SM   H5S 8963   3.329   0.968  16.624  0.6690  0.5388 -0.9923
   6923SM   C6S 8964   3.185   1.044  16.465  0.3993 -0.1378 -0.9154
   6923SM   H6S 8965   3.083   1.001  16.479  0.3628  0.9070  3.4562
   6923SM   H6T 8966   3.248   0.978  16.403  1.0413 -0.4310  0.0366
   6923SM   C7S 8967   3.153   1.176  16.389 -0.1640  0.1496  0.1316
   6923SM   H7S 8968   3.235   1.250  16.398  0.8854 -0.9472 -0.1258
   6923SM   H7T 8969   3.056   1.216  16.426 -0.5705  0.5105 -1.2597
   6923SM   C8S 8970   3.142   1.165  16.234 -0.7508 -0.1731 -0.2203
   6923SM   H8S 8971   3.224   1.103  16.192 -0.3253  0.8924 -1.0055
   6923SM   H8T 8972   3.158   1.270  16.199  2.0082 -0.8917 -1.4280
   6923SM   C9S 8973   3.003   1.119  16.188  0.1624  0.1849  0.6597
   6923SM   H9S 8974   2.921   1.180  16.231 -1.5936  0.0464 -2.2473
   6923SM   H9T 8975   2.984   1.016  16.225 -1.3874 -0.7723 -2.4991
   6923SM  C10S 8976   2.992   1.106  16.037  0.4359 -0.3788 -0.9928
   6923SM  H10S 8977   3.066   1.025  16.019  0.3101 -0.6655 -0.2640
   6923SM  H10T 8978   3.008   1.208  15.997 -1.9508  0.6888  0.5391
   6923SM  C11S 8979   2.852   1.067  15.984 -0.6520  0.4789 -0.5538
   6923SM  H11S 8980   2.772   1.141  16.005 -0.1196  0.8433  0.2431
   6923SM  H11T 8981   2.819   0.983  16.050  0.9086  1.5587  1.7538
   6923SM  C12S 8982   2.856   1.049  15.830  0.2575 -0.2979 -0.6765
   6923SM  H12S 8983   2.945   0.995  15.791  1.6125  0.8848  0.6600
   6923SM  H12T 8984   2.864   1.153  15.791  0.8521 -0.7009 -1.6683
   6923SM  C13S 8985   2.724   0.971  15.777 -0.1811  0.0772 -0.5579
   6923SM  H13S 8986   2.646   1.046  15.802 -0.4924 -0.2649 -0.5148
   6923SM  H13T 8987   2.714   0.871  15.824  0.1418 -0.3385 -1.3506
   6923SM  C14S 8988   2.725   0.955  15.628 -0.1008  0.1530 -0.2878
   6923SM  H14S 8989   2.740   1.055  15.582 -0.9812 -0.5192 -2.1133
   6923SM  H14T 8990   2.627   0.916  15.593 -0.3379 -0.8449  1.3590
   6923SM  C15S 8991   2.838   0.868  15.578 -0.8134  0.2082 -0.8972
   6923SM  H15S 8992   2.820   0.768  15.625 -0.5833  0.2945 -0.6263
   6923SM  H15T 8993   2.934   0.902  15.620 -1.3204 -0.0180  0.4862
   6923SM  C16S 8994   2.834   0.860  15.425  0.3489 -0.3586  0.3766
   6923SM  H16S 8995   2.836   0.965  15.387 -0.7802 -0.3213  0.3625
   6923SM  H16T 8996   2.741   0.807  15.396 -0.0428 -0.2566  1.4091
   6923SM  C17S 8997   2.946   0.767  15.367 -0.1867 -0.1415 -0.2112
   6923SM  H17S 8998   2.962   0.685  15.440 -1.7372 -0.1964  0.1020
   6923SM  H17T 8999   3.040   0.827  15.364 -0.4735  0.4562  1.4882
   6923SM  C18S 9000   2.923   0.697  15.233  0.1919 -0.3295  0.1699
   6923SM  H18S 9001   2.863   0.604  15.241  0.3154 -0.7240 -2.5869
   6923SM  H18T 9002   3.019   0.668  15.185 -0.0293 -1.2072  0.2368
   6923SM  H18U 9003   2.865   0.758  15.161 -1.2593 -0.3561  1.2827
   6923SM   C1F 9004   3.465   1.515  16.665 -0.2318 -0.2049  0.0901
   6923SM    OF 9005   3.583   1.494  16.684 -1.0181 -0.2593  0.2447
   6923SM   C2F 9006   3.405   1.650  16.612 -0.2040 -0.1061 -0.9440
   6923SM   H2F 9007   3.367   1.711  16.697  0.2345  0.6516 -1.2787
   6923SM   H2G 9008   3.313   1.634  16.553 -1.1100 -1.4443  0.7525
   6923SM   C3F 9009   3.506   1.716  16.520  0.4659 -0.1522  0.1116
   6923SM   H3F 9010   3.555   1.654  16.443  1.4073  1.7443 -0.8912
   6923SM   H3G 9011   3.586   1.763  16.582 -0.7312  0.2098  1.4241
   6923SM   C4F 9012   3.450   1.846  16.455 -0.1781 -0.1220 -0.0843
   6923SM   H4F 9013   3.530   1.912  16.415 -1.0739  0.1525 -1.5087
   6923SM   H4G 9014   3.407   1.915  16.530  1.8083  1.2090 -0.0716
   6923SM   C5F 9015   3.347   1.822  16.341 -0.6028  0.1070 -0.1951
   6923SM   H5F 9016   3.310   1.921  16.306 -0.5080 -0.0432 -0.7225
   6923SM   H5G 9017   3.264   1.764  16.387 -0.5423 -2.1914 -2.7119
   6923SM   C6F 9018   3.408   1.756  16.222 -0.3306 -0.1408  0.4163
   6923SM   H6F 9019   3.446   1.654  16.245  0.3547  0.1331  0.5222
   6923SM   H6G 9020   3.500   1.809  16.189  0.4816  0.1375  2.9041
   6923SM   C7F 9021   3.315   1.740  16.100 -0.1873 -0.0292 -0.3023
   6923SM   H7F 9022   3.270   1.836  16.065 -3.1986 -1.3651 -0.3797
   6923SM   H7G 9023   3.221   1.695  16.138  0.1285  0.5879  1.2909
   6923SM   C8F 9024   3.366   1.672  15.966 -0.2755 -1.1122  0.6688
   6923SM   H8F 9025   3.389   1.564  15.976 -0.8448 -1.3116 -0.1315
   6923SM   H8G 9026   3.454   1.729  15.929 -1.9797  0.5286 -1.1424
   6923SM   C9F 9027   3.269   1.675  15.853  0.9473  0.2618 -0.4551
   6923SM   H9F 9028   3.307   1.611  15.770 -0.1975 -0.0557 -0.7502
   6923SM   H9G 9029   3.257   1.784  15.835 -3.0558  0.5999  2.7003
   6923SM  C10F 9030   3.130   1.616  15.897  0.5880 -0.2546  0.0005
   6923SM  H10F 9031   3.079   1.700  15.948 -0.9373 -1.0463 -0.1652
   6923SM  H10G 9032   3.130   1.527  15.963  0.1340  1.7522  2.8760
   6923SM  C11F 9033   3.033   1.600  15.785 -0.1175  0.4941  0.9050
   6923SM  H11F 9034   3.031   1.686  15.715  0.9743  1.1582  1.6618
   6923SM  H11G 9035   2.929   1.607  15.824  0.1471 -0.0635  1.7421
   6923SM  C12F 9036   3.032   1.465  15.712 -0.9606  0.0459  0.0198
   6923SM  H12F 9037   3.032   1.373  15.774 -1.6907  0.0885  0.0917
   6923SM  H12G 9038   3.117   1.464  15.640 -0.6505 -0.9005  0.3834
   6923SM  C13F 9039   2.908   1.458  15.614 -0.3249 -0.1191  0.9674
   6923SM  H13F 9040   2.900   1.558  15.565  2.0017 -0.4825 -0.3153
   6923SM  H13G 9041   2.818   1.434  15.674 -1.5284 -1.4018 -1.2432
   6923SM  C14F 9042   2.917   1.345  15.513  0.2790 -0.2435  0.1758
   6923SM  H14F 9043   2.906   1.245  15.560 -0.9183 -0.2984 -0.2041
   6923SM  H14G 9044   3.010   1.336  15.453 -1.1592 -0.3873 -2.1260
   6923SM  C15F 9045   2.823   1.363  15.398 -0.2243 -1.2822  0.2898
   6923SM  H15F 9046   2.866   1.436  15.326 -0.8046 -1.5056 -0.2906
   6923SM  H15G 9047   2.736   1.426  15.429 -0.7044 -1.5059 -0.5939
   6923SM  C16F 9048   2.764   1.242  15.328 -0.6904 -0.1503  0.6480
   6923SM  H16F 9049   2.701   1.189  15.403  1.0881 -2.2575  0.7340
   6923SM  H16G 9050   2.844   1.170  15.301 -0.4569  0.4575 -0.3184
   6923SM  C17F 9051   2.681   1.286  15.207  0.6455 -0.3583  0.2883
   6923SM  H17F 9052   2.742   1.358  15.146  1.5462 -2.3745 -1.3268
   6923SM  H17G 9053   2.590   1.339  15.240 -0.2028 -2.4578  1.4685
   6923SM  C18F 9054   2.649   1.177  15.113  0.4599 -0.0981  0.2958
   6923SM  H18F 9055   2.559   1.120  15.146 -0.6996  0.7064 -1.3318
   6923SM  H18G 9056   2.742   1.117  15.110  3.0722  3.6561  0.1269
   6923SM  C19F 9057   2.624   1.233  14.971  0.1200 -0.4511 -0.0464
   6923SM  H19F 9058   2.638   1.145  14.903 -0.4187  0.3764 -1.2602
   6923SM  H19G 9059   2.715   1.290  14.944 -0.0117  0.6231  1.6722
   6923SM  C20F 9060   2.491   1.296  14.939 -0.2728 -0.4806 -0.5581
   6923SM  H20F 9061   2.513   1.403  14.959 -1.1879 -0.3646 -0.1314
   6923SM  H20G 9062   2.414   1.268  15.014  0.1598 -2.2287 -0.7360
   6923SM  C21F 9063   2.437   1.267  14.797  0.0932  0.0345 -0.2165
   6923SM  H21F 9064   2.468   1.163  14.775  1.7611  0.8670 -2.1504
   6923SM  H21G 9065   2.497   1.341  14.739  0.9650  1.0293  1.8274
   6923SM  C22F 9066   2.285   1.290  14.793  0.2603  0.4542 -0.0819
   6923SM  H22F 9067   2.246   1.301  14.897  1.2986 -3.4691  0.8643
   6923SM  H22G 9068   2.238   1.195  14.761  0.2859  0.3917  0.0642
   6923SM  C23F 9069   2.226   1.397  14.700 -0.1169  0.6988 -0.4417
   6923SM  H23F 9070   2.258   1.501  14.723  0.2494  0.6815 -0.8546
   6923SM  H23G 9071   2.116   1.387  14.708 -0.5111  2.3836 -2.6466
   6923SM  H23H 9072   2.258   1.363  14.600 -1.0881  0.6201 -0.7402
   7023SM     N 9073   3.000   0.368  17.229  0.0185 -0.4105  0.2994
   7023SM   C15 9074   3.047   0.275  17.339 -0.5694  0.1865 -0.3243
   7023SM  H15A 9075   3.022   0.319  17.434  3.1017 -0.8395  1.3113
   7023SM  H15B 9076   3.154   0.268  17.326 -0.4474  0.3328  0.5568
   7023SM  H15C 9077   3.002   0.178  17.326  0.8721 -0.1357 -4.5338
   7023SM   C14 9078   2.851   0.385  17.235 -0.1492  0.4656  1.1869
   7023SM  H14A 9079   2.810   0.288  17.214  3.0979 -0.3516 -2.4794
   7023SM  H14B 9080   2.817   0.453  17.157  0.2370 -0.1394  0.4852
   7023SM  H14C 9081   2.813   0.420  17.329  0.7257 -0.5684  1.9473
   7023SM   C13 9082   3.067   0.504  17.247  0.1586  0.0950 -0.6804
   7023SM  H13A 9083   3.026   0.564  17.326  0.6412  0.0475 -0.3869
   7023SM  H13B 9084   3.061   0.567  17.159  2.6635  1.2646 -0.0961
   7023SM  H13C 9085   3.173   0.490  17.262 -0.0565 -0.8671 -0.0086
   7023SM   C12 9086   3.037   0.325  17.087  0.1702 -0.1086 -0.3743
   7023SM  H12A 9087   2.998   0.396  17.016  0.3356 -1.1656 -1.5539
   7023SM  H12B 9088   2.985   0.232  17.070 -1.0404 -0.1305  2.8282
   7023SM   C11 9089   3.193   0.286  17.067  0.4947 -0.1547 -0.5301
   7023SM  H11A 9090   3.253   0.362  17.121  1.1900  0.3482 -1.9732
   7023SM  H11B 9091   3.215   0.290  16.958  2.7960  0.9490 -0.0854
   7023SM     P 9092   3.175   0.022  17.062  0.3119 -0.0515 -0.1643
   7023SM   O13 9093   3.165  -0.078  17.169 -0.0637  0.7054 -0.3850
   7023SM   O14 9094   3.053   0.038  16.983  0.6984  0.4975  0.7768
   7023SM   O11 9095   3.299  -0.004  16.969 -0.2436 -0.4927 -0.6394
   7023SM   O12 9096   3.219   0.161  17.124  0.1783  0.2064  0.9155
   7023SM   C1S 9097   3.298  -0.096  16.861  0.3029  0.5900  0.3499
   7023SM   H1S 9098   3.220  -0.173  16.881 -0.9866  1.7675  0.0117
   7023SM   H1T 9099   3.398  -0.143  16.861  0.0791  0.0294 -1.3411
   7023SM    NF 9100   3.275  -0.139  16.615  0.2166 -0.4380 -0.0962
   7023SM   HNF 9101   3.342  -0.146  16.541  2.4443  2.3103  1.4415
   7023SM   C2S 9102   3.278  -0.029  16.714  0.1460  0.1397 -0.5867
   7023SM   H2S 9103   3.178   0.020  16.716 -0.0660 -0.2212 -1.8230
   7023SM   C3S 9104   3.379   0.081  16.692 -0.6524 -0.4571 -0.4588
   7023SM   H3S 9105   3.471   0.019  16.695  0.6125  1.3659  0.6770
   7023SM    O3 9106   3.391   0.177  16.801 -0.0844  0.4772  0.1025
   7023SM   HO3 9107   3.349   0.124  16.869  2.6290  1.0853  2.4268
   7023SM   C4S 9108   3.363   0.145  16.556  0.0415 -0.1479  0.8563
   7023SM   H4S 9109   3.412   0.089  16.475 -0.9793  1.4567 -0.9539
   7023SM   C5S 9110   3.292   0.256  16.533  0.5559 -0.1443  0.3712
   7023SM   H5S 9111   3.247   0.314  16.615  0.4326  0.2211  0.0552
   7023SM   C6S 9112   3.258   0.313  16.398  0.0461  0.1129 -0.3141
   7023SM   H6S 9113   3.283   0.421  16.396  1.2955 -0.1601 -0.1034
   7023SM   H6T 9114   3.148   0.299  16.384  0.0591 -1.9019  1.1384
   7023SM   C7S 9115   3.329   0.258  16.277 -0.1520  0.0734 -0.8592
   7023SM   H7S 9116   3.308   0.151  16.261  0.4381  0.0704 -1.6608
   7023SM   H7T 9117   3.439   0.262  16.293 -0.4629 -0.8205  2.2099
   7023SM   C8S 9118   3.290   0.326  16.151 -0.3076  0.2981  0.3273
   7023SM   H8S 9119   3.331   0.429  16.155 -3.1916  1.5169  0.4465
   7023SM   H8T 9120   3.179   0.320  16.149 -0.2979 -0.1000  0.9364
   7023SM   C9S 9121   3.346   0.260  16.029  0.0134  0.0070  0.7037
   7023SM   H9S 9122   3.299   0.160  16.019  0.8981 -0.3974  0.4441
   7023SM   H9T 9123   3.455   0.242  16.026  0.2038  0.5524 -4.2551
   7023SM  C10S 9124   3.311   0.338  15.895  0.6306  0.1673  0.7445
   7023SM  H10S 9125   3.368   0.433  15.888 -1.5451  1.7460  2.7208
   7023SM  H10T 9126   3.201   0.357  15.895  0.2323 -1.9181  1.0443
   7023SM  C11S 9127   3.344   0.251  15.775  0.0628  0.5941  0.5756
   7023SM  H11S 9128   3.276   0.164  15.786 -0.4457  0.8407 -0.4921
   7023SM  H11T 9129   3.446   0.210  15.795  0.3776  1.7642  1.5035
   7023SM  C12S 9130   3.340   0.320  15.640  0.4748 -0.0332 -0.0005
   7023SM  H12S 9131   3.423   0.394  15.641  1.9327 -1.6144  0.4957
   7023SM  H12T 9132   3.251   0.382  15.618 -0.9852 -1.7358  0.8648
   7023SM  C13S 9133   3.372   0.216  15.533  0.1522  0.3205  0.4989
   7023SM  H13S 9134   3.292   0.140  15.537  0.8177 -0.4488 -0.6049
   7023SM  H13T 9135   3.470   0.169  15.558  0.7113  1.3816  0.3900
   7023SM  C14S 9136   3.383   0.280  15.394 -0.6039 -0.2505  1.0014
   7023SM  H14S 9137   3.463   0.356  15.387 -0.9842  0.3034  2.3355
   7023SM  H14T 9138   3.289   0.339  15.382 -0.0903  0.3470 -0.1936
   7023SM  C15S 9139   3.412   0.183  15.277 -0.3898  0.3331  0.4492
   7023SM  H15S 9140   3.339   0.101  15.295 -0.5112  0.2673 -0.3083
   7023SM  H15T 9141   3.518   0.149  15.276 -0.2003  0.6236 -3.8224
   7023SM  C16S 9142   3.389   0.246  15.139 -0.4407  0.4698  0.1728
   7023SM  H16S 9143   3.308   0.320  15.152  0.4016  1.8398 -1.8289
   7023SM  H16T 9144   3.345   0.182  15.060 -0.1566  0.5403 -0.0492
   7023SM  C17S 9145   3.517   0.321  15.082  0.3527 -0.3453  0.6756
   7023SM  H17S 9146   3.583   0.240  15.043 -0.5442 -0.0454 -1.5838
   7023SM  H17T 9147   3.567   0.377  15.164 -0.4741  0.5509  0.5741
   7023SM  C18S 9148   3.476   0.424  14.969  0.0234 -0.1721 -0.0105
   7023SM  H18S 9149   3.418   0.368  14.892  1.0413  0.4894 -1.3030
   7023SM  H18T 9150   3.566   0.461  14.915  0.3306 -2.4889 -1.2125
   7023SM  H18U 9151   3.413   0.503  15.014  0.9690  1.1538 -0.9329
   7023SM   C1F 9152   3.180  -0.236  16.619 -0.0777 -0.6642  0.4424
   7023SM    OF 9153   3.081  -0.220  16.688 -0.2847  0.9514  0.6957
   7023SM   C2F 9154   3.195  -0.357  16.519 -0.0830  0.1309  0.3691
   7023SM   H2F 9155   3.301  -0.365  16.488  0.1626  1.0227  0.9433
   7023SM   H2G 9156   3.137  -0.329  16.429 -1.5200 -0.4979  1.0679
   7023SM   C3F 9157   3.150  -0.495  16.574 -0.2905  0.1489 -0.3146
   7023SM   H3F 9158   3.041  -0.475  16.587 -0.4759 -0.6362 -0.6295
   7023SM   H3G 9159   3.192  -0.514  16.676 -2.3655 -1.3294  0.3340
   7023SM   C4F 9160   3.174  -0.614  16.476  0.1158 -0.7191 -0.5930
   7023SM   H4F 9161   3.127  -0.700  16.528 -1.5595  0.3944 -0.1714
   7023SM   H4G 9162   3.283  -0.635  16.474  0.2794  0.1526 -1.6048
   7023SM   C5F 9163   3.108  -0.599  16.343 -0.0478  0.1098  0.0050
   7023SM   H5F 9164   3.154  -0.509  16.297  0.5499  0.1524  0.6690
   7023SM   H5G 9165   2.999  -0.577  16.344  0.0903  0.8362 -0.2638
   7023SM   C6F 9166   3.134  -0.711  16.244  0.6128  0.2519 -0.4600
   7023SM   H6F 9167   3.075  -0.699  16.150 -1.6215 -0.6938  0.7425
   7023SM   H6G 9168   3.077  -0.798  16.284 -1.1208  2.1878  1.4852
   7023SM   C7F 9169   3.276  -0.758  16.205 -0.2149  0.7867  0.0367
   7023SM   H7F 9170   3.278  -0.837  16.127 -0.3346  0.0773  0.7275
   7023SM   H7G 9171   3.326  -0.800  16.296  0.2423  1.4044  0.0750
   7023SM   C8F 9172   3.355  -0.646  16.147  0.3093  0.0388 -0.4908
   7023SM   H8F 9173   3.394  -0.577  16.224 -0.0606 -1.1236  0.7801
   7023SM   H8G 9174   3.277  -0.591  16.089 -0.7253 -1.6078 -0.7306
   7023SM   C9F 9175   3.459  -0.682  16.040  0.1339 -0.5953  0.6432
   7023SM   H9F 9176   3.524  -0.593  16.024 -0.3658 -0.3253  0.0996
   7023SM   H9G 9177   3.403  -0.680  15.944  3.4658  2.0022 -1.4658
   7023SM  C10F 9178   3.545  -0.800  16.083  0.4172 -0.1546 -0.6989
   7023SM  H10F 9179   3.478  -0.886  16.102 -0.3967  0.6020 -0.0415
   7023SM  H10G 9180   3.572  -0.776  16.188  2.7987  1.1994 -1.5520
   7023SM  C11F 9181   3.664  -0.830  15.993  0.5195 -0.8001  0.4657
   7023SM  H11F 9182   3.729  -0.907  16.040  0.4820 -0.6613  0.7500
   7023SM  H11G 9183   3.728  -0.738  15.990 -0.7101  0.1863  2.4998
   7023SM  C12F 9184   3.638  -0.872  15.848  0.1624 -0.4182 -0.4864
   7023SM  H12F 9185   3.729  -0.879  15.784  0.0454  0.9942 -0.8405
   7023SM  H12G 9186   3.590  -0.786  15.796 -0.0944 -1.4510 -2.0240
   7023SM  C13F 9187   3.544  -0.994  15.834  0.3487  0.3771 -0.7531
   7023SM  H13F 9188   3.445  -0.995  15.884 -0.3620  0.6578 -2.0950
   7023SM  H13G 9189   3.606  -1.080  15.868  2.4908  1.2223 -2.3468
   7023SM  C14F 9190   3.512  -1.030  15.691  0.2303  0.2887 -0.1082
   7023SM  H14F 9191   3.492  -0.930  15.646  1.2003  0.9868  0.9714
   7023SM  H14G 9192   3.417  -1.087  15.678 -0.1709  0.3050  2.2894
   7023SM  C15F 9193   3.620  -1.101  15.614 -0.2995 -0.6154  0.1849
   7023SM  H15F 9194   3.637  -1.202  15.658 -0.7710  0.3632  2.7723
   7023SM  H15G 9195   3.714  -1.042  15.615 -1.1013  0.8913 -2.5104
   7023SM  C16F 9196   3.588  -1.116  15.459  0.3077 -0.9665 -0.0293
   7023SM  H16F 9197   3.600  -1.018  15.408 -1.6725 -1.0293 -0.7277
   7023SM  H16G 9198   3.486  -1.160  15.452  0.4497 -1.3646  0.3141
   7023SM  C17F 9199   3.682  -1.214  15.389 -0.7475 -0.0771 -0.2964
   7023SM  H17F 9200   3.694  -1.307  15.450 -1.4738 -0.5127 -0.8105
   7023SM  H17G 9201   3.778  -1.158  15.391  0.6627 -2.3293 -0.3798
   7023SM  C18F 9202   3.657  -1.243  15.239  0.4760  0.2705 -0.5900
   7023SM  H18F 9203   3.745  -1.214  15.177  1.2217  1.7368  1.0417
   7023SM  H18G 9204   3.568  -1.184  15.210 -0.8198 -2.3077 -2.2268
   7023SM  C19F 9205   3.616  -1.384  15.217 -0.0808 -0.1053 -0.1271
   7023SM  H19F 9206   3.595  -1.385  15.108  0.0772  1.8749 -0.1976
   7023SM  H19G 9207   3.521  -1.416  15.266 -1.2549 -0.0762 -2.2621
   7023SM  C20F 9208   3.730  -1.478  15.249 -0.0252  0.0288 -0.0058
   7023SM  H20F 9209   3.758  -1.483  15.357  2.4534 -1.9840 -0.6504
   7023SM  H20G 9210   3.827  -1.446  15.206 -0.1874  2.6881  1.3851
   7023SM  C21F 9211   3.699  -1.621  15.199 -0.0365 -0.2079  0.5116
   7023SM  H21F 9212   3.603  -1.654  15.244 -0.6861  0.8255 -0.0684
   7023SM  H21G 9213   3.788  -1.683  15.224 -0.5628 -1.3450 -0.3798
   7023SM  C22F 9214   3.685  -1.637  15.046 -0.3251  0.3586  0.5317
   7023SM  H22F 9215   3.601  -1.578  15.004 -0.8144  0.2296  1.3115
   7023SM  H22G 9216   3.666  -1.745  15.033  1.2832  0.0953  0.0390
   7023SM  C23F 9217   3.805  -1.599  14.960  0.0659  0.3307  0.3635
   7023SM  H23F 9218   3.839  -1.502  15.001  2.4315 -0.3892  0.2915
   7023SM  H23G 9219   3.777  -1.594  14.852 -0.2390 -0.0129  0.4285
   7023SM  H23H 9220   3.890  -1.669  14.975 -1.0190 -1.4233 -1.2251
   7123SM     N 9221   4.836   7.354  17.245  0.5967  0.7607 -0.3291
   7123SM   C15 9222   4.730   7.458  17.252  0.1464 -0.6454 -0.2915
   7123SM  H15A 9223   4.736   7.488  17.356  1.2598  0.9643 -0.7829
   7123SM  H15B 9224   4.630   7.423  17.230 -0.1390 -0.8739  1.2161
   7123SM  H15C 9225   4.753   7.529  17.175 -2.1290 -0.7954 -1.1818
   7123SM   C14 9226   4.957   7.395  17.318 -0.4611  0.2536 -0.1866
   7123SM  H14A 9227   5.033   7.319  17.306  0.2701  1.0125 -0.5118
   7123SM  H14B 9228   4.938   7.410  17.423  1.3861  3.4577 -0.1738
   7123SM  H14C 9229   5.008   7.483  17.281 -1.8718  1.5677  0.8915
   7123SM   C13 9230   4.776   7.234  17.309 -0.0979 -0.4602  0.1287
   7123SM  H13A 9231   4.695   7.192  17.252  1.2524  0.7851 -2.9268
   7123SM  H13B 9232   4.746   7.256  17.410 -0.1687 -0.3077  0.0742
   7123SM  H13C 9233   4.847   7.152  17.314  1.0198  0.4450 -0.4264
   7123SM   C12 9234   4.863   7.327  17.101 -0.3374 -0.7453 -0.9899
   7123SM  H12A 9235   4.905   7.418  17.062 -0.1443 -0.0156  0.8197
   7123SM  H12B 9236   4.773   7.312  17.044  0.5411  1.0028 -2.9364
   7123SM   C11 9237   4.960   7.216  17.061  0.3017  0.9974 -0.0195
   7123SM  H11A 9238   4.938   7.186  16.957 -1.6150  0.9427  0.3614
   7123SM  H11B 9239   4.939   7.126  17.122  0.1997  0.9364 -0.1454
   7123SM     P 9240   5.191   7.341  16.996 -0.3923  0.0323  0.3503
   7123SM   O13 9241   5.122   7.466  16.960  0.3655  0.2297  0.0597
   7123SM   O14 9242   5.325   7.343  17.056  0.8469  0.8504 -0.1552
   7123SM   O11 9243   5.191   7.256  16.858 -0.2991  0.0692 -0.3721
   7123SM   O12 9244   5.095   7.257  17.090  0.3259 -0.7923 -0.3416
   7123SM   C1S 9245   5.223   7.115  16.853  0.2600  0.2574  0.1622
   7123SM   H1S 9246   5.150   7.050  16.906  1.8931 -1.9874 -0.2209
   7123SM   H1T 9247   5.313   7.090  16.912 -0.3142  1.9012  1.8539
   7123SM    NF 9248   5.249   6.934  16.700 -0.4811  0.3514 -0.5533
   7123SM   HNF 9249   5.342   6.897  16.702 -0.1927  1.0849  0.8761
   7123SM   C2S 9250   5.240   7.078  16.707 -0.3029 -0.8151  0.1515
   7123SM   H2S 9251   5.159   7.122  16.645  0.8548 -0.1731 -0.9712
   7123SM   C3S 9252   5.369   7.154  16.645  0.2093  0.6210  0.8873
   7123SM   H3S 9253   5.456   7.133  16.711  1.4669 -1.4434 -1.2697
   7123SM    O3 9254   5.363   7.299  16.643 -0.4367 -0.3483  0.0319
   7123SM   HO3 9255   5.283   7.303  16.696 -0.8581 -3.0323 -0.2389
   7123SM   C4S 9256   5.389   7.097  16.509 -0.7496 -0.6405  0.1076
   7123SM   H4S 9257   5.435   6.997  16.506 -3.0928 -1.8496  1.3179
   7123SM   C5S 9258   5.356   7.151  16.391  0.2865 -0.1789  0.1291
   7123SM   H5S 9259   5.325   7.256  16.385  1.0590  0.1028  0.7813
   7123SM   C6S 9260   5.374   7.081  16.259 -0.4082 -0.1658 -0.7883
   7123SM   H6S 9261   5.467   7.019  16.258  1.5718  2.4427  1.8998
   7123SM   H6T 9262   5.377   7.157  16.179 -3.0419  2.4118  1.3607
   7123SM   C7S 9263   5.253   6.987  16.236  0.0203  0.0610  0.1248
   7123SM   H7S 9264   5.158   7.040  16.257  0.2617  0.9931 -0.9869
   7123SM   H7T 9265   5.268   6.907  16.312 -0.7135 -0.0428  0.1614
   7123SM   C8S 9266   5.246   6.933  16.092  0.1609  0.3479  0.3222
   7123SM   H8S 9267   5.185   6.841  16.106  0.5300  0.1093  0.3952
   7123SM   H8T 9268   5.353   6.916  16.066 -0.2097 -0.3093 -0.8066
   7123SM   C9S 9269   5.175   7.025  15.994  0.2238  0.3295  0.2046
   7123SM   H9S 9270   5.233   7.114  15.962  0.2166  0.3509  0.2509
   7123SM   H9T 9271   5.079   7.066  16.032 -0.9212 -0.7730 -1.3216
   7123SM  C10S 9272   5.139   6.953  15.863  0.0854  0.0179  0.3819
   7123SM  H10S 9273   5.066   6.873  15.889 -1.1642  1.3889  1.2225
   7123SM  H10T 9274   5.229   6.899  15.826 -0.3185 -0.8112  0.5685
   7123SM  C11S 9275   5.091   7.048  15.753 -0.0079  0.0583 -0.2244
   7123SM  H11S 9276   5.003   7.111  15.782 -0.7222 -0.7976 -0.4939
   7123SM  H11T 9277   5.062   6.980  15.670  0.7484  1.3053 -1.5470
   7123SM  C12S 9278   5.199   7.144  15.681  0.1524  0.1031 -0.4274
   7123SM  H12S 9279   5.285   7.074  15.677 -0.2681 -0.4019 -1.0101
   7123SM  H12T 9280   5.224   7.229  15.747  0.8730  0.6913 -1.4288
   7123SM  C13S 9281   5.157   7.203  15.544 -0.1579 -0.7853 -0.0574
   7123SM  H13S 9282   5.102   7.295  15.572  0.0758 -0.7048  0.1484
   7123SM  H13T 9283   5.088   7.131  15.497 -0.5095  0.4610 -1.5356
   7123SM  C14S 9284   5.267   7.236  15.446 -0.2701  0.0864 -0.2850
   7123SM  H14S 9285   5.226   7.271  15.349 -2.6252  1.2004  1.0329
   7123SM  H14T 9286   5.332   7.146  15.445 -0.2420 -0.2044  4.7905
   7123SM  C15S 9287   5.355   7.353  15.498 -0.6606 -0.3916  0.0354
   7123SM  H15S 9288   5.399   7.328  15.596 -1.3813  0.0436  0.4809
   7123SM  H15T 9289   5.292   7.443  15.515 -0.5698 -0.2298 -0.4674
   7123SM  C16S 9290   5.469   7.399  15.403  0.4103  0.6353 -0.7111
   7123SM  H16S 9291   5.437   7.383  15.297 -1.8421 -0.9471  0.1263
   7123SM  H16T 9292   5.555   7.333  15.428  0.1550  1.3964  2.6194
   7123SM  C17S 9293   5.514   7.539  15.419 -0.8835 -0.9135 -0.7794
   7123SM  H17S 9294   5.529   7.551  15.529  0.1078  1.2464 -1.1180
   7123SM  H17T 9295   5.437   7.608  15.379  0.4359  1.5740  0.7252
   7123SM  C18S 9296   5.651   7.563  15.348 -0.0717  0.7595 -0.2602
   7123SM  H18S 9297   5.652   7.562  15.237  2.1077  1.4775 -0.2802
   7123SM  H18T 9298   5.720   7.481  15.378  1.1646  1.0623 -2.1317
   7123SM  H18U 9299   5.700   7.658  15.377  1.6458 -0.1660  0.0192
   7123SM   C1F 9300   5.137   6.862  16.703 -0.6733 -0.5766  0.2773
   7123SM    OF 9301   5.028   6.918  16.718 -0.1787 -0.0839  0.0857
   7123SM   C2F 9302   5.157   6.710  16.687 -0.1938  0.0389  0.2634
   7123SM   H2F 9303   5.127   6.667  16.785 -0.8245  1.4179  0.6944
   7123SM   H2G 9304   5.262   6.684  16.662 -1.0385 -0.7409 -2.9156
   7123SM   C3F 9305   5.082   6.653  16.570  0.7243  0.1634  0.1941
   7123SM   H3F 9306   4.973   6.673  16.583  0.8238 -0.0234  1.3892
   7123SM   H3G 9307   5.108   6.546  16.584 -4.3495 -1.1223  2.0787
   7123SM   C4F 9308   5.133   6.716  16.440  0.5779 -0.0438 -0.6813
   7123SM   H4F 9309   5.242   6.699  16.443  0.8917  1.8176  0.1315
   7123SM   H4G 9310   5.104   6.823  16.443 -2.3986 -0.7474 -0.9683
   7123SM   C5F 9311   5.070   6.661  16.312 -0.0336 -0.4425 -0.5176
   7123SM   H5F 9312   5.085   6.701  16.209 -0.9187 -2.3537 -1.4265
   7123SM   H5G 9313   4.960   6.657  16.323 -0.1437 -1.0459 -1.6947
   7123SM   C6F 9314   5.104   6.518  16.292 -0.4104  0.2291  0.6717
   7123SM   H6F 9315   5.105   6.470  16.392  0.6524 -0.6474  0.2575
   7123SM   H6G 9316   5.205   6.491  16.254 -0.8741 -0.5984 -0.0276
   7123SM   C7F 9317   5.011   6.445  16.189 -0.2807  0.1349 -0.0186
   7123SM   H7F 9318   4.906   6.439  16.226 -0.6122 -2.2263 -1.1956
   7123SM   H7G 9319   5.048   6.342  16.172 -0.6594 -0.0695  0.3752
   7123SM   C8F 9320   4.997   6.513  16.043  0.1776 -0.1483  0.2269
   7123SM   H8F 9321   4.947   6.612  16.058 -0.6747 -0.1646 -2.0448
   7123SM   H8G 9322   4.933   6.450  15.977  1.2127 -1.4610  0.4344
   7123SM   C9F 9323   5.125   6.526  15.950  0.0372  0.0827 -0.2874
   7123SM   H9F 9324   5.179   6.429  15.949 -0.0833 -0.1392  3.0275
   7123SM   H9G 9325   5.190   6.584  16.019 -1.1348  2.5203 -1.1397
   7123SM  C10F 9326   5.119   6.604  15.822 -0.1896 -0.2232  0.8099
   7123SM  H10F 9327   5.204   6.676  15.815 -1.2715  0.9648 -1.7026
   7123SM  H10G 9328   5.031   6.672  15.825 -1.0501 -1.1992 -0.8408
   7123SM  C11F 9329   5.100   6.514  15.702  0.4636  0.6389  0.0084
   7123SM  H11F 9330   4.999   6.471  15.720  0.3827  1.0213  0.4677
   7123SM  H11G 9331   5.171   6.428  15.697  2.0195  1.7919  1.1191
   7123SM  C12F 9332   5.125   6.592  15.577 -0.4038  0.1495  0.8989
   7123SM  H12F 9333   5.233   6.615  15.570  0.1341 -2.3377  0.0117
   7123SM  H12G 9334   5.070   6.689  15.573 -0.4786  0.1163  1.1340
   7123SM  C13F 9335   5.086   6.517  15.447 -0.1696  0.9106  0.0665
   7123SM  H13F 9336   4.979   6.487  15.453 -0.0055  0.1400 -0.6035
   7123SM  H13G 9337   5.142   6.421  15.444 -0.7796  0.5407  0.2114
   7123SM  C14F 9338   5.104   6.604  15.316  0.4801  0.2320 -0.2606
   7123SM  H14F 9339   5.213   6.625  15.309  0.5415 -0.3805 -1.1966
   7123SM  H14G 9340   5.042   6.696  15.329 -1.0586 -1.1146  3.6398
   7123SM  C15F 9341   5.046   6.532  15.190  0.0284 -0.7189 -0.0372
   7123SM  H15F 9342   4.951   6.483  15.220  0.2487 -0.3564  1.3269
   7123SM  H15G 9343   5.127   6.459  15.168  1.1132  0.5540 -0.3979
   7123SM  C16F 9344   5.029   6.623  15.070 -0.2813 -0.0925 -0.3230
   7123SM  H16F 9345   5.112   6.696  15.065 -2.1954  2.2750  0.2845
   7123SM  H16G 9346   4.937   6.685  15.079  0.5371  1.1082 -0.0337
   7123SM  C17F 9347   5.011   6.559  14.933  0.0398 -0.2907 -0.0361
   7123SM  H17F 9348   4.973   6.629  14.856  0.3517  0.3860  0.4234
   7123SM  H17G 9349   4.943   6.471  14.946 -1.1763  0.8468  1.6183
   7123SM  C18F 9350   5.142   6.510  14.874 -0.0374  0.2078  0.7204
   7123SM  H18F 9351   5.196   6.441  14.943 -0.3126 -0.3831  0.3587
   7123SM  H18G 9352   5.216   6.592  14.868 -1.1437  1.2988  1.3933
   7123SM  C19F 9353   5.119   6.433  14.731 -0.2780 -0.0442  0.1189
   7123SM  H19F 9354   5.055   6.492  14.661 -0.7539 -0.0303  0.5551
   7123SM  H19G 9355   5.063   6.339  14.747  1.1962 -0.9958 -0.2090
   7123SM  C20F 9356   5.252   6.403  14.667  0.3647 -0.3623 -0.1183
   7123SM  H20F 9357   5.243   6.311  14.605  1.0090 -0.7686  0.3667
   7123SM  H20G 9358   5.314   6.360  14.750 -0.7038  0.8458  1.3571
   7123SM  C21F 9359   5.322   6.518  14.599  0.2122 -0.1964 -0.0301
   7123SM  H21F 9360   5.318   6.615  14.654 -1.6519  1.0618 -2.1865
   7123SM  H21G 9361   5.268   6.544  14.506 -0.9732 -1.3395  0.3041
   7123SM  C22F 9362   5.471   6.506  14.572 -0.4584  0.8716 -0.2051
   7123SM  H22F 9363   5.493   6.418  14.508  0.2275 -0.2356  1.4818
   7123SM  H22G 9364   5.530   6.508  14.667 -1.1069 -0.7202  0.2745
   7123SM  C23F 9365   5.528   6.624  14.492  0.4102 -0.0665  0.1898
   7123SM  H23F 9366   5.519   6.724  14.539  3.6183  0.9456 -1.0726
   7123SM  H23G 9367   5.476   6.625  14.393 -0.9721 -0.0306  0.8920
   7123SM  H23H 9368   5.636   6.607  14.473  0.0254 -0.6472 -1.7679
   7223SM     N 9369   3.547   2.338  17.085 -0.6683 -0.5049 -0.2450
   7223SM   C15 9370   3.509   2.272  16.952  0.0254 -0.6981  0.0581
   7223SM  H15A 9371   3.425   2.205  16.964  1.5803 -2.3935  2.2126
   7223SM  H15B 9372   3.583   2.209  16.905 -0.6203 -1.8014  0.5041
   7223SM  H15C 9373   3.494   2.344  16.872 -0.0636 -1.2491 -0.4308
   7223SM   C14 9374   3.427   2.413  17.140 -0.5834 -0.6363  0.4420
   7223SM  H14A 9375   3.352   2.340  17.169 -0.1155 -1.2755  0.0757
   7223SM  H14B 9376   3.389   2.486  17.071  0.5774  0.6519  1.1153
   7223SM  H14C 9377   3.458   2.465  17.230  0.1250  0.4362 -0.4069
   7223SM   C13 9378   3.590   2.226  17.177 -0.1325 -0.1267 -1.1324
   7223SM  H13A 9379   3.667   2.160  17.139  0.6758 -0.0155  0.2531
   7223SM  H13B 9380   3.503   2.169  17.204 -1.4250  1.3857 -1.9266
   7223SM  H13C 9381   3.644   2.258  17.265 -0.0993 -2.1000 -0.3856
   7223SM   C12 9382   3.671   2.435  17.064  0.7478  0.8360  0.2344
   7223SM  H12A 9383   3.676   2.489  17.157 -1.5116  1.0326  0.3088
   7223SM  H12B 9384   3.647   2.507  16.988  0.3796  2.6171  1.9599
   7223SM   C11 9385   3.811   2.374  17.030  0.0881 -0.2794 -0.9790
   7223SM  H11A 9386   3.882   2.459  17.021 -1.2929  1.5067  2.7985
   7223SM  H11B 9387   3.795   2.314  16.937 -0.7595 -2.5540  0.5441
   7223SM     P 9388   3.981   2.195  17.115 -0.0436 -0.0644 -0.3482
   7223SM   O13 9389   4.093   2.267  17.180  0.1588 -0.1723 -0.1715
   7223SM   O14 9390   3.936   2.064  17.170  0.5247 -0.5719  0.0166
   7223SM   O11 9391   4.004   2.186  16.963 -0.2338 -0.2566 -0.2598
   7223SM   O12 9392   3.853   2.291  17.128  0.2109 -0.7831 -0.6078
   7223SM   C1S 9393   4.023   2.066  16.885  0.6597 -0.2870  0.2847
   7223SM   H1S 9394   3.922   2.025  16.861  0.3775  0.6408 -0.1752
   7223SM   H1T 9395   4.071   1.989  16.949  1.1364 -1.0483 -0.9405
   7223SM    NF 9396   4.091   1.985  16.662 -0.1256  0.5296 -0.2353
   7223SM   HNF 9397   4.155   1.909  16.662  1.0543  1.4865  0.5665
   7223SM   C2S 9398   4.105   2.091  16.753 -0.6547 -0.2672  0.4902
   7223SM   H2S 9399   4.068   2.177  16.694  0.5142 -2.9785 -4.8499
   7223SM   C3S 9400   4.252   2.131  16.794  0.4484  0.4241 -0.1232
   7223SM   H3S 9401   4.314   2.043  16.821 -0.5004 -0.0898  0.4194
   7223SM    O3 9402   4.265   2.213  16.912 -0.0545  0.1766 -0.5497
   7223SM   HO3 9403   4.176   2.225  16.947 -0.4077  1.3364 -1.7491
   7223SM   C4S 9404   4.322   2.192  16.669  0.3710  0.5976 -0.4171
   7223SM   H4S 9405   4.266   2.280  16.634 -1.0446  0.9861  2.4689
   7223SM   C5S 9406   4.437   2.149  16.603 -0.5125  0.0848 -0.8718
   7223SM   H5S 9407   4.497   2.069  16.649  0.1969  1.1590  0.1478
   7223SM   C6S 9408   4.507   2.234  16.503 -0.0576 -0.5782  0.1533
   7223SM   H6S 9409   4.615   2.247  16.525 -0.0841 -1.4096  0.8109
   7223SM   H6T 9410   4.478   2.341  16.494 -1.6249 -0.8384  1.6633
   7223SM   C7S 9411   4.497   2.168  16.361 -0.7525 -0.3261  0.1801
   7223SM   H7S 9412   4.523   2.061  16.370  1.6394  0.3226  2.0994
   7223SM   H7T 9413   4.570   2.226  16.301 -0.1054  0.2050  1.4302
   7223SM   C8S 9414   4.359   2.189  16.296 -0.1457 -0.7079  0.0519
   7223SM   H8S 9415   4.336   2.297  16.287  0.5459 -0.4845  0.8590
   7223SM   H8T 9416   4.281   2.146  16.362  0.2976 -3.3128 -0.9696
   7223SM   C9S 9417   4.333   2.119  16.165  0.7634  0.0336  0.4087
   7223SM   H9S 9418   4.311   2.011  16.179  1.6351 -0.1298  0.6142
   7223SM   H9T 9419   4.430   2.134  16.113 -0.6001  1.4709 -1.8670
   7223SM  C10S 9420   4.224   2.189  16.074 -0.3945 -0.0003 -0.6641
   7223SM  H10S 9421   4.261   2.292  16.055 -0.1199  0.0497  0.1081
   7223SM  H10T 9422   4.120   2.193  16.114 -0.6379  1.2444 -1.3721
   7223SM  C11S 9423   4.200   2.124  15.939 -0.1928 -1.0595 -0.9101
   7223SM  H11S 9424   4.121   2.175  15.880 -1.0689 -0.4079  0.7830
   7223SM  H11T 9425   4.170   2.020  15.964  0.8898 -0.8192  1.6797
   7223SM  C12S 9426   4.323   2.128  15.849  1.2205 -0.5200  0.4032
   7223SM  H12S 9427   4.405   2.071  15.897  2.3864  1.6055  1.0648
   7223SM  H12T 9428   4.347   2.236  15.837 -0.4093 -0.2439 -0.8671
   7223SM  C13S 9429   4.308   2.069  15.709  0.2157  1.0198 -0.3470
   7223SM  H13S 9430   4.206   2.093  15.672 -0.7090 -2.3807 -0.2709
   7223SM  H13T 9431   4.316   1.959  15.718  0.4763  1.0915  0.3596
   7223SM  C14S 9432   4.425   2.107  15.622  1.2493  0.1069 -0.9394
   7223SM  H14S 9433   4.522   2.092  15.673  0.2562  0.8286  1.2620
   7223SM  H14T 9434   4.408   2.214  15.597 -0.9839  0.1575  0.5196
   7223SM  C15S 9435   4.447   2.022  15.496 -0.3373  0.1775 -0.0013
   7223SM  H15S 9436   4.500   2.086  15.422  0.9519 -0.2897  0.4880
   7223SM  H15T 9437   4.348   1.990  15.457 -0.0958 -0.7935  0.1569
   7223SM  C16S 9438   4.521   1.893  15.532  0.8320  1.2316 -0.2708
   7223SM  H16S 9439   4.472   1.854  15.624  0.3662 -0.2070 -1.0871
   7223SM  H16T 9440   4.631   1.899  15.548  1.0154 -0.6515 -0.6047
   7223SM  C17S 9441   4.498   1.775  15.434 -0.2617 -1.3404  0.1335
   7223SM  H17S 9442   4.548   1.798  15.338 -2.5240  4.3870 -0.0647
   7223SM  H17T 9443   4.391   1.772  15.402  0.4643 -0.4299 -2.5979
   7223SM  C18S 9444   4.547   1.653  15.509 -0.2126 -0.0267 -0.1302
   7223SM  H18S 9445   4.653   1.663  15.539 -0.5611  0.3978  1.0008
   7223SM  H18T 9446   4.549   1.565  15.441  2.0471  0.1489 -0.3679
   7223SM  H18U 9447   4.473   1.629  15.588  0.8047  1.8171  1.4742
   7223SM   C1F 9448   3.976   1.974  16.607 -0.1221  0.3061  0.0687
   7223SM    OF 9449   3.890   2.057  16.619 -0.1491 -0.8642  0.3092
   7223SM   C2F 9450   3.950   1.841  16.541  0.6812  0.2595  0.0477
   7223SM   H2F 9451   3.912   1.776  16.623  1.8316  1.1609  1.3526
   7223SM   H2G 9452   4.041   1.787  16.509 -0.1336 -1.6998  0.8729
   7223SM   C3F 9453   3.843   1.854  16.431 -0.7359  0.4306 -0.2919
   7223SM   H3F 9454   3.747   1.895  16.469 -1.7504 -1.3884 -0.7462
   7223SM   H3G 9455   3.819   1.752  16.394  1.1599 -0.0589 -0.2863
   7223SM   C4F 9456   3.886   1.931  16.305 -0.7166  0.1508  0.3419
   7223SM   H4F 9457   3.975   1.881  16.261 -0.6669 -0.9947  1.6708
   7223SM   H4G 9458   3.931   2.029  16.333  0.2091 -0.4116  0.8832
   7223SM   C5F 9459   3.778   1.938  16.201 -0.6120  0.1802  0.6939
   7223SM   H5F 9460   3.702   2.014  16.229 -1.1071  0.7702 -2.0097
   7223SM   H5G 9461   3.720   1.845  16.191  0.4115 -0.5801  1.5696
   7223SM   C6F 9462   3.821   1.968  16.055  0.2451  0.1695 -0.0492
   7223SM   H6F 9463   3.913   1.914  16.025  1.3453  0.8452  1.9189
   7223SM   H6G 9464   3.848   2.076  16.059 -0.3048  0.2891  0.6312
   7223SM   C7F 9465   3.707   1.945  15.951  0.2542 -0.7886 -0.4145
   7223SM   H7F 9466   3.605   1.979  15.978  0.5445  0.2161 -0.5261
   7223SM   H7G 9467   3.706   1.836  15.931  0.9299 -1.2101  1.5792
   7223SM   C8F 9468   3.731   2.014  15.817  0.1316  0.1454 -0.4917
   7223SM   H8F 9469   3.836   2.051  15.808  0.7596 -1.5456 -0.4103
   7223SM   H8G 9470   3.669   2.105  15.799  1.1552  0.6793 -1.4777
   7223SM   C9F 9471   3.701   1.928  15.696 -0.2714 -0.3990  0.0471
   7223SM   H9F 9472   3.789   1.868  15.664  0.2659  1.0148 -1.2523
   7223SM   H9G 9473   3.696   2.005  15.617  2.0547 -1.8075 -1.6123
   7223SM  C10F 9474   3.572   1.844  15.688 -0.0076 -0.7203 -0.2901
   7223SM  H10F 9475   3.480   1.900  15.718  0.8592 -0.1224  1.4286
   7223SM  H10G 9476   3.591   1.763  15.761 -0.7316 -0.7904 -0.1635
   7223SM  C11F 9477   3.548   1.789  15.540  0.4747  0.4047 -0.5848
   7223SM  H11F 9478   3.645   1.738  15.519  0.2840 -0.0476 -0.3748
   7223SM  H11G 9479   3.550   1.865  15.459 -2.4550  0.8273 -0.3644
   7223SM  C12F 9480   3.429   1.699  15.510 -0.4016 -0.2660  0.3368
   7223SM  H12F 9481   3.332   1.752  15.517  0.3539  1.0207  1.4804
   7223SM  H12G 9482   3.450   1.620  15.585  2.9016  0.4516  0.3108
   7223SM  C13F 9483   3.449   1.619  15.382 -0.6952 -0.4274 -0.1714
   7223SM  H13F 9484   3.542   1.558  15.387 -0.1743  0.1144 -2.1224
   7223SM  H13G 9485   3.460   1.689  15.296 -2.6660 -0.9674 -0.9193
   7223SM  C14F 9486   3.337   1.515  15.340 -0.2520 -0.2147 -0.0655
   7223SM  H14F 9487   3.244   1.562  15.301 -1.2754 -2.3941 -0.3660
   7223SM  H14G 9488   3.299   1.465  15.431  0.3299  0.1914  0.4094
   7223SM  C15F 9489   3.389   1.409  15.228 -0.0472 -0.9811  0.0869
   7223SM  H15F 9490   3.309   1.337  15.201 -0.9122 -0.3007  0.7454
   7223SM  H15G 9491   3.480   1.355  15.262  2.7036  3.3241  0.3324
   7223SM  C16F 9492   3.417   1.484  15.095 -0.1844  0.6743  0.0927
   7223SM  H16F 9493   3.494   1.562  15.113  1.2923 -0.4259 -1.1086
   7223SM  H16G 9494   3.325   1.531  15.055 -0.7443 -0.0178  0.5487
   7223SM  C17F 9495   3.468   1.376  14.990  0.0124 -0.3184 -0.0705
   7223SM  H17F 9496   3.382   1.314  14.958  1.1663 -1.1502 -1.6814
   7223SM  H17G 9497   3.542   1.309  15.040 -0.3587  0.5410  1.7294
   7223SM  C18F 9498   3.527   1.439  14.863 -0.0864  0.2798 -0.5334
   7223SM  H18F 9499   3.602   1.515  14.892 -0.6294  0.3239  0.8017
   7223SM  H18G 9500   3.446   1.488  14.805 -0.8405  0.3476  0.5493
   7223SM  C19F 9501   3.581   1.337  14.763 -0.1140 -0.1615  0.7875
   7223SM  H19F 9502   3.498   1.273  14.726 -2.4831  3.0087  0.2455
   7223SM  H19G 9503   3.651   1.264  14.810  1.1587  0.2286 -0.4351
   7223SM  C20F 9504   3.638   1.404  14.640  0.1473 -0.7064  0.0156
   7223SM  H20F 9505   3.732   1.455  14.671  0.0667  0.1450 -1.0996
   7223SM  H20G 9506   3.565   1.481  14.607  0.1171 -0.4980  0.5538
   7223SM  C21F 9507   3.656   1.305  14.523 -0.6843  0.3735 -0.0505
   7223SM  H21F 9508   3.553   1.277  14.491 -0.8368  1.5661 -0.6649
   7223SM  H21G 9509   3.718   1.217  14.550  0.0247  1.1255  0.8425
   7223SM  C22F 9510   3.707   1.370  14.393 -0.1412 -0.1799 -0.0392
   7223SM  H22F 9511   3.810   1.409  14.402 -0.6234  1.4700 -1.2525
   7223SM  H22G 9512   3.648   1.462  14.378  0.1750  0.0168 -0.0867
   7223SM  C23F 9513   3.691   1.294  14.258 -0.4697 -0.3965 -0.0666
   7223SM  H23F 9514   3.583   1.282  14.238 -0.2374 -1.6013 -0.7054
   7223SM  H23G 9515   3.747   1.198  14.271  0.9911  0.5908  1.4267
   7223SM  H23H 9516   3.732   1.358  14.178  1.3433 -0.1149  1.0171
   7323SM     N 9517   3.562   0.061  17.196 -0.1753 -0.4757  0.1519
   7323SM   C15 9518   3.562   0.127  17.063  0.5267  0.1348 -0.2655
   7323SM  H15A 9519   3.617   0.219  17.079  0.2074  0.5806 -1.6500
   7323SM  H15B 9520   3.460   0.142  17.029  0.0478  0.9033  1.4103
   7323SM  H15C 9521   3.617   0.066  16.993  0.7759  0.4049 -0.3030
   7323SM   C14 9522   3.472   0.138  17.287  0.6113 -0.7418  0.1036
   7323SM  H14A 9523   3.370   0.157  17.256  1.0244  0.2118 -0.7258
   7323SM  H14B 9524   3.515   0.235  17.304  0.4658 -0.8272  0.9971
   7323SM  H14C 9525   3.464   0.083  17.380  0.3496 -0.7872  0.0565
   7323SM   C13 9526   3.503  -0.073  17.170 -0.0040 -0.6083 -0.0446
   7323SM  H13A 9527   3.454  -0.116  17.256  1.1036  0.8990  1.4019
   7323SM  H13B 9528   3.581  -0.143  17.144  1.0977 -0.4351  2.5430
   7323SM  H13C 9529   3.441  -0.074  17.081  1.8156  0.3941 -1.3768
   7323SM   C12 9530   3.694   0.069  17.273 -0.7472 -0.5482 -0.2028
   7323SM  H12A 9531   3.692   0.028  17.373 -0.3317 -2.2597 -0.8531
   7323SM  H12B 9532   3.723   0.172  17.286 -0.2094 -0.9411  2.5085
   7323SM   C11 9533   3.815   0.011  17.205  0.2982 -0.0853  0.7458
   7323SM  H11A 9534   3.820   0.050  17.101 -0.6610 -0.0547  0.7070
   7323SM  H11B 9535   3.816  -0.099  17.186  1.4028  0.4071 -2.7084
   7323SM     P 9536   4.002   0.185  17.284 -0.4335  0.5619  0.1885
   7323SM   O13 9537   3.902   0.276  17.343 -0.0685 -0.1702 -0.6762
   7323SM   O14 9538   4.136   0.170  17.353  0.1250 -0.5510  0.1668
   7323SM   O11 9539   4.020   0.215  17.127 -0.3219  0.1932 -0.4231
   7323SM   O12 9540   3.933   0.042  17.279 -0.0744  0.4014  0.4429
   7323SM   C1S 9541   4.084   0.125  17.037  0.3906  0.4737 -0.3708
   7323SM   H1S 9542   4.081   0.017  17.063  0.3102  1.3597  4.0887
   7323SM   H1T 9543   4.190   0.154  17.025  1.9779 -3.3466  2.4250
   7323SM    NF 9544   4.081   0.031  16.803  0.9905  0.3944  0.8124
   7323SM   HNF 9545   4.159   0.068  16.754  0.8329 -1.0521 -0.6116
   7323SM   C2S 9546   4.008   0.119  16.895  0.0525 -0.0877 -0.6749
   7323SM   H2S 9547   3.904   0.082  16.914  1.0823 -2.4621  0.8143
   7323SM   C3S 9548   3.993   0.259  16.836  0.7260 -0.3306  0.3941
   7323SM   H3S 9549   4.089   0.307  16.808 -0.0198  0.7325 -0.4453
   7323SM    O3 9550   3.922   0.346  16.919  0.3713  0.0180  0.4444
   7323SM   HO3 9551   3.915   0.301  17.003  3.5609 -0.0738  0.7629
   7323SM   C4S 9552   3.921   0.248  16.700  0.6022  0.0756 -0.3081
   7323SM   H4S 9553   3.975   0.268  16.607 -1.2393  2.2406 -0.9844
   7323SM   C5S 9554   3.799   0.197  16.682 -0.0365 -0.1461 -0.6570
   7323SM   H5S 9555   3.756   0.155  16.774  1.2039 -0.0189  0.0038
   7323SM   C6S 9556   3.730   0.164  16.552  0.7950  0.0630 -0.3738
   7323SM   H6S 9557   3.637   0.225  16.555  0.3471 -0.6218 -0.2046
   7323SM   H6T 9558   3.704   0.056  16.556 -0.9689  0.4608 -0.1423
   7323SM   C7S 9559   3.808   0.183  16.416 -0.4308 -0.2561  0.3048
   7323SM   H7S 9560   3.905   0.130  16.434 -1.6396 -2.2819  1.2846
   7323SM   H7T 9561   3.812   0.292  16.399 -1.9670 -0.2514 -0.1538
   7323SM   C8S 9562   3.748   0.121  16.283  0.1927 -0.1698 -0.7027
   7323SM   H8S 9563   3.639   0.138  16.272 -0.1732 -1.1792  0.9421
   7323SM   H8T 9564   3.774   0.016  16.309  0.0732  0.3272  1.6013
   7323SM   C9S 9565   3.827   0.164  16.160  0.0987  0.0438 -0.2020
   7323SM   H9S 9566   3.919   0.102  16.164  0.0456  0.0188  2.4381
   7323SM   H9T 9567   3.871   0.266  16.150  1.4978 -0.4315  0.8110
   7323SM  C10S 9568   3.759   0.120  16.032  0.1613 -0.5335 -0.0915
   7323SM  H10S 9569   3.649   0.135  16.028  0.0288 -1.6366 -1.1443
   7323SM  H10T 9570   3.783   0.013  16.015  1.0105 -0.3921  0.1774
   7323SM  C11S 9571   3.806   0.197  15.906  0.1967  0.1679  0.4498
   7323SM  H11S 9572   3.917   0.192  15.904  0.1716 -1.2180  1.0778
   7323SM  H11T 9573   3.787   0.303  15.930  1.7822  0.4043  0.8011
   7323SM  C12S 9574   3.762   0.128  15.775 -0.4099 -0.2355  0.0655
   7323SM  H12S 9575   3.656   0.157  15.763 -0.5083 -0.3579  0.6016
   7323SM  H12T 9576   3.779   0.018  15.782  1.3346  0.0511  1.0636
   7323SM  C13S 9577   3.842   0.181  15.654 -0.9301 -0.4360 -0.7536
   7323SM  H13S 9578   3.941   0.132  15.644 -0.4137  0.4954 -0.3108
   7323SM  H13T 9579   3.856   0.290  15.667  0.7738 -0.5289 -1.5290
   7323SM  C14S 9580   3.776   0.166  15.516 -0.2051  0.3096  0.2798
   7323SM  H14S 9581   3.677   0.215  15.506 -0.3971 -0.2313 -0.5429
   7323SM  H14T 9582   3.745   0.059  15.514 -0.2416  0.3311 -0.2800
   7323SM  C15S 9583   3.861   0.196  15.393  0.5964  0.4253  0.1629
   7323SM  H15S 9584   3.939   0.117  15.399 -0.2244 -0.5937 -1.5647
   7323SM  H15T 9585   3.917   0.291  15.390  1.7689 -0.2364 -2.6148
   7323SM  C16S 9586   3.789   0.180  15.258  0.1410 -0.2340 -0.5064
   7323SM  H16S 9587   3.720   0.266  15.244 -0.0599 -0.1827  0.6589
   7323SM  H16T 9588   3.742   0.079  15.251 -0.8834  0.3682 -3.2127
   7323SM  C17S 9589   3.893   0.181  15.143  0.3957  0.0690 -0.6166
   7323SM  H17S 9590   3.982   0.236  15.179 -0.8376  0.0754  2.7734
   7323SM  H17T 9591   3.849   0.227  15.051 -1.1641 -3.4527 -1.8181
   7323SM  C18S 9592   3.932   0.030  15.109  0.2496 -0.6050 -0.2414
   7323SM  H18S 9593   3.985   0.025  15.012 -0.2208 -1.0504 -0.4804
   7323SM  H18T 9594   3.839  -0.031  15.103 -2.0891  2.5812  0.4928
   7323SM  H18U 9595   3.999  -0.013  15.186 -0.5443 -2.1853 -0.3913
   7323SM   C1F 9596   4.052  -0.098  16.806 -0.2898  0.3164 -1.1752
   7323SM    OF 9597   3.958  -0.141  16.875  0.3022 -0.1189  0.4933
   7323SM   C2F 9598   4.156  -0.197  16.742 -0.1217 -0.9920  0.1669
   7323SM   H2F 9599   4.215  -0.243  16.823  2.6436  0.5260 -0.8448
   7323SM   H2G 9600   4.221  -0.136  16.676  1.3812 -1.9225  0.7529
   7323SM   C3F 9601   4.092  -0.309  16.657 -0.1034 -1.0901  0.5192
   7323SM   H3F 9602   4.021  -0.364  16.722  0.3661 -1.8264  0.4113
   7323SM   H3G 9603   4.169  -0.386  16.636 -0.6298 -1.1143 -1.5057
   7323SM   C4F 9604   4.020  -0.251  16.538  0.1105 -0.1794  0.4378
   7323SM   H4F 9605   3.942  -0.175  16.562  0.6551 -0.0358  1.8335
   7323SM   H4G 9606   3.964  -0.332  16.486  0.2171 -0.7900  1.2626
   7323SM   C5F 9607   4.116  -0.196  16.437  0.1437  0.2357  0.4909
   7323SM   H5F 9608   4.185  -0.280  16.415 -0.4087 -0.1457  0.1970
   7323SM   H5G 9609   4.175  -0.113  16.480 -0.4820  0.7887  0.2939
   7323SM   C6F 9610   4.047  -0.142  16.303  0.6060 -0.4004 -0.4247
   7323SM   H6F 9611   4.036  -0.032  16.310 -1.4596 -0.3227 -3.1004
   7323SM   H6G 9612   3.942  -0.173  16.284 -0.2177  0.5765  2.0160
   7323SM   C7F 9613   4.144  -0.174  16.184  0.5319  0.4239  0.1329
   7323SM   H7F 9614   4.133  -0.283  16.168 -2.8044  0.5134  1.1476
   7323SM   H7G 9615   4.246  -0.135  16.203  0.4863  1.6705 -1.8949
   7323SM   C8F 9616   4.100  -0.107  16.053 -0.7865 -0.2024 -0.8586
   7323SM   H8F 9617   4.082   0.003  16.058 -1.1604 -0.2578 -0.9351
   7323SM   H8G 9618   4.002  -0.146  16.018 -0.9769 -0.2486 -0.2836
   7323SM   C9F 9619   4.205  -0.136  15.940  0.1459  0.5528  0.4509
   7323SM   H9F 9620   4.197  -0.245  15.923 -0.5704  0.8727 -1.5506
   7323SM   H9G 9621   4.305  -0.103  15.977  0.5652 -0.5424  0.3196
   7323SM  C10F 9622   4.155  -0.059  15.820 -0.6651 -0.2980  0.5199
   7323SM  H10F 9623   4.168   0.050  15.836 -1.0022 -0.3159  0.9262
   7323SM  H10G 9624   4.050  -0.089  15.799 -0.1571 -0.4882 -2.0675
   7323SM  C11F 9625   4.228  -0.103  15.688 -0.1102  0.3420 -0.7232
   7323SM  H11F 9626   4.211  -0.211  15.671 -2.8769  0.3792  1.1121
   7323SM  H11G 9627   4.336  -0.086  15.705  0.3162 -2.3859 -0.2788
   7323SM  C12F 9628   4.196  -0.007  15.575  0.0715  0.3329  0.2867
   7323SM  H12F 9629   4.087   0.008  15.557  0.3960  0.0938 -2.2817
   7323SM  H12G 9630   4.230  -0.061  15.484  0.5202  1.8877 -0.4948
   7323SM  C13F 9631   4.276   0.128  15.577  0.2080 -0.5388 -0.4182
   7323SM  H13F 9632   4.385   0.129  15.558  0.1160  0.3969 -0.9624
   7323SM  H13G 9633   4.258   0.157  15.683 -0.0920 -0.1604 -0.5678
   7323SM  C14F 9634   4.222   0.225  15.474 -0.1578  0.2750  0.4221
   7323SM  H14F 9635   4.121   0.262  15.502 -1.2083 -0.0443 -2.5789
   7323SM  H14G 9636   4.214   0.179  15.373  0.6076  1.4520 -0.2050
   7323SM  C15F 9637   4.311   0.351  15.454  0.0664 -0.3384  0.3499
   7323SM  H15F 9638   4.406   0.305  15.421  0.0996  0.8605 -1.3938
   7323SM  H15G 9639   4.337   0.379  15.558 -1.4270 -0.0026  0.6565
   7323SM  C16F 9640   4.266   0.462  15.361 -0.0577 -1.0590 -0.5547
   7323SM  H16F 9641   4.176   0.511  15.404 -0.5187 -2.4927  0.1776
   7323SM  H16G 9642   4.234   0.420  15.264  1.3017  0.7091 -1.8535
   7323SM  C17F 9643   4.365   0.576  15.331 -0.0943 -0.2797  0.7329
   7323SM  H17F 9644   4.405   0.623  15.423 -0.1101  2.2671 -0.4739
   7323SM  H17G 9645   4.314   0.652  15.268 -1.1784 -1.7343 -0.2191
   7323SM  C18F 9646   4.483   0.524  15.249 -0.4323 -0.2076  0.7602
   7323SM  H18F 9647   4.448   0.475  15.156 -2.0264  0.5810  0.9178
   7323SM  H18G 9648   4.521   0.440  15.312  0.2679 -0.7732 -0.3738
   7323SM  C19F 9649   4.588   0.633  15.219 -0.3238  0.0555  0.1014
   7323SM  H19F 9650   4.639   0.671  15.310  0.3206 -0.8845  0.1554
   7323SM  H19G 9651   4.531   0.722  15.184  0.7072  0.7283  0.0944
   7323SM  C20F 9652   4.682   0.585  15.110 -0.6968 -0.0964  0.6253
   7323SM  H20F 9653   4.635   0.577  15.009  2.3968 -1.2383 -0.8669
   7323SM  H20G 9654   4.714   0.479  15.117 -0.3480 -0.0668 -0.3029
   7323SM  C21F 9655   4.801   0.684  15.097  0.4013 -0.1799 -0.5690
   7323SM  H21F 9656   4.752   0.780  15.068 -0.4528 -1.0579 -2.1537
   7323SM  H21G 9657   4.861   0.640  15.014  1.7460  1.2673 -0.4215
   7323SM  C22F 9658   4.895   0.680  15.213  0.0147 -0.5166 -0.1867
   7323SM  H22F 9659   4.945   0.582  15.224  0.3220 -0.4168 -0.6774
   7323SM  H22G 9660   4.850   0.691  15.314  0.2882 -1.1393  0.0059
   7323SM  C23F 9661   4.997   0.790  15.205  0.0164  0.1848  0.1267
   7323SM  H23F 9662   5.083   0.768  15.272  1.0972  3.2124 -0.1383
   7323SM  H23G 9663   4.962   0.890  15.238  0.5810  0.6254 -0.6012
   7323SM  H23H 9664   5.038   0.796  15.103  0.0119 -2.5654 -0.1074
   7423SM     N 9665   7.154   3.969  16.859 -0.3850 -1.0822  0.2888
   7423SM   C15 9666   7.134   3.929  17.001 -0.1003 -0.0395  0.7067
   7423SM  H15A 9667   7.224   3.908  17.058  0.0696  0.6456  0.7028
   7423SM  H15B 9668   7.073   3.840  17.000 -1.1679  0.6677  1.1855
   7423SM  H15C 9669   7.070   4.002  17.049 -0.9930 -1.2256  1.3579
   7423SM   C14 9670   7.214   3.863  16.784 -0.7343  0.5456 -0.3790
   7423SM  H14A 9671   7.185   3.761  16.808  0.7931 -0.1357 -1.2480
   7423SM  H14B 9672   7.320   3.856  16.807 -0.8871 -1.3249 -0.0652
   7423SM  H14C 9673   7.207   3.893  16.680  1.4038  2.2682 -0.0895
   7423SM   C13 9674   7.017   3.982  16.809  0.0973 -0.5430 -0.1236
   7423SM  H13A 9675   6.967   4.071  16.844  1.6828  0.2118  0.3066
   7423SM  H13B 9676   6.962   3.895  16.841  0.9867 -0.5545  1.4579
   7423SM  H13C 9677   7.014   3.987  16.701 -1.4573  1.1613 -0.0521
   7423SM   C12 9678   7.231   4.096  16.840  0.0143 -0.4361  0.4204
   7423SM  H12A 9679   7.176   4.178  16.885  0.0664  0.0689 -0.3999
   7423SM  H12B 9680   7.230   4.113  16.733 -0.0629  0.0877  0.5003
   7423SM   C11 9681   7.375   4.107  16.892  0.2115  0.3227  0.5433
   7423SM  H11A 9682   7.388   4.071  16.997  0.6440 -1.5364 -0.1063
   7423SM  H11B 9683   7.390   4.217  16.899 -0.4534  0.3362  2.2085
   7423SM     P 9684   7.618   4.052  16.847 -0.2000 -0.1058  0.1386
   7423SM   O13 9685   7.645   4.187  16.904  0.6847 -0.0200 -0.2386
   7423SM   O14 9686   7.644   3.937  16.938  0.1144  0.7294 -0.7272
   7423SM   O11 9687   7.711   4.039  16.722  0.3981  0.8203  0.1638
   7423SM   O12 9688   7.462   4.046  16.800  0.3698  0.0774 -0.0270
   7423SM   C1S 9689   7.738   3.909  16.664  0.7261  0.2056 -0.5183
   7423SM   H1S 9690   7.644   3.857  16.637  0.0845  0.3049  1.3588
   7423SM   H1T 9691   7.792   3.848  16.740  1.3334  2.0686  0.6075
   7423SM    NF 9692   7.846   3.795  16.484 -0.3535 -0.2951  0.0510
   7423SM   HNF 9693   7.922   3.737  16.512 -0.3889 -1.1108 -1.4279
   7423SM   C2S 9694   7.827   3.924  16.537  0.0401  0.2114 -0.5300
   7423SM   H2S 9695   7.777   3.986  16.460  2.5547  2.7182 -0.3350
   7423SM   C3S 9696   7.957   4.004  16.566 -0.2446 -0.1464  0.0031
   7423SM   H3S 9697   8.013   3.947  16.643 -1.7941  1.4089  2.4425
   7423SM    O3 9698   7.949   4.116  16.654  0.1023 -0.6019  0.7325
   7423SM   HO3 9699   7.863   4.101  16.693  0.1749  2.3728  2.3364
   7423SM   C4S 9700   8.039   4.034  16.447 -0.0561 -0.1438 -1.3866
   7423SM   H4S 9701   7.979   4.041  16.356 -0.4967 -0.1360 -1.1010
   7423SM   C5S 9702   8.174   4.038  16.437 -0.7356 -0.0174 -0.4006
   7423SM   H5S 9703   8.241   4.024  16.524 -1.1392  1.0066  0.0839
   7423SM   C6S 9704   8.255   4.068  16.313  0.5168 -0.3559  0.0150
   7423SM   H6S 9705   8.204   4.072  16.214 -0.4885  2.5769  0.5333
   7423SM   H6T 9706   8.334   3.990  16.310  1.9470  1.0514 -1.5111
   7423SM   C7S 9707   8.326   4.206  16.323 -0.1655  0.3537  1.1937
   7423SM   H7S 9708   8.388   4.204  16.416  0.1947  0.5835  0.9649
   7423SM   H7T 9709   8.249   4.286  16.317 -3.0599 -2.2857  0.5231
   7423SM   C8S 9710   8.410   4.217  16.201  0.1487 -0.0365  0.8758
   7423SM   H8S 9711   8.343   4.228  16.114  0.4846 -0.8991  0.4954
   7423SM   H8T 9712   8.464   4.120  16.189  0.8466  0.7371 -4.1926
   7423SM   C9S 9713   8.511   4.331  16.203 -0.4025  0.0295  0.0906
   7423SM   H9S 9714   8.578   4.308  16.289  0.1944  2.5915  0.4058
   7423SM   H9T 9715   8.471   4.433  16.223  0.3259  0.4628 -0.6453
   7423SM  C10S 9716   8.611   4.330  16.084 -0.3942 -0.1634  0.3889
   7423SM  H10S 9717   8.554   4.346  15.990  1.3452 -2.3022 -1.1179
   7423SM  H10T 9718   8.641   4.226  16.062  0.6957 -0.0593  1.2663
   7423SM  C11S 9719   8.723   4.429  16.101  0.0362 -0.0627  0.4367
   7423SM  H11S 9720   8.780   4.398  16.191 -0.2766  1.0000  1.0181
   7423SM  H11T 9721   8.681   4.528  16.128  0.3501  0.0359  0.5650
   7423SM  C12S 9722   8.814   4.437  15.974  0.9283  0.3871 -0.0202
   7423SM  H12S 9723   8.826   4.332  15.940 -0.5167 -0.1261  0.9720
   7423SM  H12T 9724   8.915   4.476  16.002  1.3930 -0.8752  0.1585
   7423SM  C13S 9725   8.749   4.518  15.861 -0.4203 -0.3028 -0.1844
   7423SM  H13S 9726   8.720   4.615  15.907 -0.3052 -0.7754  0.9107
   7423SM  H13T 9727   8.661   4.468  15.817 -2.2056  0.1385  2.6302
   7423SM  C14S 9728   8.838   4.533  15.733 -0.2032  0.0178 -0.6537
   7423SM  H14S 9729   8.941   4.557  15.767 -0.4102  1.0233 -0.7011
   7423SM  H14T 9730   8.814   4.630  15.685  1.8243  0.7871 -0.2321
   7423SM  C15S 9731   8.843   4.408  15.657  0.1129  0.5163  0.5778
   7423SM  H15S 9732   8.740   4.367  15.646  0.4684 -0.5037  0.8848
   7423SM  H15T 9733   8.878   4.328  15.726  0.7854 -0.0087 -0.3385
   7423SM  C16S 9734   8.923   4.421  15.525  0.4466  0.1045 -0.6076
   7423SM  H16S 9735   8.937   4.317  15.488 -0.1728 -0.4807  0.7316
   7423SM  H16T 9736   9.023   4.466  15.539 -0.1148  0.9576  0.8739
   7423SM  C17S 9737   8.851   4.500  15.422  0.6898 -0.1146  0.0336
   7423SM  H17S 9738   8.855   4.607  15.452  0.4490  0.0796 -0.6210
   7423SM  H17T 9739   8.741   4.481  15.427  0.8585 -1.3704 -0.7700
   7423SM  C18S 9740   8.895   4.478  15.275  0.1889 -0.2320 -0.1301
   7423SM  H18S 9741   8.863   4.377  15.243 -0.4670 -0.1294  0.1847
   7423SM  H18T 9742   9.005   4.495  15.269 -0.2437  2.8285 -1.4548
   7423SM  H18U 9743   8.854   4.556  15.208 -1.3582 -0.7975  0.1076
   7423SM   C1F 9744   7.751   3.746  16.398  0.0987  1.1040 -0.3833
   7423SM    OF 9745   7.644   3.809  16.387  0.3251 -0.4440 -0.0323
   7423SM   C2F 9746   7.779   3.618  16.328 -0.3849 -0.5430  0.0021
   7423SM   H2F 9747   7.746   3.538  16.398 -3.3131  1.5303  1.1949
   7423SM   H2G 9748   7.888   3.608  16.309 -0.3586  1.2231 -1.0181
   7423SM   C3F 9749   7.720   3.627  16.186  0.3234 -0.3771  0.9012
   7423SM   H3F 9750   7.750   3.722  16.135 -1.1926  0.7503  2.0129
   7423SM   H3G 9751   7.611   3.641  16.198  0.2622  0.5594 -0.4842
   7423SM   C4F 9752   7.755   3.505  16.103 -0.1923  0.8811 -0.3072
   7423SM   H4F 9753   7.721   3.413  16.155 -1.7797  2.2334  1.1650
   7423SM   H4G 9754   7.865   3.503  16.084  0.0341  1.3159  0.8443
   7423SM   C5F 9755   7.682   3.502  15.963 -0.2309  0.5098 -0.0003
   7423SM   H5F 9756   7.722   3.587  15.904 -0.1466 -0.8933 -2.0497
   7423SM   H5G 9757   7.574   3.528  15.975 -0.1897  1.5827 -1.6972
   7423SM   C6F 9758   7.699   3.370  15.881  0.2123  0.8322  0.2596
   7423SM   H6F 9759   7.652   3.285  15.934  0.5411 -0.0882 -0.8989
   7423SM   H6G 9760   7.807   3.346  15.876 -0.1173 -1.8303  3.1442
   7423SM   C7F 9761   7.653   3.392  15.736  0.2736  0.4130  0.2481
   7423SM   H7F 9762   7.698   3.477  15.681  0.4989  0.2282  0.1483
   7423SM   H7G 9763   7.543   3.409  15.728  0.1169 -1.1477 -1.6167
   7423SM   C8F 9764   7.681   3.266  15.647  0.2303  0.1006 -0.1606
   7423SM   H8F 9765   7.640   3.288  15.546 -2.1983 -0.8605  0.5453
   7423SM   H8G 9766   7.633   3.176  15.691  1.4409 -0.7675 -0.5657
   7423SM   C9F 9767   7.832   3.236  15.635 -0.0954  0.6865 -0.1197
   7423SM   H9F 9768   7.885   3.224  15.732 -0.2536 -2.3402 -0.3192
   7423SM   H9G 9769   7.877   3.316  15.573 -2.2149 -0.4345 -3.3271
   7423SM  C10F 9770   7.860   3.098  15.573 -0.1859 -0.3421  0.3002
   7423SM  H10F 9771   7.821   3.016  15.637  0.3608 -1.1014 -0.3088
   7423SM  H10G 9772   7.970   3.093  15.592 -0.5105 -1.5494  2.1086
   7423SM  C11F 9773   7.835   3.085  15.430  0.1063  0.4017  0.4937
   7423SM  H11F 9774   7.902   3.164  15.389 -0.1939  1.5422  2.1282
   7423SM  H11G 9775   7.730   3.108  15.399 -0.0545  0.4057  1.0287
   7423SM  C12F 9776   7.883   2.946  15.384  0.5757 -0.3397  0.1300
   7423SM  H12F 9777   7.835   2.872  15.452 -1.5100  2.2678  1.7504
   7423SM  H12G 9778   7.994   2.943  15.392  0.6321 -0.7776 -0.8061
   7423SM  C13F 9779   7.833   2.915  15.241  0.0806 -0.5287 -0.6976
   7423SM  H13F 9780   7.874   2.988  15.168 -0.0682 -0.3121 -0.5633
   7423SM  H13G 9781   7.722   2.925  15.235  0.1294  0.3358 -0.3033
   7423SM  C14F 9782   7.865   2.772  15.203  0.2695 -0.2265 -0.0838
   7423SM  H14F 9783   7.815   2.742  15.108  0.1759  0.4668 -0.2587
   7423SM  H14G 9784   7.842   2.702  15.286 -0.1748  1.0507  0.9117
   7423SM  C15F 9785   8.010   2.763  15.156  0.4994  0.0598 -0.1010
   7423SM  H15F 9786   8.078   2.810  15.230 -0.6778  1.1532  0.3241
   7423SM  H15G 9787   8.010   2.804  15.053  2.2746  1.3780  0.3658
   7423SM  C16F 9788   8.051   2.609  15.149  0.7707  0.2348 -0.0990
   7423SM  H16F 9789   7.970   2.552  15.097 -0.6258  1.2664  0.8657
   7423SM  H16G 9790   8.048   2.577  15.255 -1.2664  0.0489 -0.1782
   7423SM  C17F 9791   8.195   2.599  15.092 -0.3692  0.0523  0.0527
   7423SM  H17F 9792   8.243   2.498  15.091  0.7344  0.5318  1.4753
   7423SM  H17G 9793   8.249   2.663  15.165  0.6129  0.9983 -1.4596
   7423SM  C18F 9794   8.213   2.655  14.948  0.5881  0.1180 -0.2605
   7423SM  H18F 9795   8.171   2.758  14.952  1.8905  0.6383  0.3909
   7423SM  H18G 9796   8.159   2.590  14.875 -0.8303 -1.1963  1.8412
   7423SM  C19F 9797   8.364   2.673  14.913 -0.2315 -0.2979  0.4789
   7423SM  H19F 9798   8.412   2.583  14.958 -0.7727 -0.2185  1.2357
   7423SM  H19G 9799   8.394   2.771  14.957 -1.5425  0.4939 -0.3433
   7423SM  C20F 9800   8.364   2.671  14.761 -0.1246 -0.8925  0.1218
   7423SM  H20F 9801   8.317   2.755  14.706 -0.6919 -0.3230  1.4356
   7423SM  H20G 9802   8.325   2.575  14.721 -0.1496 -0.5695 -0.6613
   7423SM  C21F 9803   8.505   2.664  14.699  0.0033 -0.3455  0.3277
   7423SM  H21F 9804   8.502   2.658  14.588  1.0704 -1.1497  0.3294
   7423SM  H21G 9805   8.560   2.578  14.742  0.1067 -0.8673 -0.8078
   7423SM  C22F 9806   8.594   2.789  14.729 -0.0485 -0.1256 -0.9021
   7423SM  H22F 9807   8.585   2.812  14.837 -2.2564 -1.9197 -0.6163
   7423SM  H22G 9808   8.560   2.881  14.675 -1.0329 -0.6596 -1.2196
   7423SM  C23F 9809   8.744   2.772  14.701 -0.1499 -0.0620 -0.4901
   7423SM  H23F 9810   8.796   2.865  14.730  1.5318 -1.2229  0.4170
   7423SM  H23G 9811   8.764   2.742  14.596 -2.1236  1.1685 -1.2697
   7423SM  H23H 9812   8.777   2.691  14.770 -2.5825  0.7104  1.7502
   7523SM     N 9813   7.442   4.172  16.462 -0.1661  0.0978  0.1715
   7523SM   C15 9814   7.516   4.246  16.566  0.8560  0.4432 -0.4681
   7523SM  H15A 9815   7.520   4.354  16.557  0.1824  0.3773 -1.8190
   7523SM  H15B 9816   7.613   4.207  16.589  0.7984  0.9905  0.7362
   7523SM  H15C 9817   7.462   4.234  16.659 -0.4092  1.1059 -1.0823
   7523SM   C14 9818   7.525   4.203  16.333  0.2236 -0.5292 -0.3680
   7523SM  H14A 9819   7.627   4.182  16.361 -0.2794 -0.2306  1.9243
   7523SM  H14B 9820   7.509   4.305  16.302  0.0250 -0.2593  0.5954
   7523SM  H14C 9821   7.488   4.140  16.254  1.8415 -0.4059 -1.2688
   7523SM   C13 9822   7.443   4.016  16.489 -0.0474  0.1157  0.9358
   7523SM  H13A 9823   7.368   3.966  16.430  0.1602 -1.8081  2.2504
   7523SM  H13B 9824   7.407   4.004  16.590 -0.1769  1.3975  1.0674
   7523SM  H13C 9825   7.544   3.978  16.482 -0.0831  0.1220  0.2838
   7523SM   C12 9826   7.306   4.225  16.448 -0.8229  0.0204  0.3294
   7523SM  H12A 9827   7.310   4.333  16.443 -1.1062 -0.0330 -2.0374
   7523SM  H12B 9828   7.244   4.207  16.535 -1.3318 -1.5558 -0.3249
   7523SM   C11 9829   7.217   4.186  16.328 -0.5922  0.6988  0.0311
   7523SM  H11A 9830   7.275   4.200  16.234  1.3327 -3.8270  0.2476
   7523SM  H11B 9831   7.133   4.257  16.319  0.2331  1.8037  0.7155
   7523SM     P 9832   7.083   3.995  16.428 -0.1737  0.4310 -0.0004
   7523SM   O13 9833   7.145   3.877  16.496 -0.2103 -0.0986  0.0064
   7523SM   O14 9834   7.035   4.104  16.510  0.0284  0.1738  0.0213
   7523SM   O11 9835   6.964   3.944  16.337  0.4470  0.5816 -0.0951
   7523SM   O12 9836   7.183   4.048  16.321  0.1960  0.0745 -0.4070
   7523SM   C1S 9837   7.001   3.835  16.244 -0.4471 -0.2736 -0.0773
   7523SM   H1S 9838   7.079   3.764  16.280 -1.7905 -1.3765  0.7514
   7523SM   H1T 9839   7.052   3.883  16.157 -1.8625  1.6561  0.1063
   7523SM    NF 9840   6.928   3.659  16.080  0.3597 -1.0312  0.3871
   7523SM   HNF 9841   6.903   3.685  15.987 -1.3389 -0.2448  1.0306
   7523SM   C2S 9842   6.880   3.749  16.190 -0.5336 -0.5578 -0.1687
   7523SM   H2S 9843   6.846   3.686  16.276  2.4328  0.6459  2.0755
   7523SM   C3S 9844   6.765   3.843  16.149 -0.7867 -0.1250 -0.4584
   7523SM   H3S 9845   6.804   3.922  16.082 -0.4907  0.3535  0.2739
   7523SM    O3 9846   6.696   3.911  16.256  0.4709  0.1556 -0.3114
   7523SM   HO3 9847   6.754   3.881  16.327 -0.1554  0.0245  0.1577
   7523SM   C4S 9848   6.659   3.778  16.063  0.1102 -0.6517 -0.7669
   7523SM   H4S 9849   6.685   3.787  15.956  0.4446  0.8884 -0.5853
   7523SM   C5S 9850   6.547   3.718  16.093 -0.1696 -0.2438 -0.7999
   7523SM   H5S 9851   6.513   3.714  16.197  0.3139  0.0421 -0.6301
   7523SM   C6S 9852   6.453   3.666  15.996  0.5266 -0.7392  0.0749
   7523SM   H6S 9853   6.356   3.715  16.020  0.6736 -0.3470 -0.1274
   7523SM   H6T 9854   6.447   3.555  15.997 -0.3555 -0.7818 -2.3089
   7523SM   C7S 9855   6.474   3.694  15.844 -0.1453  0.1311  0.4239
   7523SM   H7S 9856   6.579   3.664  15.825 -0.1969 -0.9170  1.6833
   7523SM   H7T 9857   6.460   3.802  15.822 -1.3272 -0.4644 -2.1919
   7523SM   C8S 9858   6.371   3.612  15.761  0.9036  0.5764 -0.3653
   7523SM   H8S 9859   6.276   3.616  15.819  1.7143  0.1356  1.0226
   7523SM   H8T 9860   6.393   3.504  15.752 -0.3087  0.1494  1.3219
   7523SM   C9S 9861   6.355   3.670  15.621 -0.3606  0.7403  0.8965
   7523SM   H9S 9862   6.460   3.678  15.587 -0.2297  2.4805  1.6287
   7523SM   H9T 9863   6.316   3.774  15.629  0.7283  1.1731  0.6740
   7523SM  C10S 9864   6.279   3.583  15.523 -0.1562  0.3286 -0.1863
   7523SM  H10S 9865   6.169   3.597  15.512 -0.1068  1.4063  0.5347
   7523SM  H10T 9866   6.302   3.483  15.564  2.9641  1.1664  0.3217
   7523SM  C11S 9867   6.341   3.597  15.380 -0.0345  0.7085 -0.0772
   7523SM  H11S 9868   6.293   3.511  15.328  0.1216 -0.0280  0.9652
   7523SM  H11T 9869   6.450   3.582  15.392 -0.4275 -2.8661  0.1731
   7523SM  C12S 9870   6.298   3.724  15.324  0.3317 -0.0430  0.2722
   7523SM  H12S 9871   6.336   3.809  15.386  0.4810  0.0723  0.0227
   7523SM  H12T 9872   6.188   3.737  15.331  0.5891  2.7541  0.0888
   7523SM  C13S 9873   6.352   3.749  15.179  0.0606  0.3410 -0.0500
   7523SM  H13S 9874   6.294   3.680  15.114  1.2338  1.8181 -2.7825
   7523SM  H13T 9875   6.461   3.727  15.175 -0.0565 -0.0291 -2.0141
   7523SM  C14S 9876   6.325   3.888  15.117 -0.3404  0.1165  0.3454
   7523SM  H14S 9877   6.391   3.902  15.028 -1.4335 -0.5504 -0.6093
   7523SM  H14T 9878   6.349   3.966  15.191 -0.5305  0.8607 -0.3612
   7523SM  C15S 9879   6.180   3.891  15.083  0.3623  0.3050 -0.2767
   7523SM  H15S 9880   6.112   3.908  15.170 -0.8992 -0.4161 -1.0872
   7523SM  H15T 9881   6.150   3.795  15.036  0.6116 -0.2508  0.6690
   7523SM  C16S 9882   6.153   4.013  14.986  0.2709 -0.0093 -0.7188
   7523SM  H16S 9883   6.056   4.002  14.933  0.8921 -1.8739 -1.5512
   7523SM  H16T 9884   6.228   4.012  14.904 -0.0040 -0.2017 -0.9662
   7523SM  C17S 9885   6.173   4.146  15.043  0.0124  0.7055 -0.6953
   7523SM  H17S 9886   6.273   4.149  15.091  0.0530 -1.4690 -0.5133
   7523SM  H17T 9887   6.097   4.178  15.118  0.5103 -2.4936  1.3772
   7523SM  C18S 9888   6.178   4.251  14.933  0.2890 -0.3644  0.0221
   7523SM  H18S 9889   6.235   4.207  14.848 -1.4191 -0.2016 -1.2566
   7523SM  H18T 9890   6.224   4.343  14.975 -0.4093  1.2575 -2.5577
   7523SM  H18U 9891   6.077   4.278  14.896  0.6708 -0.1872 -0.9346
   7523SM   C1F 9892   7.004   3.561  16.112 -0.4512  0.4543 -0.2124
   7523SM    OF 9893   7.047   3.543  16.228  0.1505 -0.0268 -0.2296
   7523SM   C2F 9894   7.047   3.476  16.002 -0.4154  0.4076 -0.0740
   7523SM   H2F 9895   7.122   3.535  15.945 -1.6886 -0.3011 -2.5799
   7523SM   H2G 9896   6.967   3.441  15.934 -1.0731 -0.4695  1.1080
   7523SM   C3F 9897   7.137   3.361  16.051 -0.2443 -0.1399  0.1440
   7523SM   H3F 9898   7.085   3.297  16.126  0.8094  0.4026  1.3669
   7523SM   H3G 9899   7.233   3.388  16.099  0.4434 -0.1979 -1.1454
   7523SM   C4F 9900   7.163   3.265  15.929 -0.3796  0.0343 -0.1693
   7523SM   H4F 9901   7.236   3.315  15.863  2.6572 -0.5143  2.4951
   7523SM   H4G 9902   7.066   3.249  15.876 -0.5372 -0.1737  0.1753
   7523SM   C5F 9903   7.227   3.128  15.968 -0.4234 -0.1142 -0.1878
   7523SM   H5F 9904   7.207   3.068  15.877 -0.2313  1.8199 -1.5736
   7523SM   H5G 9905   7.166   3.093  16.053  2.4382 -1.7817  1.3374
   7523SM   C6F 9906   7.380   3.138  16.008 -0.4352  0.5582  0.9647
   7523SM   H6F 9907   7.379   3.209  16.094 -1.3889 -1.3390  2.6118
   7523SM   H6G 9908   7.441   3.176  15.924 -0.1918  1.0753  1.3660
   7523SM   C7F 9909   7.443   3.014  16.074 -0.0116 -0.9325  0.1551
   7523SM   H7F 9910   7.386   3.010  16.169 -1.1946 -0.8879 -0.5433
   7523SM   H7G 9911   7.552   3.022  16.094 -0.0166 -1.6596  0.5301
   7523SM   C8F 9912   7.428   2.882  15.996  0.2669  0.3812  0.4631
   7523SM   H8F 9913   7.323   2.850  15.979  0.4611  0.9349 -2.2694
   7523SM   H8G 9914   7.480   2.793  16.038  0.7844 -0.4844 -1.8234
   7523SM   C9F 9915   7.490   2.885  15.862  0.2381 -1.2812  0.1369
   7523SM   H9F 9916   7.560   2.969  15.842  0.4433 -1.3266  0.6455
   7523SM   H9G 9917   7.404   2.904  15.795 -0.3741  1.6095  1.5908
   7523SM  C10F 9918   7.559   2.756  15.823  0.0727  0.4138  0.6411
   7523SM  H10F 9919   7.506   2.664  15.858  2.1074 -1.3467 -0.6666
   7523SM  H10G 9920   7.657   2.766  15.873 -1.0748  0.5477  2.9737
   7523SM  C11F 9921   7.581   2.742  15.668 -0.8249 -0.1817  0.1254
   7523SM  H11F 9922   7.655   2.663  15.643 -0.6752 -1.1940  3.3449
   7523SM  H11G 9923   7.629   2.838  15.638 -0.3154 -1.2634 -2.8927
   7523SM  C12F 9924   7.457   2.736  15.582  0.3866 -0.7795  0.7646
   7523SM  H12F 9925   7.410   2.836  15.596  0.9269 -0.2956 -0.6861
   7523SM  H12G 9926   7.394   2.649  15.611  1.3912 -2.7455 -2.4850
   7523SM  C13F 9927   7.488   2.730  15.434 -0.0635  0.4031 -0.1930
   7523SM  H13F 9928   7.551   2.644  15.400 -0.9692 -0.6915  0.8145
   7523SM  H13G 9929   7.544   2.820  15.402 -0.2168  0.9183  0.9470
   7523SM  C14F 9930   7.363   2.737  15.345 -0.0577 -0.2659 -1.1921
   7523SM  H14F 9931   7.276   2.767  15.408 -1.1657 -2.8974 -1.3274
   7523SM  H14G 9932   7.341   2.635  15.305 -1.0077 -0.3875 -0.4019
   7523SM  C15F 9933   7.371   2.823  15.218  0.1084  0.1063 -0.8834
   7523SM  H15F 9934   7.446   2.790  15.142  0.8895  0.1154 -0.1286
   7523SM  H15G 9935   7.402   2.924  15.251  1.0176 -0.6438  0.6964
   7523SM  C16F 9936   7.236   2.826  15.154 -0.2201 -0.0676 -0.1416
   7523SM  H16F 9937   7.162   2.879  15.218  0.7349 -0.6434  1.5015
   7523SM  H16G 9938   7.194   2.724  15.144 -2.1696  0.7477 -0.6978
   7523SM  C17F 9939   7.239   2.903  15.020 -0.7906 -0.1922  0.3991
   7523SM  H17F 9940   7.135   2.918  14.983 -0.4925  0.4602 -0.1918
   7523SM  H17G 9941   7.304   2.848  14.949 -0.0683  0.3496  0.6279
   7523SM  C18F 9942   7.306   3.045  15.026 -0.7402  0.1876 -0.5023
   7523SM  H18F 9943   7.408   3.021  15.061 -0.7154 -0.5735 -1.0763
   7523SM  H18G 9944   7.249   3.097  15.106  1.2302  0.6161  0.6905
   7523SM  C19F 9945   7.306   3.129  14.896 -0.5046  0.5651  0.2333
   7523SM  H19F 9946   7.345   3.231  14.919  1.7650  0.3188 -2.1299
   7523SM  H19G 9947   7.205   3.147  14.855 -0.2307 -1.8883 -1.7643
   7523SM  C20F 9948   7.386   3.068  14.777  0.2156 -0.1204 -0.0528
   7523SM  H20F 9949   7.386   3.141  14.693 -1.0423  0.1260  0.1346
   7523SM  H20G 9950   7.329   2.977  14.749  1.2298 -0.4452 -1.1509
   7523SM  C21F 9951   7.531   3.028  14.815  0.7332 -0.2982 -0.2695
   7523SM  H21F 9952   7.583   2.975  14.732 -0.8502 -0.9518 -0.8917
   7523SM  H21G 9953   7.521   2.961  14.903  1.9938  1.1355  1.0099
   7523SM  C22F 9954   7.614   3.153  14.845  0.2090  0.0069 -0.4019
   7523SM  H22F 9955   7.579   3.201  14.939 -0.1050  1.1365 -1.0733
   7523SM  H22G 9956   7.604   3.236  14.773  1.9442  1.7057  1.1713
   7523SM  C23F 9957   7.759   3.113  14.865 -0.2240 -0.9762 -0.5480
   7523SM  H23F 9958   7.826   3.192  14.906  1.5221 -0.5382 -3.8451
   7523SM  H23G 9959   7.809   3.089  14.769  1.0063 -0.3800 -0.0860
   7523SM  H23H 9960   7.768   3.031  14.938 -0.6835  0.5921  1.3475
   7623SM     N 9961   7.232   4.610  16.999 -0.4268 -0.5724 -0.3030
   7623SM   C15 9962   7.128   4.607  17.102  0.3795  0.1104  0.1524
   7623SM  H15A 9963   7.085   4.703  17.128 -0.0748 -0.3723  1.2581
   7623SM  H15B 9964   7.172   4.560  17.189 -1.0966 -0.8090  0.4464
   7623SM  H15C 9965   7.043   4.543  17.082 -0.5202  0.7805  1.6709
   7623SM   C14 9966   7.364   4.654  17.060  0.3850  0.4468  0.1190
   7623SM  H14A 9967   7.447   4.668  16.993  1.3200 -0.6330  1.0180
   7623SM  H14B 9968   7.396   4.588  17.139 -1.4744 -2.4768 -1.3859
   7623SM  H14C 9969   7.355   4.751  17.107  0.0202 -0.2794  1.6109
   7623SM   C13 9970   7.250   4.467  16.943  0.2019 -0.5187 -0.1484
   7623SM  H13A 9971   7.288   4.403  17.021 -1.6838  1.7641  2.8818
   7623SM  H13B 9972   7.330   4.460  16.870 -1.0827 -2.5145 -1.4424
   7623SM  H13C 9973   7.159   4.427  16.901  0.0406 -2.2680  1.7447
   7623SM   C12 9974   7.190   4.705  16.887  0.3575 -0.6791 -0.9585
   7623SM  H12A 9975   7.102   4.670  16.835 -1.0384  1.1504  0.0551
   7623SM  H12B 9976   7.270   4.708  16.814  2.4651 -2.4975  1.1373
   7623SM   C11 9977   7.174   4.858  16.934 -0.2139  0.1165 -0.0723
   7623SM  H11A 9978   7.190   4.920  16.843  3.9754  0.3542  0.6265
   7623SM  H11B 9979   7.259   4.885  17.000 -1.3813 -0.0736  1.5735
   7623SM     P 9980   6.919   4.902  16.929 -0.2052  0.0675 -0.2126
   7623SM   O13 9981   6.861   4.766  16.927 -0.3100  0.1327 -0.1227
   7623SM   O14 9982   6.833   5.006  17.000 -0.2306 -0.1303  0.1738
   7623SM   O11 9983   6.952   4.955  16.784 -0.1665  0.1678  0.3141
   7623SM   O12 9984   7.055   4.887  17.007 -0.8864  0.1127  0.3036
   7623SM   C1S 9985   6.874   4.910  16.672 -0.0439 -0.3735 -0.5894
   7623SM   H1S 9986   6.767   4.941  16.676 -0.5210 -1.8328 -1.1466
   7623SM   H1T 9987   6.873   4.799  16.662 -1.2574 -0.3028 -1.4457
   7623SM    NF 9988   6.838   4.895  16.432  0.5697 -0.3330  0.5252
   7623SM   HNF 9989   6.868   4.812  16.386 -3.8249 -1.5927 -0.5682
   7623SM   C2S 9990   6.924   4.951  16.530  0.6199 -0.1717  0.0690
   7623SM   H2S 9991   6.924   5.061  16.518  1.3316 -0.0359  1.1301
   7623SM   C3S 9992   7.073   4.913  16.526  0.3829 -0.4632 -0.1217
   7623SM   H3S 9993   7.088   4.814  16.574  1.1228  0.5440  1.8268
   7623SM    O3 9994   7.153   5.004  16.607  0.3182  0.1782  0.3131
   7623SM   HO3 9995   7.078   5.039  16.656 -1.6600 -0.4594 -2.0389
   7623SM   C4S 9996   7.121   4.915  16.384  0.1833 -0.7302 -0.2016
   7623SM   H4S 9997   7.123   4.814  16.340 -0.7501 -1.3264  1.1015
   7623SM   C5S 9998   7.148   5.024  16.306 -0.3568  0.2331  0.0356
   7623SM   H5S 9999   7.126   5.120  16.356 -2.3944 -1.1378  1.9587
   7623SM   C6S10000   7.189   5.032  16.161 -0.3227  0.9383 -0.0954
   7623SM   H6S10001   7.294   5.066  16.159 -0.0887  0.3244  1.0838
   7623SM   H6T10002   7.135   5.120  16.120 -2.1641  0.1900  0.6251
   7623SM   C7S10003   7.163   4.923  16.058 -0.1069  0.1472 -0.0859
   7623SM   H7S10004   7.054   4.905  16.049  0.2091 -1.3041 -1.4336
   7623SM   H7T10005   7.195   4.822  16.092  2.1276  0.3608 -1.3502
   7623SM   C8S10006   7.214   4.956  15.917 -0.4111 -0.1527  1.3687
   7623SM   H8S10007   7.323   4.937  15.907 -0.3055  0.5698  1.1072
   7623SM   H8T10008   7.203   5.066  15.908 -0.9088 -0.3725 -2.3685
   7623SM   C9S10009   7.137   4.902  15.798 -0.1364  0.1344 -0.4475
   7623SM   H9S10010   7.030   4.926  15.815 -0.2927 -1.6850  1.6264
   7623SM   H9T10011   7.149   4.792  15.782  0.0631  0.1420 -0.3547
   7623SM  C10S10012   7.193   4.966  15.674 -0.2801  0.4116  1.1579
   7623SM  H10S10013   7.283   4.913  15.637 -0.4234 -0.8492  2.5388
   7623SM  H10T10014   7.213   5.075  15.687 -2.5791  1.1595 -0.7201
   7623SM  C11S10015   7.086   4.961  15.559  0.3735 -0.3816 -0.3273
   7623SM  H11S10016   6.986   4.972  15.606 -0.7244 -1.1297 -2.3640
   7623SM  H11T10017   7.087   4.858  15.516  0.7201 -1.9392  3.0642
   7623SM  C12S10018   7.112   5.068  15.459 -0.7782 -0.8885  0.3475
   7623SM  H12S10019   7.090   5.024  15.359 -1.9671  0.0167  0.1972
   7623SM  H12T10020   7.213   5.114  15.461 -2.3827  3.0242  0.0782
   7623SM  C13S10021   7.035   5.198  15.493  0.2755  0.6404  0.0511
   7623SM  H13S10022   7.056   5.216  15.601  1.1030  0.9202 -0.1482
   7623SM  H13T10023   6.928   5.174  15.474  0.5808  0.5921 -1.8195
   7623SM  C14S10024   7.067   5.319  15.405 -0.1290 -0.7563  0.4359
   7623SM  H14S10025   7.044   5.299  15.298  0.1889  0.6650  0.0843
   7623SM  H14T10026   7.176   5.340  15.405 -0.1776 -0.4825  1.0497
   7623SM  C15S10027   6.984   5.435  15.457 -0.2972 -0.1404  0.0514
   7623SM  H15S10028   7.023   5.449  15.561 -0.0935  1.7776 -0.2498
   7623SM  H15T10029   6.879   5.403  15.472 -1.2507  2.2551 -1.1394
   7623SM  C16S10030   6.996   5.563  15.370  0.2746  0.2445  0.4721
   7623SM  H16S10031   6.976   5.535  15.264  1.9542  6.2152 -1.8322
   7623SM  H16T10032   7.106   5.574  15.367  0.2807  0.0711 -1.7487
   7623SM  C17S10033   6.932   5.687  15.422  0.4193  0.0914 -0.3347
   7623SM  H17S10034   6.826   5.679  15.454  0.5064  0.0775 -0.0492
   7623SM  H17T10035   6.935   5.764  15.342  0.9691  0.7743  0.3283
   7623SM  C18S10036   7.006   5.747  15.549  0.3372 -0.4745  0.7718
   7623SM  H18S10037   6.968   5.851  15.556 -1.3699 -1.1114  1.4680
   7623SM  H18T10038   7.115   5.758  15.533  0.1731 -0.0974 -0.1697
   7623SM  H18U10039   6.987   5.711  15.652 -0.4565  2.4948  1.7727
   7623SM   C1F10040   6.713   4.937  16.414  0.1552  0.1620 -0.1259
   7623SM    OF10041   6.674   5.043  16.464  0.3495  0.5521 -0.2775
   7623SM   C2F10042   6.624   4.847  16.332  0.1971 -0.3567 -0.4533
   7623SM   H2F10043   6.555   4.797  16.404  0.0823 -1.1372 -1.0826
   7623SM   H2G10044   6.677   4.767  16.276 -1.1860 -0.8017 -1.1719
   7623SM   C3F10045   6.531   4.917  16.238 -0.3726  0.6665  0.6293
   7623SM   H3F10046   6.465   4.991  16.289 -0.2599  0.9119  0.4196
   7623SM   H3G10047   6.473   4.836  16.190  1.6976  0.2922 -1.4395
   7623SM   C4F10048   6.615   4.989  16.124 -0.1982 -0.0842 -0.1620
   7623SM   H4F10049   6.667   5.076  16.169 -2.5872  1.4912 -0.3119
   7623SM   H4G10050   6.538   5.031  16.056 -2.4421 -0.4444  2.0052
   7623SM   C5F10051   6.725   4.906  16.054 -0.2542  0.7021 -0.0902
   7623SM   H5F10052   6.787   4.850  16.127 -0.4437  0.5731 -0.0290
   7623SM   H5G10053   6.796   4.980  16.011  0.9974 -0.2976  0.1826
   7623SM   C6F10054   6.679   4.806  15.948  0.2525 -0.7495  0.2508
   7623SM   H6F10055   6.607   4.856  15.879 -1.3803 -1.5145  1.3422
   7623SM   H6G10056   6.618   4.724  15.992 -1.1933  0.3291  0.3062
   7623SM   C7F10057   6.795   4.743  15.869 -0.5585 -0.1105 -0.5069
   7623SM   H7F10058   6.873   4.714  15.943  1.2553  2.5436 -1.2574
   7623SM   H7G10059   6.838   4.823  15.807  0.5585 -0.2453  0.0675
   7623SM   C8F10060   6.750   4.621  15.790  0.2008 -0.0773  0.0378
   7623SM   H8F10061   6.661   4.665  15.740  1.3021  0.6163 -1.3741
   7623SM   H8G10062   6.722   4.536  15.856 -0.2646 -0.5193 -0.7177
   7623SM   C9F10063   6.847   4.582  15.682  0.4278  0.4882  0.4121
   7623SM   H9F10064   6.939   4.538  15.725  0.4669  1.1510  1.0154
   7623SM   H9G10065   6.868   4.677  15.627  0.2510 -1.0427 -2.5457
   7623SM  C10F10066   6.786   4.479  15.587  0.1792  0.7296  0.1037
   7623SM  H10F10067   6.689   4.521  15.552 -0.5080 -0.1427  0.8939
   7623SM  H10G10068   6.769   4.382  15.639  2.2667 -0.2341 -0.8731
   7623SM  C11F10069   6.870   4.451  15.461 -0.1791 -0.9517 -0.3992
   7623SM  H11F10070   6.918   4.545  15.426  1.1081 -1.4406 -0.0103
   7623SM  H11G10071   6.824   4.406  15.370 -0.5384  0.0925 -0.7401
   7623SM  C12F10072   6.983   4.349  15.494 -0.5385  0.8075  0.2571
   7623SM  H12F10073   6.937   4.278  15.566 -1.8066  2.2633  0.9342
   7623SM  H12G10074   7.071   4.399  15.540 -0.1392 -1.2066  1.8323
   7623SM  C13F10075   7.032   4.272  15.366 -0.0422 -0.9325 -0.9079
   7623SM  H13F10076   7.109   4.337  15.321  0.1443  0.5964  1.4081
   7623SM  H13G10077   6.947   4.256  15.296 -0.6624  1.6347 -0.8173
   7623SM  C14F10078   7.087   4.131  15.408 -0.3132  0.3629 -0.2168
   7623SM  H14F10079   7.001   4.070  15.443 -1.8428  1.2349 -2.1631
   7623SM  H14G10080   7.169   4.134  15.483  2.6189 -1.5683 -3.0715
   7623SM  C15F10081   7.139   4.046  15.289  0.5180  0.1039  0.1862
   7623SM  H15F10082   7.237   4.090  15.261  0.9861 -1.6775 -1.1189
   7623SM  H15G10083   7.079   4.060  15.197  0.3390  0.4692  0.3554
   7623SM  C16F10084   7.168   3.904  15.327 -0.8081 -0.2726  0.1223
   7623SM  H16F10085   7.079   3.845  15.357  0.1735 -0.9174  1.8777
   7623SM  H16G10086   7.235   3.892  15.414 -0.6518  0.7587  0.1540
   7623SM  C17F10087   7.239   3.829  15.217  0.3683  0.0133 -0.0976
   7623SM  H17F10088   7.335   3.882  15.202 -0.5665  1.5178 -1.0507
   7623SM  H17G10089   7.180   3.840  15.123  0.7878 -0.3938 -0.4103
   7623SM  C18F10090   7.261   3.674  15.239  0.2336  0.1095  0.0522
   7623SM  H18F10091   7.162   3.637  15.273  0.2325  0.3892  0.3582
   7623SM  H18G10092   7.329   3.660  15.326 -1.5214  1.9953  1.8669
   7623SM  C19F10093   7.330   3.595  15.125 -0.4202  0.4520  0.2155
   7623SM  H19F10094   7.377   3.660  15.048  1.2603  0.3127  1.0704
   7623SM  H19G10095   7.245   3.535  15.086 -1.5263 -0.8094  4.1022
   7623SM  C20F10096   7.427   3.484  15.180 -0.0037  0.9979 -0.0552
   7623SM  H20F10097   7.494   3.521  15.261 -1.0249  0.4139  1.0861
   7623SM  H20G10098   7.494   3.443  15.101  0.8711  1.5606  0.3719
   7623SM  C21F10099   7.358   3.368  15.249 -0.0028 -0.8308  0.3614
   7623SM  H21F10100   7.289   3.322  15.176 -0.5908 -2.9260  2.1444
   7623SM  H21G10101   7.285   3.411  15.320 -2.1547 -2.6685 -0.6190
   7623SM  C22F10102   7.448   3.266  15.314  0.2187 -0.3734 -0.5225
   7623SM  H22F10103   7.528   3.318  15.371  2.3124 -2.2697 -1.5883
   7623SM  H22G10104   7.499   3.213  15.230  3.2731  0.8542  0.4379
   7623SM  C23F10105   7.381   3.162  15.412 -0.9499 -0.2288 -0.2551
   7623SM  H23F10106   7.328   3.219  15.492  1.4236  2.0178 -0.1518
   7623SM  H23G10107   7.464   3.099  15.450 -1.1698 -1.0901 -1.1392
   7623SM  H23H10108   7.329   3.082  15.354  2.5383 -2.9652  0.0402
   7723SM     N10109   6.602   0.125  17.065 -0.1581  0.1212  0.1332
   7723SM   C1510110   6.751   0.131  17.095  0.5243  0.1394 -0.7285
   7723SM  H15A10111   6.776   0.038  17.143  1.7975  0.0517 -1.5210
   7723SM  H15B10112   6.784   0.206  17.166 -0.8405  0.1707 -0.0973
   7723SM  H15C10113   6.812   0.139  17.006  1.4175  0.5976 -0.0975
   7723SM   C1410114   6.565   0.017  16.974 -0.0680  0.0040 -0.0043
   7723SM  H14A10115   6.458   0.018  16.956 -0.0295  0.8759 -0.2484
   7723SM  H14B10116   6.588  -0.079  17.017 -1.8703 -0.6088 -0.3278
   7723SM  H14C10117   6.624   0.030  16.885  2.8494  0.7558  1.8823
   7723SM   C1310118   6.528   0.111  17.190  0.1853 -0.6169  0.4872
   7723SM  H13A10119   6.568   0.166  17.274 -1.8545 -2.6302  2.9507
   7723SM  H13B10120   6.525   0.007  17.219  0.4627 -0.7275  0.1335
   7723SM  H13C10121   6.426   0.132  17.162 -0.1811 -3.8640 -1.0734
   7723SM   C1210122   6.565   0.259  17.000  0.4469  0.0192 -0.7635
   7723SM  H12A10123   6.596   0.336  17.069  1.2059  0.7758 -1.9139
   7723SM  H12B10124   6.459   0.274  17.011  0.1027 -2.1630 -0.6761
   7723SM   C1110125   6.617   0.299  16.852  0.2344  0.1612 -0.8218
   7723SM  H11A10126   6.564   0.394  16.830  0.7572  0.1829 -2.0795
   7723SM  H11B10127   6.569   0.221  16.789 -1.8732  0.0059  0.8385
   7723SM     P10128   6.833   0.423  16.883 -0.5542 -0.0680 -0.0480
   7723SM   O1310129   6.767   0.473  17.011  0.3808  0.2720  0.7219
   7723SM   O1410130   6.976   0.385  16.894  0.4673  0.9194 -0.1184
   7723SM   O1110131   6.791   0.528  16.770  0.2952 -0.6350 -0.4668
   7723SM   O1210132   6.755   0.299  16.835 -0.7161 -0.4057  0.5270
   7723SM   C1S10133   6.862   0.521  16.643 -0.4885 -0.5185  0.4618
   7723SM   H1S10134   6.867   0.418  16.601 -0.2675  0.2586 -1.5292
   7723SM   H1T10135   6.964   0.566  16.634  0.2381 -2.3644 -1.2333
   7723SM    NF10136   6.839   0.571  16.403 -0.3434  0.4350 -0.0040
   7723SM   HNF10137   6.922   0.624  16.394  0.4167 -0.4462  1.4629
   7723SM   C2S10138   6.776   0.591  16.532  0.2781 -1.4510 -0.1505
   7723SM   H2S10139   6.672   0.552  16.528 -0.7456  0.9584  1.1267
   7723SM   C3S10140   6.760   0.735  16.571  0.3120 -1.1261 -0.4265
   7723SM   H3S10141   6.862   0.775  16.585 -0.5310  2.3015 -2.8801
   7723SM    O310142   6.692   0.767  16.693  0.0053 -0.0042  0.1797
   7723SM   HO310143   6.696   0.686  16.746  0.9356  0.4133  0.7702
   7723SM   C4S10144   6.702   0.830  16.468  1.0056 -0.0737  0.2824
   7723SM   H4S10145   6.785   0.882  16.418 -0.2608  3.6187  1.6915
   7723SM   C5S10146   6.571   0.847  16.424  0.5335  0.1794 -0.1185
   7723SM   H5S10147   6.485   0.796  16.470  1.7303 -1.1426  0.7272
   7723SM   C6S10148   6.548   0.939  16.310  0.1325  0.4156  0.0703
   7723SM   H6S10149   6.619   0.922  16.227 -0.9817  0.4527 -0.9119
   7723SM   H6T10150   6.554   1.046  16.341  0.2975  0.0373  1.3916
   7723SM   C7S10151   6.415   0.925  16.245 -0.2910 -0.6990  0.0748
   7723SM   H7S10152   6.332   0.944  16.316  0.3097 -0.0122  0.6029
   7723SM   H7T10153   6.401   0.824  16.201  2.3933 -0.5330 -1.4254
   7723SM   C8S10154   6.384   1.018  16.133 -0.2912 -0.7035  0.0425
   7723SM   H8S10155   6.389   1.122  16.172 -0.9744 -1.5003  2.4213
   7723SM   H8T10156   6.278   1.001  16.106 -0.9352  1.5779  0.9192
   7723SM   C9S10157   6.471   0.996  16.005 -0.0271 -0.4096 -0.0844
   7723SM   H9S10158   6.580   1.009  16.022 -0.2742  0.7181  0.7577
   7723SM   H9T10159   6.450   1.077  15.931 -0.2307  0.0860  0.4987
   7723SM  C10S10160   6.442   0.870  15.931  0.3530  0.2922  0.1076
   7723SM  H10S10161   6.343   0.826  15.954  1.2482 -1.5052  0.6877
   7723SM  H10T10162   6.509   0.793  15.973  0.3660  0.4394  0.3640
   7723SM  C11S10163   6.474   0.868  15.780  0.0398  0.8902  0.2018
   7723SM  H11S10164   6.496   0.762  15.753 -0.3771  0.7228  0.5155
   7723SM  H11T10165   6.569   0.926  15.772 -0.3024  1.5092  0.5943
   7723SM  C12S10166   6.372   0.915  15.684  0.3922 -0.4959 -0.4109
   7723SM  H12S10167   6.382   1.023  15.664 -0.3932 -0.1705  0.8406
   7723SM  H12T10168   6.270   0.883  15.715  0.4495  0.6100  1.0127
   7723SM  C13S10169   6.393   0.854  15.545  0.1385 -0.3832  0.0818
   7723SM  H13S10170   6.401   0.743  15.555 -0.9748 -0.6255 -1.4837
   7723SM  H13T10171   6.493   0.887  15.510 -0.2247  1.4784  0.7006
   7723SM  C14S10172   6.291   0.891  15.437 -0.5114  0.1806  0.4372
   7723SM  H14S10173   6.344   0.849  15.349 -2.3726 -2.7393  0.5746
   7723SM  H14T10174   6.275   1.001  15.434  1.1283  0.4896  1.7667
   7723SM  C15S10175   6.156   0.833  15.464  0.4538  0.0889  0.6296
   7723SM  H15S10176   6.105   0.883  15.550  0.1255  0.7678  0.0601
   7723SM  H15T10177   6.164   0.723  15.475 -0.3531 -0.4110 -2.6252
   7723SM  C16S10178   6.066   0.861  15.343 -0.0098  0.3431 -0.3519
   7723SM  H16S10179   6.116   0.805  15.262  1.9613  0.8218  0.4851
   7723SM  H16T10180   6.059   0.964  15.303 -3.1981  0.2936 -0.1857
   7723SM  C17S10181   5.919   0.811  15.362  1.0608  0.1540  1.3021
   7723SM  H17S10182   5.875   0.893  15.422 -1.3932  1.7607 -2.2937
   7723SM  H17T10183   5.921   0.715  15.418  1.5732  0.0760  1.1525
   7723SM  C18S10184   5.844   0.800  15.228 -0.0538 -0.2050  0.2484
   7723SM  H18S10185   5.897   0.721  15.171  1.9905  0.3225  1.3167
   7723SM  H18T10186   5.859   0.883  15.155  1.4477 -2.4723 -2.2251
   7723SM  H18U10187   5.741   0.767  15.251  0.2684 -2.1169 -0.8652
   7723SM   C1F10188   6.825   0.459  16.331 -0.3344  0.5758  0.3809
   7723SM    OF10189   6.773   0.361  16.385 -0.4264  0.5835 -0.1553
   7723SM   C2F10190   6.877   0.459  16.193  0.1312  0.2029 -0.1454
   7723SM   H2F10191   6.987   0.446  16.192  0.4339  2.3439  0.8060
   7723SM   H2G10192   6.850   0.556  16.146  0.4497 -0.0330 -0.8219
   7723SM   C3F10193   6.828   0.345  16.092  0.2228  0.0571 -0.2736
   7723SM   H3F10194   6.717   0.356  16.085  0.5142  4.1672 -0.7804
   7723SM   H3G10195   6.848   0.247  16.140  0.4227 -0.4571 -1.3724
   7723SM   C4F10196   6.897   0.337  15.951  0.2780 -0.0559  0.7553
   7723SM   H4F10197   6.855   0.252  15.894  0.1072  0.1384  0.5878
   7723SM   H4G10198   7.005   0.321  15.972  0.1516 -1.5883  0.3104
   7723SM   C5F10199   6.883   0.473  15.874 -1.1614  0.2412  0.1879
   7723SM   H5F10200   6.974   0.478  15.810 -1.5285  0.1659 -0.3422
   7723SM   H5G10201   6.883   0.568  15.931  1.6557 -0.2478  1.1739
   7723SM   C6F10202   6.764   0.478  15.789  0.6238  0.0950  0.7187
   7723SM   H6F10203   6.670   0.467  15.847  0.0282 -0.7122 -0.3489
   7723SM   H6G10204   6.770   0.398  15.712 -0.6237 -0.6763  1.3819
   7723SM   C7F10205   6.734   0.620  15.726 -0.3410 -0.0451 -0.0173
   7723SM   H7F10206   6.709   0.684  15.813  2.4641  0.5448  0.4532
   7723SM   H7G10207   6.641   0.620  15.665 -0.2469  6.0627 -0.7607
   7723SM   C8F10208   6.843   0.687  15.644  0.0667 -0.1100 -0.2052
   7723SM   H8F10209   6.928   0.616  15.645 -0.7978 -1.1708  0.0924
   7723SM   H8G10210   6.879   0.781  15.691 -0.9896  0.9666 -1.4570
   7723SM   C9F10211   6.796   0.717  15.502 -0.1839 -0.2608  0.2402
   7723SM   H9F10212   6.717   0.795  15.506  0.3079  0.2078  1.5323
   7723SM   H9G10213   6.746   0.625  15.467  0.9120 -0.6257 -0.4231
   7723SM  C10F10214   6.916   0.734  15.405 -0.6025 -0.1408  0.3048
   7723SM  H10F10215   6.877   0.737  15.301 -2.0045 -1.2836  0.7621
   7723SM  H10G10216   6.987   0.649  15.416  0.5389  0.3091 -2.6531
   7723SM  C11F10217   6.992   0.862  15.428 -0.4372 -0.0776 -0.0003
   7723SM  H11F10218   7.047   0.857  15.525 -0.7760 -0.1032  0.1915
   7723SM  H11G10219   6.923   0.949  15.431 -0.9602 -0.5150  1.1705
   7723SM  C12F10220   7.100   0.900  15.319 -0.2156 -0.4628 -0.2443
   7723SM  H12F10221   7.172   0.969  15.368 -0.6311  0.4357 -0.8879
   7723SM  H12G10222   7.049   0.953  15.236 -2.2551 -0.5179  0.9122
   7723SM  C13F10223   7.195   0.790  15.271 -0.3671 -0.9775 -0.0166
   7723SM  H13F10224   7.130   0.714  15.224 -1.2730  1.2746 -2.7004
   7723SM  H13G10225   7.232   0.741  15.363  0.5134 -0.2617  0.0266
   7723SM  C14F10226   7.314   0.848  15.188 -0.2106  0.3535 -0.0373
   7723SM  H14F10227   7.404   0.802  15.235 -0.8883 -1.4616 -0.4260
   7723SM  H14G10228   7.325   0.954  15.218 -0.7485  0.6663 -0.9028
   7723SM  C15F10229   7.309   0.829  15.035 -0.2222 -0.4325 -0.1205
   7723SM  H15F10230   7.229   0.890  14.988 -0.5498 -1.0491 -0.3762
   7723SM  H15G10231   7.294   0.720  15.022  1.7697 -0.5957 -1.3933
   7723SM  C16F10232   7.441   0.874  14.966 -0.3187 -0.3540  0.3525
   7723SM  H16F10233   7.531   0.821  15.003  0.0040  0.7856  1.2861
   7723SM  H16G10234   7.435   0.980  15.001 -2.5248  0.1315 -1.2769
   7723SM  C17F10235   7.443   0.863  14.816 -0.2291 -0.1275 -0.3000
   7723SM  H17F10236   7.539   0.888  14.767  1.1018 -2.2230  1.0596
   7723SM  H17G10237   7.361   0.929  14.780  0.0063  1.2402  1.5227
   7723SM  C18F10238   7.404   0.717  14.778 -0.4561 -0.1266  0.5426
   7723SM  H18F10239   7.299   0.685  14.795 -0.3679 -1.5514 -1.3081
   7723SM  H18G10240   7.466   0.658  14.849 -1.6862 -0.1713  1.6067
   7723SM  C19F10241   7.432   0.680  14.633  0.5346  0.5274 -0.8940
   7723SM  H19F10242   7.376   0.590  14.600  1.6336 -0.5781  0.1180
   7723SM  H19G10243   7.541   0.667  14.619  0.9029  3.0612 -0.7083
   7723SM  C20F10244   7.395   0.783  14.523 -0.3089  0.4373  0.0283
   7723SM  H20F10245   7.463   0.870  14.529 -0.5807  0.7300 -0.9286
   7723SM  H20G10246   7.289   0.816  14.527 -1.1740 -2.1434  0.2265
   7723SM  C21F10247   7.400   0.737  14.375 -0.6435  0.0662  0.7357
   7723SM  H21F10248   7.402   0.828  14.310  0.7309  1.9429  3.2115
   7723SM  H21G10249   7.323   0.659  14.360  1.4289 -1.9221 -0.1636
   7723SM  C22F10250   7.529   0.666  14.333 -0.1410  0.5837  0.0591
   7723SM  H22F10251   7.543   0.570  14.386 -0.8012 -0.0149 -0.8355
   7723SM  H22G10252   7.614   0.737  14.342 -1.4483  2.1289  0.9570
   7723SM  C23F10253   7.522   0.618  14.184  0.3948 -0.2650  0.3268
   7723SM  H23F10254   7.420   0.575  14.176 -0.7698  2.3818 -0.1566
   7723SM  H23G10255   7.600   0.539  14.181  0.5124 -0.2278  1.7410
   7723SM  H23H10256   7.532   0.699  14.109 -1.8003 -0.7634 -0.6030
   7823SM     N10257   0.936   6.969  17.612  0.3008  0.7475  0.6962
   7823SM   C1510258   1.059   7.033  17.547  0.1107 -0.3269  0.1470
   7823SM  H15A10259   1.032   7.065  17.448 -0.9067 -1.5015  0.0098
   7823SM  H15B10260   1.140   6.965  17.523 -0.0190 -0.4389  0.0232
   7823SM  H15C10261   1.096   7.114  17.608 -1.6461  0.3096  0.4302
   7823SM   C1410262   0.973   6.949  17.756  0.6307 -0.1706  0.6244
   7823SM  H14A10263   0.886   6.927  17.815 -0.8837  2.3562 -0.5101
   7823SM  H14B10264   1.014   7.039  17.800 -2.2247  0.9733  1.1830
   7823SM  H14C10265   1.047   6.870  17.763  1.8683  0.7947 -0.8125
   7823SM   C1310266   0.828   7.062  17.611  0.3185 -0.6324  0.1179
   7823SM  H13A10267   0.806   7.096  17.511 -1.1324  0.9842  0.9418
   7823SM  H13B10268   0.843   7.154  17.665 -0.2589 -0.3723 -0.1519
   7823SM  H13C10269   0.734   7.020  17.642 -1.3665  1.9673 -1.1150
   7823SM   C1210270   0.898   6.837  17.539  0.1186 -0.0206 -0.8464
   7823SM  H12A10271   0.806   6.802  17.584  0.9044  0.1717  0.9701
   7823SM  H12B10272   0.979   6.766  17.542  0.6872  0.6142 -0.9574
   7823SM   C1110273   0.864   6.844  17.384  0.1037 -0.4537  0.3025
   7823SM  H11A10274   0.868   6.743  17.337  0.2615 -0.2828 -0.0603
   7823SM  H11B10275   0.949   6.902  17.341 -1.1430  2.2464  1.2708
   7823SM     P10276   0.714   7.007  17.246  0.3942  0.0696 -0.2626
   7823SM   O1310277   0.575   6.992  17.202  0.1572 -0.0014 -0.1269
   7823SM   O1410278   0.753   7.135  17.307  0.0024  0.0159 -0.7973
   7823SM   O1110279   0.814   6.960  17.134  0.3848  0.0610  0.4171
   7823SM   O1210280   0.741   6.905  17.362  0.3283 -1.0605 -0.7651
   7823SM   C1S10281   0.806   6.839  17.061  0.1328 -0.5259 -0.1138
   7823SM   H1S10282   0.725   6.769  17.087 -1.9733  1.2753 -1.4923
   7823SM   H1T10283   0.900   6.781  17.078  0.1232 -1.1691 -1.9757
   7823SM    NF10284   0.758   6.732  16.833 -0.3564  0.3353 -0.6909
   7823SM   HNF10285   0.818   6.698  16.762  0.4686 -0.1447  0.2069
   7823SM   C2S10286   0.808   6.857  16.907 -0.2894  0.3115  1.0623
   7823SM   H2S10287   0.733   6.937  16.892  0.7233  1.0363 -0.2680
   7823SM   C3S10288   0.947   6.913  16.863  0.4001 -0.2166 -0.1702
   7823SM   H3S10289   1.019   6.832  16.890 -1.3463 -1.4180  1.1056
   7823SM    O310290   0.987   7.033  16.928  0.5824 -0.1706 -0.1909
   7823SM   HO310291   0.924   7.042  17.000  0.5503 -0.6554 -0.1576
   7823SM   C4S10292   0.955   6.950  16.717  0.2093  0.1404  0.6466
   7823SM   H4S10293   0.881   7.027  16.690  0.8166  0.7659  0.7220
   7823SM   C5S10294   1.043   6.910  16.623  0.3791  0.1276 -0.3622
   7823SM   H5S10295   1.124   6.838  16.641  0.8205  0.6935 -0.0644
   7823SM   C6S10296   1.042   6.963  16.478 -0.6280 -0.3255 -0.6834
   7823SM   H6S10297   1.140   7.011  16.459 -0.6258 -0.8224 -2.0075
   7823SM   H6T10298   0.957   7.033  16.459 -0.7419 -0.2075  0.2142
   7823SM   C7S10299   1.032   6.843  16.385 -0.2296 -0.6972  0.5685
   7823SM   H7S10300   0.929   6.804  16.401 -0.6372  0.0452 -0.1625
   7823SM   H7T10301   1.110   6.765  16.393  0.3308 -0.4202 -1.4960
   7823SM   C8S10302   1.046   6.881  16.234 -0.6019  0.1560  0.2762
   7823SM   H8S10303   1.139   6.943  16.230  0.4303 -1.2804  1.0360
   7823SM   H8T10304   0.965   6.956  16.217  0.2416  0.9907 -0.1967
   7823SM   C9S10305   1.044   6.769  16.135  0.1075 -0.7968 -0.5679
   7823SM   H9S10306   0.949   6.712  16.130 -0.1925 -0.3471 -0.1264
   7823SM   H9T10307   1.124   6.703  16.173  0.9454  0.4495 -0.1143
   7823SM  C10S10308   1.074   6.810  15.996 -0.4569  0.1669 -0.0623
   7823SM  H10S10309   1.170   6.863  16.009  0.0644 -0.9418  0.8018
   7823SM  H10T10310   0.999   6.884  15.961 -0.8666  0.6060  1.6272
   7823SM  C11S10311   1.066   6.704  15.887 -0.0236 -0.3229 -0.4446
   7823SM  H11S10312   0.962   6.664  15.886 -1.2386  2.4387  2.0013
   7823SM  H11T10313   1.143   6.625  15.901 -0.1310  0.0937  3.4565
   7823SM  C12S10314   1.097   6.766  15.747  0.0155 -0.6046 -0.2813
   7823SM  H12S10315   1.190   6.825  15.763 -1.0267  0.7333  1.0745
   7823SM  H12T10316   1.012   6.828  15.713  0.7110  1.7966  2.0578
   7823SM  C13S10317   1.117   6.661  15.630 -0.2990  0.3473 -0.2110
   7823SM  H13S10318   1.023   6.610  15.601  1.0713 -1.4696 -1.7456
   7823SM  H13T10319   1.176   6.579  15.677 -2.0593 -0.0883  1.3297
   7823SM  C14S10320   1.199   6.717  15.516  0.2988  0.5048 -0.1794
   7823SM  H14S10321   1.291   6.763  15.558  0.0746  1.1750 -0.4177
   7823SM  H14T10322   1.151   6.800  15.461  0.4272  0.7753  0.1082
   7823SM  C15S10323   1.246   6.616  15.411 -0.2668  0.3276  0.3823
   7823SM  H15S10324   1.291   6.532  15.467 -0.5260  0.1039  0.2552
   7823SM  H15T10325   1.320   6.674  15.352  1.3336 -1.0448  0.9812
   7823SM  C16S10326   1.140   6.556  15.313 -0.2772 -0.3735  0.6240
   7823SM  H16S10327   1.043   6.544  15.366 -0.3862  0.8922  0.7550
   7823SM  H16T10328   1.171   6.454  15.282  1.9369  0.0265  1.3068
   7823SM  C17S10329   1.120   6.651  15.187 -0.4961  0.8450  0.2310
   7823SM  H17S10330   1.221   6.664  15.142 -0.0527  1.9273  1.4694
   7823SM  H17T10331   1.106   6.754  15.224  1.3245  0.9894  0.6478
   7823SM  C18S10332   1.034   6.588  15.082  0.0099  0.0621  0.5619
   7823SM  H18S10333   1.091   6.510  15.027 -0.8664  0.3048 -0.7355
   7823SM  H18T10334   1.008   6.668  15.009 -1.0319  0.3441  1.2253
   7823SM  H18U10335   0.939   6.550  15.124 -0.8789 -0.8927 -2.0762
   7823SM   C1F10336   0.643   6.675  16.847  0.2954 -0.2333 -0.9864
   7823SM    OF10337   0.566   6.736  16.919  0.8858 -0.5140 -0.2152
   7823SM   C2F10338   0.618   6.541  16.792 -0.4293  0.1568  0.3110
   7823SM   H2F10339   0.561   6.481  16.866 -1.2327 -0.1148 -0.5086
   7823SM   H2G10340   0.715   6.487  16.794 -0.6763 -0.3766 -1.0192
   7823SM   C3F10341   0.530   6.541  16.664 -0.1324 -0.0845 -0.4039
   7823SM   H3F10342   0.439   6.599  16.691  0.5564  1.4269 -1.2294
   7823SM   H3G10343   0.498   6.438  16.639  1.0443 -0.3840 -0.7013
   7823SM   C4F10344   0.579   6.609  16.538 -0.2098  0.7872 -0.0928
   7823SM   H4F10345   0.680   6.569  16.515 -0.2809 -0.0709  0.9974
   7823SM   H4G10346   0.575   6.719  16.552 -1.8479  0.8034 -0.5386
   7823SM   C5F10347   0.492   6.585  16.413  0.3124 -0.1583 -0.1988
   7823SM   H5F10348   0.390   6.620  16.442  1.7209  2.8111  1.5640
   7823SM   H5G10349   0.488   6.476  16.390  0.9292 -0.4275  0.8766
   7823SM   C6F10350   0.539   6.674  16.295 -0.6017  0.0574  0.2650
   7823SM   H6F10351   0.641   6.644  16.265 -0.5155  2.2483 -1.9756
   7823SM   H6G10352   0.541   6.778  16.335 -0.6608 -0.3806  1.4304
   7823SM   C7F10353   0.446   6.657  16.174 -0.4486  0.9405 -0.0883
   7823SM   H7F10354   0.348   6.709  16.177 -0.5469  0.7328  0.5713
   7823SM   H7G10355   0.432   6.548  16.153  0.6190  0.7122  0.3437
   7823SM   C8F10356   0.520   6.702  16.047 -0.6633 -0.1079  0.0135
   7823SM   H8F10357   0.585   6.790  16.066 -0.1716 -1.0468  3.2923
   7823SM   H8G10358   0.448   6.723  15.965 -0.0241  1.4329 -0.1945
   7823SM   C9F10359   0.604   6.591  15.978 -0.2649 -0.4843 -0.6300
   7823SM   H9F10360   0.540   6.513  15.931  0.2243 -1.0363 -0.3994
   7823SM   H9G10361   0.680   6.565  16.054 -0.3693  2.1908  0.5034
   7823SM  C10F10362   0.679   6.670  15.867  0.1984  0.4534 -0.0021
   7823SM  H10F10363   0.750   6.593  15.829 -1.0068  0.0165 -1.4798
   7823SM  H10G10364   0.737   6.757  15.904 -0.4355  0.8877 -0.0249
   7823SM  C11F10365   0.589   6.713  15.755 -0.0239 -1.0503 -0.1110
   7823SM  H11F10366   0.553   6.813  15.786 -0.2362 -0.2034 -2.8526
   7823SM  H11G10367   0.502   6.644  15.748 -1.8750  1.1528  0.0599
   7823SM  C12F10368   0.658   6.725  15.619 -0.2396  0.4010  0.4295
   7823SM  H12F10369   0.684   6.622  15.587  0.0290  0.4964  0.3347
   7823SM  H12G10370   0.758   6.774  15.633  0.5424 -1.5913  2.4983
   7823SM  C13F10371   0.579   6.803  15.511 -0.5990 -0.0129  0.0022
   7823SM  H13F10372   0.579   6.912  15.529 -0.6581  0.1962 -1.1603
   7823SM  H13G10373   0.474   6.766  15.510 -1.4147  2.1477 -0.6705
   7823SM  C14F10374   0.646   6.783  15.375  0.1583  0.4570 -0.4902
   7823SM  H14F10375   0.656   6.679  15.337  1.6279  0.4619 -0.1827
   7823SM  H14G10376   0.747   6.830  15.374 -0.9792  3.2031 -3.6235
   7823SM  C15F10377   0.579   6.857  15.257  0.3170  0.5226  0.1636
   7823SM  H15F10378   0.580   6.967  15.268 -1.4807  0.6776 -0.9631
   7823SM  H15G10379   0.476   6.818  15.267 -0.2250  2.3181  2.4673
   7823SM  C16F10380   0.633   6.825  15.120 -0.3844 -0.1009 -0.3830
   7823SM  H16F10381   0.601   6.720  15.104 -0.0533 -0.2622 -0.0159
   7823SM  H16G10382   0.743   6.819  15.134 -0.2990  0.1545 -0.8988
   7823SM  C17F10383   0.601   6.918  15.006  0.2682 -0.0292 -0.0138
   7823SM  H17F10384   0.646   7.020  15.009  0.8152 -0.2779  0.5880
   7823SM  H17G10385   0.491   6.926  15.011  0.2646 -0.4913  0.9343
   7823SM  C18F10386   0.630   6.867  14.867 -0.3224 -0.1939  0.0707
   7823SM  H18F10387   0.607   6.758  14.873  1.0923 -0.5278 -0.1854
   7823SM  H18G10388   0.735   6.890  14.839  0.2456  0.5503  2.5619
   7823SM  C19F10389   0.539   6.916  14.754  0.1638  0.5876  0.4729
   7823SM  H19F10390   0.548   7.026  14.739  1.2396  0.4832  0.2875
   7823SM  H19G10391   0.433   6.886  14.769  0.0906  0.7057  0.1916
   7823SM  C20F10392   0.573   6.867  14.617 -0.2036  0.2689 -0.3260
   7823SM  H20F10393   0.599   6.759  14.629  0.6736  0.5756  0.7501
   7823SM  H20G10394   0.658   6.926  14.577  0.1586 -0.5487 -0.7855
   7823SM  C21F10395   0.447   6.869  14.522 -0.6799  0.5721  0.6982
   7823SM  H21F10396   0.388   6.961  14.544  0.7131  1.4894  0.7348
   7823SM  H21G10397   0.391   6.776  14.544 -1.1843  0.8112  0.4517
   7823SM  C22F10398   0.473   6.869  14.371 -0.0659 -0.6986  0.1492
   7823SM  H22F10399   0.373   6.875  14.324  0.0736 -3.5720 -0.7051
   7823SM  H22G10400   0.522   6.771  14.352  1.1928 -0.2842  1.0967
   7823SM  C23F10401   0.552   6.996  14.318 -0.4754 -0.2583  0.2611
   7823SM  H23F10402   0.661   6.974  14.322 -0.0213  1.9397  1.9880
   7823SM  H23G10403   0.531   7.084  14.382  0.3407  0.5398 -0.5434
   7823SM  H23H10404   0.518   7.019  14.215 -0.1261 -1.3788 -0.1198
   7923SM     N10405   6.749   6.838  17.130 -0.6252 -0.1684 -0.1331
   7923SM   C1510406   6.679   6.880  17.256 -0.1844  0.2059  0.2435
   7923SM  H15A10407   6.574   6.891  17.236 -0.5023 -0.2775  1.5574
   7923SM  H15B10408   6.729   6.971  17.286  1.0151 -0.6438  0.9196
   7923SM  H15C10409   6.696   6.802  17.329  1.7328 -0.7904 -1.1731
   7923SM   C1410410   6.899   6.840  17.164  0.4183  0.4534 -0.1557
   7923SM  H14A10411   6.926   6.945  17.167 -1.2385  0.8904  2.2206
   7923SM  H14B10412   6.951   6.786  17.086 -0.5292 -0.1347 -0.4015
   7923SM  H14C10413   6.921   6.803  17.262 -1.3647  1.4692  0.6918
   7923SM   C1310414   6.723   6.694  17.116 -0.1757 -0.6725  0.3586
   7923SM  H13A10415   6.765   6.651  17.026  2.7810  1.7208  0.4340
   7923SM  H13B10416   6.619   6.664  17.117  0.5841 -3.7809 -0.3155
   7923SM  H13C10417   6.758   6.639  17.203  1.5049  1.2854  0.9794
   7923SM   C1210418   6.714   6.924  17.012 -0.2179  0.4216 -0.1755
   7923SM  H12A10419   6.609   6.907  16.994 -0.0180  0.3305 -1.3126
   7923SM  H12B10420   6.767   6.878  16.930  0.2618 -1.2923  1.0464
   7923SM   C1110421   6.737   7.076  17.012 -0.6292  0.8595  0.0183
   7923SM  H11A10422   6.712   7.108  16.909 -0.5504 -0.5358 -0.4554
   7923SM  H11B10423   6.845   7.101  17.018 -0.5634  0.7337 -0.6225
   7923SM     P10424   6.510   7.176  17.118 -0.1641 -0.2898 -0.4434
   7923SM   O1310425   6.456   7.051  17.178  0.4408 -0.5416  0.0379
   7923SM   O1410426   6.478   7.307  17.181 -0.6228  0.2931 -0.4517
   7923SM   O1110427   6.467   7.177  16.963  0.4270  0.0928  0.1840
   7923SM   O1210428   6.664   7.154  17.111  0.4448  0.1485  0.0872
   7923SM   C1S10429   6.484   7.301  16.885  0.1142  0.4484 -0.3609
   7923SM   H1S10430   6.565   7.364  16.927 -0.5225  0.9660  0.1352
   7923SM   H1T10431   6.391   7.363  16.890 -0.9073 -0.9403 -1.2870
   7923SM    NF10432   6.511   7.397  16.653  0.1211 -0.4917  0.1471
   7923SM   HNF10433   6.430   7.415  16.598 -0.1686 -0.7644  0.4774
   7923SM   C2S10434   6.515   7.273  16.732 -0.1712 -0.0370 -0.7497
   7923SM   H2S10435   6.618   7.231  16.733  0.7020  1.8896  1.3160
   7923SM   C3S10436   6.412   7.165  16.681 -0.0210  0.6066 -0.7044
   7923SM   H3S10437   6.310   7.209  16.693 -0.1302 -0.1026  1.3655
   7923SM    O310438   6.405   7.044  16.756  0.8932 -0.0943  0.7118
   7923SM   HO310439   6.434   7.077  16.842 -0.2215  2.6495  0.1444
   7923SM   C4S10440   6.430   7.130  16.536  0.3321 -0.3975  0.2418
   7923SM   H4S10441   6.372   7.201  16.475 -0.7695 -0.9111  0.6607
   7923SM   C5S10442   6.522   7.045  16.482 -0.1500 -0.1733 -0.8795
   7923SM   H5S10443   6.586   6.989  16.552 -0.1381  1.3658  0.4201
   7923SM   C6S10444   6.553   7.027  16.337 -0.0004  0.2505  0.0138
   7923SM   H6S10445   6.492   6.947  16.290 -1.7946 -0.8292  3.8219
   7923SM   H6T10446   6.660   7.002  16.326 -0.3987 -0.6513 -2.5351
   7923SM   C7S10447   6.524   7.161  16.254  0.2041  0.2926  0.1079
   7923SM   H7S10448   6.584   7.248  16.288  2.7399 -0.4144 -2.2527
   7923SM   H7T10449   6.416   7.188  16.256 -0.7397 -2.8808 -0.9979
   7923SM   C8S10450   6.538   7.136  16.100 -0.0297  0.1213  0.3008
   7923SM   H8S10451   6.483   7.050  16.056  1.0144  0.2084 -1.2834
   7923SM   H8T10452   6.643   7.107  16.078 -0.4479 -1.0909 -0.2145
   7923SM   C9S10453   6.500   7.256  16.009  0.0781  1.0702  0.7000
   7923SM   H9S10454   6.550   7.350  16.039  1.2171  0.5410  0.5350
   7923SM   H9T10455   6.389   7.262  16.008 -0.0662 -0.7371 -1.4847
   7923SM  C10S10456   6.554   7.225  15.871  0.3788  0.3122  0.0465
   7923SM  H10S10457   6.506   7.133  15.832  1.0827  0.0037 -0.0992
   7923SM  H10T10458   6.664   7.209  15.878  0.8282  1.3773 -2.9872
   7923SM  C11S10459   6.533   7.336  15.760  0.0352  0.0672  0.1360
   7923SM  H11S10460   6.547   7.434  15.810 -0.5487 -0.4158  1.2990
   7923SM  H11T10461   6.431   7.330  15.717  0.8499  0.4592 -1.9825
   7923SM  C12S10462   6.624   7.313  15.641 -0.3929 -0.2099  0.6317
   7923SM  H12S10463   6.731   7.337  15.658 -0.1180  0.7641 -1.9503
   7923SM  H12T10464   6.594   7.387  15.563 -0.7141  2.3438  3.0119
   7923SM  C13S10465   6.617   7.168  15.583 -0.3857  0.2502  0.3881
   7923SM  H13S10466   6.508   7.144  15.586 -0.5605  0.2860 -2.5774
   7923SM  H13T10467   6.663   7.104  15.661  3.7608  1.0240 -1.1827
   7923SM  C14S10468   6.687   7.141  15.451  0.1139  0.0282 -0.1956
   7923SM  H14S10469   6.643   7.191  15.362  1.1423 -0.8125 -1.2180
   7923SM  H14T10470   6.683   7.032  15.427 -2.1711 -0.2056  0.9415
   7923SM  C15S10471   6.838   7.183  15.439  0.3363 -0.1779 -0.3956
   7923SM  H15S10472   6.859   7.267  15.509 -2.0362 -1.1473  1.6166
   7923SM  H15T10473   6.848   7.218  15.334 -0.3790  0.8516 -0.1377
   7923SM  C16S10474   6.933   7.068  15.462 -0.4044 -0.2137  0.2126
   7923SM  H16S10475   6.908   6.980  15.399 -0.2262  1.2748 -2.0439
   7923SM  H16T10476   6.900   7.032  15.562 -0.7124 -0.1190  0.1476
   7923SM  C17S10477   7.083   7.104  15.458  0.7508 -0.0323  0.8409
   7923SM  H17S10478   7.143   7.014  15.484 -0.0464 -1.1006 -0.8273
   7923SM  H17T10479   7.098   7.190  15.527 -2.7092 -0.1232  1.9116
   7923SM  C18S10480   7.122   7.141  15.314  0.7948 -1.0868 -0.4691
   7923SM  H18S10481   7.219   7.194  15.316 -0.5851  1.5796  0.4448
   7923SM  H18T10482   7.050   7.208  15.263  0.8607  0.1792  1.0405
   7923SM  H18U10483   7.141   7.051  15.252  0.0294 -0.9260 -0.9516
   7923SM   C1F10484   6.598   7.496  16.660 -0.2670  0.6925  0.0379
   7923SM    OF10485   6.696   7.489  16.734 -0.2915 -0.1008 -0.3049
   7923SM   C2F10486   6.593   7.608  16.568 -0.8761  0.4965 -0.1846
   7923SM   H2F10487   6.657   7.692  16.604  3.1436 -2.9822  1.6089
   7923SM   H2G10488   6.487   7.642  16.557 -1.2904 -0.8388 -0.4764
   7923SM   C3F10489   6.643   7.558  16.430  0.4765  0.5199 -0.1700
   7923SM   H3F10490   6.596   7.460  16.406  0.0385  0.2052  1.7851
   7923SM   H3G10491   6.752   7.533  16.433  0.2156 -1.0136 -1.6140
   7923SM   C4F10492   6.608   7.650  16.320  0.6788  0.5687  0.4325
   7923SM   H4F10493   6.632   7.756  16.342 -1.5235  1.1979  0.1032
   7923SM   H4G10494   6.499   7.643  16.297  1.1102 -2.7789 -1.2395
   7923SM   C5F10495   6.674   7.611  16.188 -0.0736  0.1119  0.3695
   7923SM   H5F10496   6.666   7.503  16.163  0.7953 -0.2895  1.7507
   7923SM   H5G10497   6.783   7.630  16.192 -0.0853  0.1930  0.3004
   7923SM   C6F10498   6.616   7.694  16.069 -0.3172  0.7680 -0.1591
   7923SM   H6F10499   6.632   7.801  16.094 -1.2274  0.5935  1.2980
   7923SM   H6G10500   6.509   7.682  16.040 -0.3616  0.6239  0.0603
   7923SM   C7F10501   6.691   7.672  15.938 -0.1834  0.8288 -0.1672
   7923SM   H7F10502   6.709   7.566  15.911 -0.4088  0.4999  0.9430
   7923SM   H7G10503   6.794   7.711  15.951 -0.3429  1.0775  0.3332
   7923SM   C8F10504   6.622   7.737  15.821 -0.0644 -0.7153 -0.1433
   7923SM   H8F10505   6.615   7.848  15.827 -2.9315 -0.8996  1.2164
   7923SM   H8G10506   6.517   7.702  15.814 -0.6312  0.4722  1.5913
   7923SM   C9F10507   6.699   7.700  15.695 -0.0474 -0.5633 -0.3358
   7923SM   H9F10508   6.691   7.589  15.691  1.2923 -0.6701 -0.8962
   7923SM   H9G10509   6.804   7.726  15.721 -0.0850 -2.3820  1.9610
   7923SM  C10F10510   6.646   7.758  15.564 -0.4030 -0.1189 -0.0446
   7923SM  H10F10511   6.702   7.718  15.477  1.5250 -1.0908  1.5694
   7923SM  H10G10512   6.641   7.868  15.545  2.0691 -0.2630 -2.0877
   7923SM  C11F10513   6.495   7.713  15.545 -0.0712  0.6826 -0.6932
   7923SM  H11F10514   6.441   7.771  15.623  0.9033  0.9482 -0.1956
   7923SM  H11G10515   6.501   7.606  15.574  1.0609  0.9419  0.1318
   7923SM  C12F10516   6.446   7.732  15.407 -0.5919  0.9072 -0.4707
   7923SM  H12F10517   6.492   7.651  15.346 -1.4911 -0.1169  0.1731
   7923SM  H12G10518   6.478   7.826  15.358  0.1980  0.0332 -1.7140
   7923SM  C13F10519   6.295   7.712  15.383  0.2583  0.3016 -0.3959
   7923SM  H13F10520   6.250   7.795  15.443  0.6559 -1.3673  2.4177
   7923SM  H13G10521   6.275   7.617  15.436  1.5008  0.8445  1.1211
   7923SM  C14F10522   6.249   7.727  15.235  0.6604  0.4035  0.1855
   7923SM  H14F10523   6.253   7.624  15.195  0.2713  0.5659 -0.2851
   7923SM  H14G10524   6.326   7.788  15.181  2.0723  0.2570  1.9461
   7923SM  C15F10525   6.106   7.780  15.214  0.1775  0.2683  0.2730
   7923SM  H15F10526   6.081   7.780  15.105  0.4581  1.1235  0.2011
   7923SM  H15G10527   6.100   7.882  15.256  0.3909 -0.2229  1.5541
   7923SM  C16F10528   5.997   7.693  15.273 -0.1311  0.2522 -0.2229
   7923SM  H16F10529   5.901   7.740  15.242  0.5451  1.1139 -1.0793
   7923SM  H16G10530   6.018   7.688  15.382 -0.9336 -2.4923 -0.1282
   7923SM  C17F10531   5.997   7.555  15.209 -0.9613 -0.0568  0.3502
   7923SM  H17F10532   5.935   7.483  15.266 -1.5275 -2.5222 -3.0446
   7923SM  H17G10533   6.100   7.512  15.215  0.6708  3.3779 -0.6071
   7923SM  C18F10534   5.946   7.545  15.062 -0.2894  0.2646 -0.5142
   7923SM  H18F10535   6.014   7.603  14.996  0.8144  0.3459  0.6517
   7923SM  H18G10536   5.842   7.582  15.047  0.1937  1.3936 -1.3010
   7923SM  C19F10537   5.958   7.407  14.991  0.0575 -0.5431  0.0076
   7923SM  H19F10538   5.926   7.327  15.062  0.3219  0.0408  0.7964
   7923SM  H19G10539   6.065   7.387  14.967 -0.2194 -0.1670 -1.6403
   7923SM  C20F10540   5.889   7.402  14.856 -1.3956 -0.4875  0.2491
   7923SM  H20F10541   5.935   7.316  14.802 -1.2147 -0.5919  0.5647
   7923SM  H20G10542   5.909   7.490  14.792  0.6025  0.0386  1.4804
   7923SM  C21F10543   5.737   7.390  14.843  0.6578 -0.5402  0.0613
   7923SM  H21F10544   5.696   7.468  14.909  1.9703 -0.9182  1.3873
   7923SM  H21G10545   5.703   7.290  14.878  0.1135 -1.1138 -1.9274
   7923SM  C22F10546   5.680   7.402  14.697 -0.7582 -0.4184 -0.4056
   7923SM  H22F10547   5.735   7.326  14.638 -0.1264  2.2850 -3.6569
   7923SM  H22G10548   5.720   7.496  14.653  0.6967 -0.3017  1.0750
   7923SM  C23F10549   5.531   7.397  14.690 -0.1630  0.2057  0.0333
   7923SM  H23F10550   5.500   7.393  14.584  1.1687  1.1024 -0.4090
   7923SM  H23G10551   5.475   7.484  14.731  1.5209  0.9147  0.9561
   7923SM  H23H10552   5.497   7.308  14.748 -1.8764  1.0352  0.3931
   8023SM     N10553   0.487   0.218  17.285  0.3423 -0.0578  0.2544
   8023SM   C1510554   0.418   0.128  17.202  0.5189  0.0646 -0.3412
   8023SM  H15A10555   0.468   0.032  17.204 -2.1368 -1.4163 -0.4049
   8023SM  H15B10556   0.431   0.153  17.097  1.8455 -1.0064 -0.4576
   8023SM  H15C10557   0.312   0.129  17.220  0.5327  2.0228 -0.2267
   8023SM   C1410558   0.432   0.362  17.277  0.0486  0.3992  0.6555
   8023SM  H14A10559   0.329   0.359  17.309  0.9074 -1.1239  3.6010
   8023SM  H14B10560   0.430   0.397  17.175 -0.3090 -0.0385  0.5074
   8023SM  H14C10561   0.486   0.430  17.340  0.5667 -1.2451  2.0611
   8023SM   C1310562   0.465   0.175  17.424  0.3660  0.1540 -0.2428
   8023SM  H13A10563   0.451   0.068  17.435 -2.2194  0.5712  1.5385
   8023SM  H13B10564   0.373   0.218  17.460  1.4093  1.5122  0.8938
   8023SM  H13C10565   0.543   0.205  17.492 -0.0441  0.6892 -0.0023
   8023SM   C1210566   0.639   0.220  17.254 -0.2896 -0.3965  0.4151
   8023SM  H12A10567   0.685   0.299  17.311  0.8441  0.0242 -1.0339
   8023SM  H12B10568   0.633   0.252  17.151  0.7742  2.7250  1.2268
   8023SM   C1110569   0.715   0.082  17.270  0.5776  0.1407 -0.5454
   8023SM  H11A10570   0.721   0.048  17.376 -0.1830 -1.5363 -0.9983
   8023SM  H11B10571   0.814   0.117  17.234  1.5142  1.3152  2.8051
   8023SM     P10572   0.753  -0.140  17.136  0.0591 -0.5556 -0.0050
   8023SM   O1310573   0.822  -0.076  17.022  0.4442 -0.7087  0.3204
   8023SM   O1410574   0.839  -0.193  17.243  0.3239  0.5490 -0.7309
   8023SM   O1110575   0.652  -0.250  17.082  0.1571  0.5089  0.3908
   8023SM   O1210576   0.659  -0.025  17.194 -0.6374  0.2963 -0.2793
   8023SM   C1S10577   0.555  -0.221  16.982 -0.1259 -0.1027 -0.0157
   8023SM   H1S10578   0.545  -0.110  16.972  0.7823 -0.0532 -0.4545
   8023SM   H1T10579   0.457  -0.268  17.005 -0.5165  0.9613  0.5807
   8023SM    NF10580   0.502  -0.241  16.731 -0.4687 -0.0835 -0.4028
   8023SM   HNF10581   0.417  -0.291  16.732 -0.0598 -0.7828  1.1260
   8023SM   C2S10582   0.598  -0.277  16.834  0.6703  0.1700 -0.0181
   8023SM   H2S10583   0.698  -0.231  16.820  0.1341  1.0543 -1.0880
   8023SM   C3S10584   0.621  -0.431  16.843  0.1219  1.0498 -0.4935
   8023SM   H3S10585   0.530  -0.475  16.891 -0.6642  0.9027 -2.0587
   8023SM    O310586   0.725  -0.467  16.936 -0.0895  0.6574  0.1849
   8023SM   HO310587   0.730  -0.396  17.000 -0.1641 -0.6995  1.7656
   8023SM   C4S10588   0.644  -0.499  16.709  0.1937  0.1996  0.1446
   8023SM   H4S10589   0.713  -0.453  16.638  0.3383 -1.8373 -1.1157
   8023SM   C5S10590   0.576  -0.609  16.662 -0.0231 -0.6644 -0.3444
   8023SM   H5S10591   0.497  -0.654  16.724 -0.1373 -0.5727 -0.4229
   8023SM   C6S10592   0.595  -0.661  16.523 -0.6350 -0.0590 -0.3608
   8023SM   H6S10593   0.496  -0.695  16.485  0.2659 -1.2624 -1.7401
   8023SM   H6T10594   0.643  -0.762  16.520 -0.5395  0.0022 -1.6018
   8023SM   C7S10595   0.661  -0.577  16.413  0.3203  0.0934  0.2498
   8023SM   H7S10596   0.769  -0.565  16.437  0.7305 -0.7756 -1.0583
   8023SM   H7T10597   0.624  -0.474  16.393  1.8958  1.1595  2.4763
   8023SM   C8S10598   0.657  -0.648  16.273 -0.9062  0.3927 -0.3899
   8023SM   H8S10599   0.555  -0.667  16.234 -0.5513 -0.1092 -1.0943
   8023SM   H8T10600   0.719  -0.738  16.291 -0.1921  0.6353 -1.5127
   8023SM   C9S10601   0.727  -0.557  16.169 -0.7988  0.2613  0.5901
   8023SM   H9S10602   0.832  -0.542  16.200 -0.3923 -2.0793  0.5741
   8023SM   H9T10603   0.666  -0.467  16.146 -0.4374  0.0681 -1.3326
   8023SM  C10S10604   0.736  -0.629  16.030 -0.5640 -0.2860  0.4932
   8023SM  H10S10605   0.632  -0.629  15.990 -0.5918  0.9241  0.5318
   8023SM  H10T10606   0.785  -0.729  16.036  0.7973  0.2424 -1.0500
   8023SM  C11S10607   0.830  -0.556  15.930 -0.2837  0.1153  0.2229
   8023SM  H11S10608   0.931  -0.550  15.977 -1.1182 -2.3861  2.5924
   8023SM  H11T10609   0.781  -0.458  15.915  0.0155 -0.1615 -3.8526
   8023SM  C12S10610   0.826  -0.621  15.796  0.8600 -0.4117  0.5641
   8023SM  H12S10611   0.719  -0.624  15.765  1.1245  1.0776 -0.5806
   8023SM  H12T10612   0.859  -0.727  15.791  0.3362 -0.5096 -1.4817
   8023SM  C13S10613   0.898  -0.554  15.681  0.2201 -0.1338  0.1895
   8023SM  H13S10614   1.006  -0.560  15.707  0.2218  1.6378  0.7527
   8023SM  H13T10615   0.867  -0.447  15.681 -1.4737 -0.5423 -2.0288
   8023SM  C14S10616   0.885  -0.630  15.546 -0.0740  0.4175 -0.4953
   8023SM  H14S10617   0.783  -0.612  15.504  0.2096  2.9176 -0.2693
   8023SM  H14T10618   0.885  -0.738  15.572 -1.4247  0.6656  0.7365
   8023SM  C15S10619   0.983  -0.593  15.435 -0.5807 -0.2990  0.4648
   8023SM  H15S10620   1.090  -0.607  15.462 -0.6721  0.2711  1.1300
   8023SM  H15T10621   0.970  -0.487  15.404  0.7489 -0.5820 -1.2722
   8023SM  C16S10622   0.940  -0.669  15.308  0.3120 -0.7460 -0.1316
   8023SM  H16S10623   0.846  -0.641  15.254 -0.9658  0.9357  2.7292
   8023SM  H16T10624   0.927  -0.773  15.344 -0.5410 -1.1481 -1.5424
   8023SM  C17S10625   1.049  -0.653  15.207  0.4060  0.5278 -0.0309
   8023SM  H17S10626   1.130  -0.721  15.240 -0.5660 -0.6040  0.0728
   8023SM  H17T10627   1.081  -0.546  15.204 -0.0564  0.6580 -0.5554
   8023SM  C18S10628   1.023  -0.695  15.069  0.7229  0.5188  0.6636
   8023SM  H18S10629   1.015  -0.805  15.056 -0.7376  0.7734 -0.9496
   8023SM  H18T10630   1.100  -0.667  14.994  0.3356  0.4691  0.2466
   8023SM  H18U10631   0.925  -0.650  15.041  0.4024 -0.1792  0.6487
   8023SM   C1F10632   0.509  -0.120  16.681  0.5528 -0.4736  0.5821
   8023SM    OF10633   0.588  -0.046  16.726  0.1448 -0.4060  0.1276
   8023SM   C2F10634   0.402  -0.082  16.573  0.2272 -0.0482 -1.0616
   8023SM   H2F10635   0.361   0.012  16.616  0.5696 -1.1398  1.8467
   8023SM   H2G10636   0.326  -0.162  16.567 -1.6162  1.6769 -1.6595
   8023SM   C3F10637   0.458  -0.075  16.431  0.3303 -0.4161  0.3191
   8023SM   H3F10638   0.378  -0.056  16.356  1.7752 -0.6704 -1.3570
   8023SM   H3G10639   0.501  -0.175  16.406 -0.6307 -0.2929 -2.1678
   8023SM   C4F10640   0.566   0.029  16.416  0.0488  0.3070 -0.5724
   8023SM   H4F10641   0.662  -0.014  16.451  0.4273  0.6822 -1.1274
   8023SM   H4G10642   0.543   0.110  16.488  0.5315  0.0952 -0.1775
   8023SM   C5F10643   0.570   0.091  16.275  0.1953  0.1787 -0.9376
   8023SM   H5F10644   0.656   0.160  16.277 -0.5788  1.1542  0.3018
   8023SM   H5G10645   0.475   0.142  16.249 -0.2507  0.0846  0.3900
   8023SM   C6F10646   0.596  -0.003  16.154  0.2628  0.2766 -0.0487
   8023SM   H6F10647   0.514  -0.076  16.134 -0.6798  1.4767 -0.6659
   8023SM   H6G10648   0.688  -0.060  16.180 -0.7263 -1.9371 -1.1220
   8023SM   C7F10649   0.622   0.084  16.031 -0.1389  0.1232  0.8765
   8023SM   H7F10650   0.706   0.154  16.052 -0.8758  1.7473 -1.1290
   8023SM   H7G10651   0.531   0.146  16.014  0.3813  0.7084  0.1057
   8023SM   C8F10652   0.663  -0.000  15.906  0.2688 -0.4369  0.6340
   8023SM   H8F10653   0.575  -0.057  15.870  1.0450  0.0939 -2.3065
   8023SM   H8G10654   0.744  -0.074  15.930  1.2176 -0.0825 -1.3190
   8023SM   C9F10655   0.735   0.080  15.797  0.3142 -0.1335  0.1804
   8023SM   H9F10656   0.826   0.113  15.851  1.1025 -1.7251 -0.1101
   8023SM   H9G10657   0.666   0.160  15.764 -1.6902 -2.1194 -0.6661
   8023SM  C10F10658   0.774  -0.003  15.682  0.0526  0.4727  0.1959
   8023SM  H10F10659   0.681  -0.050  15.642  0.4699  1.2583 -1.8063
   8023SM  H10G10660   0.851  -0.079  15.708  1.1064  0.8585 -1.6806
   8023SM  C11F10661   0.847   0.081  15.571  0.0766  0.0912 -0.0361
   8023SM  H11F10662   0.926   0.140  15.623 -0.5574  0.1767  0.8657
   8023SM  H11G10663   0.766   0.148  15.536 -1.5722 -1.7340  0.1205
   8023SM  C12F10664   0.906   0.007  15.457 -0.6486 -0.0566  0.0234
   8023SM  H12F10665   0.829  -0.062  15.415  0.1196 -1.4881  0.8893
   8023SM  H12G10666   0.976  -0.067  15.502  1.3175 -0.5019 -3.3650
   8023SM  C13F10667   0.986   0.087  15.366  0.3270 -0.6751 -0.0316
   8023SM  H13F10668   1.034   0.161  15.434 -0.6360  0.8073 -0.9151
   8023SM  H13G10669   0.924   0.146  15.295 -0.4598 -2.5154 -0.9427
   8023SM  C14F10670   1.091   0.003  15.290 -0.2999  0.3583  0.8755
   8023SM  H14F10671   1.136  -0.081  15.348  2.1519  0.4732 -0.7256
   8023SM  H14G10672   1.178   0.068  15.268 -0.2805 -0.2666 -1.0525
   8023SM  C15F10673   1.023  -0.052  15.164 -0.3746 -0.2331  0.0097
   8023SM  H15F10674   0.973   0.030  15.109  0.9927 -0.4427 -1.6383
   8023SM  H15G10675   0.952  -0.125  15.208  0.1727 -0.8521 -0.1195
   8023SM  C16F10676   1.132  -0.126  15.084  0.1796  0.6567  1.1227
   8023SM  H16F10677   1.165  -0.219  15.133  0.9445 -0.0184 -0.5882
   8023SM  H16G10678   1.217  -0.057  15.064  0.3774 -0.0572 -0.7010
   8023SM  C17F10679   1.087  -0.167  14.940 -0.1460  0.2199  0.4264
   8023SM  H17F10680   1.176  -0.191  14.878 -1.6931 -0.7335 -1.5703
   8023SM  H17G10681   1.032  -0.079  14.900 -3.2475 -1.1748  1.2888
   8023SM  C18F10682   0.994  -0.299  14.949 -0.6532 -1.3866 -0.3246
   8023SM  H18F10683   0.901  -0.255  14.992  1.4590  3.3542  0.0182
   8023SM  H18G10684   1.033  -0.370  15.025  1.3596  0.3326  0.3197
   8023SM  C19F10685   0.971  -0.351  14.813 -0.0313 -0.4392 -0.0935
   8023SM  H19F10686   1.056  -0.420  14.795  0.4193 -0.6918  2.6670
   8023SM  H19G10687   0.974  -0.270  14.736  1.4444 -0.6031 -0.2341
   8023SM  C20F10688   0.841  -0.427  14.783  0.1413  0.5432  0.0486
   8023SM  H20F10689   0.763  -0.347  14.788 -1.1909 -0.6536 -0.8050
   8023SM  H20G10690   0.819  -0.507  14.857  1.9124 -1.0568 -1.0565
   8023SM  C21F10691   0.851  -0.499  14.658  0.1035  0.4197 -0.3633
   8023SM  H21F10692   0.758  -0.558  14.643  1.9551 -2.7911 -0.2519
   8023SM  H21G10693   0.934  -0.573  14.663 -0.0693  0.3176  2.9140
   8023SM  C22F10694   0.862  -0.402  14.533 -0.3344 -0.5590 -0.2976
   8023SM  H22F10695   0.965  -0.361  14.540 -1.3015  2.0452 -0.2672
   8023SM  H22G10696   0.787  -0.322  14.549 -0.8554 -1.2438  0.8750
   8023SM  C23F10697   0.842  -0.473  14.402  0.3968  0.9675 -0.0994
   8023SM  H23F10698   0.926  -0.545  14.388 -0.4957  0.1199 -1.3071
   8023SM  H23G10699   0.856  -0.399  14.320 -0.4102 -0.8418 -1.9758
   8023SM  H23H10700   0.748  -0.531  14.395  1.6155 -0.9612 -1.4296
   8123SM     N10701   4.179   3.634  12.381  0.1679  0.4302 -0.1031
   8123SM   C1510702   4.038   3.662  12.327  0.4544  0.0131 -0.4499
   8123SM  H15A10703   3.993   3.580  12.272  1.1363 -1.0181  0.4865
   8123SM  H15B10704   4.037   3.748  12.261 -0.8053 -1.1837 -2.0789
   8123SM  H15C10705   3.973   3.674  12.412 -0.5004 -2.9900 -0.6425
   8123SM   C1410706   4.264   3.589  12.268  0.7792  0.0204  0.2176
   8123SM  H14A10707   4.368   3.594  12.295  0.8973 -1.2627  0.0784
   8123SM  H14B10708   4.259   3.659  12.186 -0.1846  2.2306  2.0356
   8123SM  H14C10709   4.236   3.488  12.242 -2.1006  0.7978 -0.0508
   8123SM   C1310710   4.246   3.764  12.433  0.0483  0.6364  0.3868
   8123SM  H13A10711   4.268   3.839  12.359 -0.6182 -0.1648 -0.6619
   8123SM  H13B10712   4.341   3.746  12.481 -1.3011  0.3658  3.1446
   8123SM  H13C10713   4.182   3.810  12.506  0.3630  1.8959 -0.1084
   8123SM   C1210714   4.175   3.537  12.498 -0.7307  0.5352 -0.4085
   8123SM  H12A10715   4.132   3.586  12.584 -0.4940 -0.0119  0.0295
   8123SM  H12B10716   4.281   3.531  12.520 -0.9335  0.0388  0.4879
   8123SM   C1110717   4.117   3.399  12.483 -0.7324 -0.1083 -0.0408
   8123SM  H11A10718   4.142   3.334  12.570  0.3566 -1.0367 -1.0032
   8123SM  H11B10719   4.169   3.352  12.397  0.5019 -0.4189  0.8468
   8123SM     P10720   3.867   3.431  12.558 -0.3437  0.4746 -0.2341
   8123SM   O1310721   3.839   3.573  12.531  0.4133 -0.3537  0.6711
   8123SM   O1410722   3.760   3.332  12.548  0.0846 -0.0862  0.2556
   8123SM   O1110723   3.926   3.418  12.702 -0.5307  0.7948 -0.6536
   8123SM   O1210724   3.982   3.401  12.456  0.4505  0.2943  0.0183
   8123SM   C1S10725   3.847   3.446  12.823 -0.1905  0.2901  0.1752
   8123SM   H1S10726   3.790   3.356  12.853 -0.6671  1.1883  2.2049
   8123SM   H1T10727   3.774   3.529  12.813  0.1861  0.5600 -0.3793
   8123SM    NF10728   3.876   3.466  13.061  0.2437  0.0564 -0.0342
   8123SM   HNF10729   3.833   3.546  13.101 -0.1994  0.3837 -1.1137
   8123SM   C2S10730   3.949   3.482  12.937  0.0397  0.0362  0.3417
   8123SM   H2S10731   4.036   3.414  12.926  2.0119  2.2075  1.5560
   8123SM   C3S10732   4.015   3.618  12.917  0.4295 -0.4999  0.6661
   8123SM   H3S10733   3.937   3.698  12.909 -2.2677 -2.9436  0.9743
   8123SM    O310734   4.092   3.621  12.797 -0.2918  0.0680 -0.1569
   8123SM   HO310735   4.042   3.562  12.741 -0.1519  0.2673 -0.4939
   8123SM   C4S10736   4.102   3.642  13.037 -0.8169 -0.2104  0.5590
   8123SM   H4S10737   4.185   3.571  13.050 -0.3682  0.5923  2.3723
   8123SM   C5S10738   4.095   3.743  13.124 -0.8269  0.0779 -0.2052
   8123SM   H5S10739   4.037   3.832  13.098 -0.3985  1.6012  3.4270
   8123SM   C6S10740   4.183   3.756  13.242 -0.1099 -0.3538  0.2814
   8123SM   H6S10741   4.249   3.845  13.231 -0.6219  0.3049  2.1178
   8123SM   H6T10742   4.254   3.672  13.253  1.2178  0.5169 -1.1744
   8123SM   C7S10743   4.104   3.767  13.374  0.2558  0.4985  0.3443
   8123SM   H7S10744   4.048   3.672  13.377  0.9154  0.0741 -0.3562
   8123SM   H7T10745   4.030   3.850  13.371  0.0636  0.3566  1.1096
   8123SM   C8S10746   4.201   3.768  13.495 -0.8107  0.8496  0.0650
   8123SM   H8S10747   4.273   3.853  13.493  1.8221 -1.2956 -1.5250
   8123SM   H8T10748   4.260   3.675  13.491 -3.0685 -0.6852  0.5952
   8123SM   C9S10749   4.125   3.760  13.631 -0.5393 -0.2306  0.1110
   8123SM   H9S10750   4.071   3.664  13.630 -1.7553  0.3775  1.7413
   8123SM   H9T10751   4.059   3.849  13.645  2.0210  1.5952  1.5936
   8123SM  C10S10752   4.215   3.756  13.758  0.8199 -0.0455  0.1222
   8123SM  H10S10753   4.271   3.851  13.772  1.1209 -0.2305  0.1788
   8123SM  H10T10754   4.291   3.676  13.756 -0.2896 -1.1299 -0.4102
   8123SM  C11S10755   4.123   3.743  13.880  0.1693 -0.1169  0.5282
   8123SM  H11S10756   4.093   3.636  13.875  1.9812 -0.6218 -0.6532
   8123SM  H11T10757   4.037   3.812  13.871  0.6054  0.6564  2.0657
   8123SM  C12S10758   4.199   3.769  14.006  0.8502 -0.2535  0.4790
   8123SM  H12S10759   4.217   3.875  14.037  1.4841 -0.8400  2.2580
   8123SM  H12T10760   4.301   3.726  13.993  1.0786  0.5765 -0.7135
   8123SM  C13S10761   4.127   3.681  14.115 -0.4361 -0.1957 -0.3630
   8123SM  H13S10762   4.132   3.573  14.088 -1.7109  0.2723 -2.7221
   8123SM  H13T10763   4.025   3.721  14.131 -0.1179  1.2540 -1.6965
   8123SM  C14S10764   4.207   3.700  14.247  0.5714  0.4802  0.0635
   8123SM  H14S10765   4.200   3.809  14.267 -1.2306  0.9718 -2.6687
   8123SM  H14T10766   4.314   3.674  14.233  1.1365  2.2162  0.8689
   8123SM  C15S10767   4.140   3.625  14.365 -0.6321 -0.5809 -0.2417
   8123SM  H15S10768   4.150   3.515  14.352  1.3619 -0.2811 -1.7839
   8123SM  H15T10769   4.035   3.657  14.377  0.0788  2.1745 -0.7038
   8123SM  C16S10770   4.211   3.660  14.496  0.8814 -0.3301  0.3073
   8123SM  H16S10771   4.227   3.765  14.528  1.9977 -0.3285 -0.2233
   8123SM  H16T10772   4.313   3.618  14.484  0.9189  0.0286 -0.7873
   8123SM  C17S10773   4.162   3.595  14.627 -0.5654  0.0863  0.9853
   8123SM  H17S10774   4.213   3.497  14.631  0.6638  0.4820 -2.1609
   8123SM  H17T10775   4.054   3.570  14.622 -0.4817 -0.2513  0.7850
   8123SM  C18S10776   4.207   3.683  14.751 -0.0148  0.5151  1.4383
   8123SM  H18S10777   4.317   3.695  14.750  0.5565 -2.5938 -2.8568
   8123SM  H18T10778   4.174   3.639  14.848 -1.0694  1.4541  1.5328
   8123SM  H18U10779   4.154   3.779  14.733  0.2444  0.5426  0.7921
   8123SM   C1F10780   3.834   3.347  13.110 -0.0067 -0.0382  0.1168
   8123SM    OF10781   3.903   3.247  13.099  0.3040  0.3023  0.7073
   8123SM   C2F10782   3.706   3.334  13.176 -0.1273 -0.0224 -0.2699
   8123SM   H2F10783   3.636   3.321  13.091  0.1313  0.0385 -0.4960
   8123SM   H2G10784   3.693   3.433  13.224 -0.2563  0.2105 -0.7802
   8123SM   C3F10785   3.687   3.223  13.279 -0.1180 -0.1799 -0.6940
   8123SM   H3F10786   3.688   3.124  13.228  1.6597 -0.7989  0.4245
   8123SM   H3G10787   3.590   3.256  13.322  0.3587 -1.8792  1.9386
   8123SM   C4F10788   3.781   3.224  13.396  0.1564  0.1809 -0.6544
   8123SM   H4F10789   3.785   3.326  13.438 -2.2049  1.1363 -2.4764
   8123SM   H4G10790   3.881   3.195  13.356  0.5048 -0.3784  0.5843
   8123SM   C5F10791   3.763   3.125  13.508 -0.0943 -0.2657  0.0481
   8123SM   H5F10792   3.668   3.145  13.562  0.4260 -0.9737  1.2705
   8123SM   H5G10793   3.849   3.134  13.577  0.4408  3.5944 -0.9082
   8123SM   C6F10794   3.762   2.975  13.471 -0.1306 -0.1893 -0.1437
   8123SM   H6F10795   3.861   2.953  13.427  1.1315  2.5839  1.0319
   8123SM   H6G10796   3.675   2.964  13.403 -0.8773  2.9062  0.1638
   8123SM   C7F10797   3.759   2.884  13.598 -0.7618 -0.0648  0.4531
   8123SM   H7F10798   3.731   2.785  13.554 -0.8492  1.5344 -3.5290
   8123SM   H7G10799   3.685   2.928  13.668  1.1236  1.0375  1.8292
   8123SM   C8F10800   3.890   2.872  13.674 -0.1067 -0.3436  0.6207
   8123SM   H8F10801   3.943   2.970  13.681  1.7406 -1.3843  1.9183
   8123SM   H8G10802   3.962   2.807  13.620 -0.0119 -0.1970  0.5694
   8123SM   C9F10803   3.891   2.828  13.826 -0.4053  0.0780 -0.0389
   8123SM   H9F10804   3.859   2.722  13.835 -0.2907  0.0689  0.2915
   8123SM   H9G10805   3.821   2.899  13.875  0.6706  1.0041  0.2133
   8123SM  C10F10806   4.034   2.840  13.892 -0.4400 -0.0412  0.2615
   8123SM  H10F10807   4.072   2.945  13.885 -0.6690  0.2536  2.6340
   8123SM  H10G10808   4.103   2.781  13.828 -1.3502 -1.0417  0.1695
   8123SM  C11F10809   4.043   2.780  14.038  0.2453  0.0592  0.3577
   8123SM  H11F10810   4.147   2.794  14.073 -0.8524  2.2395  3.0415
   8123SM  H11G10811   4.012   2.673  14.027 -0.2769  0.3637 -1.5990
   8123SM  C12F10812   3.945   2.847  14.129  0.0652 -0.2379  0.0044
   8123SM  H12F10813   3.842   2.817  14.099  0.5164 -0.3234 -1.5362
   8123SM  H12G10814   3.971   2.954  14.117 -0.7878  0.0708  0.7638
   8123SM  C13F10815   3.953   2.801  14.277  0.0963 -0.0224  0.1751
   8123SM  H13F10816   4.047   2.831  14.328 -0.3766  0.5364  0.7561
   8123SM  H13G10817   3.958   2.691  14.263  0.5306 -0.1713  1.3686
   8123SM  C14F10818   3.825   2.849  14.354 -0.1611  0.6282  0.0745
   8123SM  H14F10819   3.730   2.813  14.308 -0.6972  0.0212  1.6040
   8123SM  H14G10820   3.831   2.959  14.341 -0.3551  0.9772  2.4406
   8123SM  C15F10821   3.843   2.810  14.502  0.7504 -0.0569 -0.5835
   8123SM  H15F10822   3.949   2.816  14.534  0.4341  0.6182  0.3782
   8123SM  H15G10823   3.814   2.702  14.505 -0.9275  0.3597 -0.7344
   8123SM  C16F10824   3.750   2.880  14.597  0.5725 -0.8366 -0.1649
   8123SM  H16F10825   3.643   2.862  14.573 -0.4821  2.6201  1.4120
   8123SM  H16G10826   3.758   2.990  14.587 -0.0837 -0.8612 -1.1570
   8123SM  C17F10827   3.787   2.844  14.739 -0.1333 -0.4207  0.0905
   8123SM  H17F10828   3.872   2.910  14.770 -0.9218  0.8719 -0.4088
   8123SM  H17G10829   3.821   2.739  14.743 -1.6484 -1.0568 -2.0489
   8123SM  C18F10830   3.677   2.866  14.841 -0.3738 -0.4499 -0.0432
   8123SM  H18F10831   3.640   2.970  14.828  0.2526 -0.0676  1.1386
   8123SM  H18G10832   3.737   2.863  14.934  0.0210 -0.9517 -0.3105
   8123SM  C19F10833   3.570   2.760  14.841 -0.2892  0.3661  0.6896
   8123SM  H19F10834   3.623   2.664  14.819 -0.8661 -0.0447  1.0754
   8123SM  H19G10835   3.501   2.785  14.758 -0.0535  2.2048  1.0115
   8123SM  C20F10836   3.486   2.752  14.961  0.6304 -0.8754  0.1208
   8123SM  H20F10837   3.552   2.716  15.042 -0.8387 -1.3606  1.1563
   8123SM  H20G10838   3.397   2.685  14.956 -1.1350  1.3091  0.5460
   8123SM  C21F10839   3.414   2.881  14.989 -0.0554 -0.0054  0.2385
   8123SM  H21F10840   3.352   2.912  14.902  1.2869  2.1015 -0.0472
   8123SM  H21G10841   3.492   2.961  14.987  1.7275 -1.6635  0.3146
   8123SM  C22F10842   3.321   2.880  15.112  0.7259  0.0776 -0.3359
   8123SM  H22F10843   3.251   2.794  15.114 -1.2105  1.5816  0.3607
   8123SM  H22G10844   3.262   2.974  15.100  1.0582  0.4126  0.5672
   8123SM  C23F10845   3.401   2.887  15.241 -0.6383  0.0590 -0.6746
   8123SM  H23F10846   3.346   2.928  15.329  0.7400  0.4288  0.0614
   8123SM  H23G10847   3.494   2.946  15.219 -0.8489  0.7440  0.1928
   8123SM  H23H10848   3.430   2.784  15.271  0.5208  0.7422  0.7185
   8223SM     N10849   3.081   4.017  12.685 -0.2239 -0.3540  0.1125
   8223SM   C1510850   2.942   4.047  12.666 -0.0583 -0.8183  0.1471
   8223SM  H15A10851   2.914   4.145  12.702 -0.1226 -0.3486 -1.1302
   8223SM  H15B10852   2.877   3.978  12.718  1.6613 -2.6263 -0.0037
   8223SM  H15C10853   2.926   4.044  12.559  0.7179 -0.4937  0.0201
   8223SM   C1410854   3.121   3.875  12.655  0.6414 -0.3780  0.7075
   8223SM  H14A10855   3.084   3.842  12.559  2.4146 -1.2130  0.2910
   8223SM  H14B10856   3.079   3.817  12.736  0.8610  0.2622  1.2814
   8223SM  H14C10857   3.227   3.860  12.652  0.3974 -2.2393 -0.4825
   8223SM   C1310858   3.157   4.108  12.588 -0.1900  0.5822  0.1658
   8223SM  H13A10859   3.147   4.211  12.621  0.8022  0.8802 -0.4179
   8223SM  H13B10860   3.120   4.108  12.487  2.5048  1.0345 -0.8998
   8223SM  H13C10861   3.263   4.093  12.593  0.0758  2.4348  1.1487
   8223SM   C1210862   3.127   4.046  12.827  0.3368  0.0401 -0.0256
   8223SM  H12A10863   3.078   3.982  12.899 -0.5598  2.0832  1.2798
   8223SM  H12B10864   3.082   4.141  12.853  2.6474  1.3903 -0.6775
   8223SM   C1110865   3.276   4.044  12.866 -0.6681 -0.4316 -0.1072
   8223SM  H11A10866   3.283   4.041  12.977 -0.8041  0.2414 -0.0768
   8223SM  H11B10867   3.324   4.137  12.830  1.7675 -1.7853 -0.6158
   8223SM     P10868   3.481   3.931  12.730 -0.1926  0.2795  0.0001
   8223SM   O1310869   3.505   3.798  12.668 -0.3010 -0.0370  0.5649
   8223SM   O1410870   3.465   4.049  12.643 -0.5115  0.0559 -0.3509
   8223SM   O1110871   3.596   3.956  12.842 -0.0988  0.2859 -0.4742
   8223SM   O1210872   3.339   3.922  12.809  0.3417  0.1808 -0.5001
   8223SM   C1S10873   3.588   3.926  12.980 -0.2272  0.0628  0.2361
   8223SM   H1S10874   3.579   3.815  12.985  0.8961 -0.0588 -0.3104
   8223SM   H1T10875   3.503   3.983  13.024 -0.4836  1.4046 -1.8612
   8223SM    NF10876   3.722   3.929  13.191 -0.9947 -0.3851  0.5970
   8223SM   HNF10877   3.744   3.993  13.263 -1.7838  0.4160  0.1465
   8223SM   C2S10878   3.719   3.972  13.050 -0.4862 -0.2101 -0.2416
   8223SM   H2S10879   3.800   3.910  13.006  0.0343 -1.1345  1.9159
   8223SM   C3S10880   3.766   4.120  13.028  1.0376 -0.5114  0.3835
   8223SM   H3S10881   3.691   4.193  13.062  0.1969 -1.2732  0.1956
   8223SM    O310882   3.770   4.158  12.894  0.9471 -0.0567 -0.5105
   8223SM   HO310883   3.720   4.090  12.847 -0.2972  2.0797 -2.4673
   8223SM   C4S10884   3.897   4.150  13.101 -0.4928 -0.2124 -0.3514
   8223SM   H4S10885   3.882   4.200  13.198  1.7510 -0.3772  0.1158
   8223SM   C5S10886   4.021   4.129  13.056 -0.2278 -0.5456 -0.4166
   8223SM   H5S10887   4.035   4.096  12.952 -0.5415 -1.7231 -0.0909
   8223SM   C6S10888   4.146   4.156  13.140 -0.3613  0.1291 -0.6133
   8223SM   H6S10889   4.216   4.238  13.113 -1.6635  1.6703  0.5383
   8223SM   H6T10890   4.214   4.070  13.119 -0.7036 -0.8677  2.0008
   8223SM   C7S10891   4.121   4.159  13.297 -0.5820 -0.6806  0.4819
   8223SM   H7S10892   4.040   4.090  13.329 -1.3082 -0.3229 -0.5526
   8223SM   H7T10893   4.087   4.264  13.309 -2.9627 -1.5621  2.2651
   8223SM   C8S10894   4.241   4.152  13.388  0.4931 -0.3525 -0.2704
   8223SM   H8S10895   4.315   4.232  13.366  2.1329 -1.1799  1.8531
   8223SM   H8T10896   4.306   4.064  13.372 -0.3224 -1.3096  1.3438
   8223SM   C9S10897   4.199   4.155  13.534  0.5149 -0.4287  0.5617
   8223SM   H9S10898   4.148   4.061  13.564 -1.2939 -0.1456 -1.4188
   8223SM   H9T10899   4.126   4.238  13.548 -0.3491 -1.5457  3.6066
   8223SM  C10S10900   4.318   4.191  13.625 -0.2095 -0.5473  0.2776
   8223SM  H10S10901   4.357   4.294  13.607 -0.2129 -0.2238  2.0046
   8223SM  H10T10902   4.402   4.125  13.596 -1.0341 -1.6679  0.3945
   8223SM  C11S10903   4.287   4.172  13.778 -0.0384 -0.6707 -0.1064
   8223SM  H11S10904   4.254   4.066  13.785 -0.7238 -0.4213  0.6196
   8223SM  H11T10905   4.206   4.232  13.826  0.6462  0.2046 -0.0061
   8223SM  C12S10906   4.414   4.192  13.860 -0.1428 -0.2038 -0.1054
   8223SM  H12S10907   4.436   4.299  13.881  2.5060 -0.5522 -0.7769
   8223SM  H12T10908   4.501   4.158  13.800 -0.4876 -2.9637  0.7920
   8223SM  C13S10909   4.402   4.110  13.985 -0.1905 -0.2343  0.7996
   8223SM  H13S10910   4.396   4.005  13.949 -3.2227 -0.4232  1.6034
   8223SM  H13T10911   4.302   4.133  14.027  0.1172 -0.0575  1.4478
   8223SM  C14S10912   4.517   4.131  14.078 -0.2401 -0.7513  0.0176
   8223SM  H14S10913   4.540   4.234  14.111 -1.3352  0.0581 -1.6040
   8223SM  H14T10914   4.611   4.101  14.027 -0.5885 -0.0818 -1.0389
   8223SM  C15S10915   4.505   4.042  14.199 -0.4682  0.8642  0.5049
   8223SM  H15S10916   4.608   4.034  14.238  0.1438 -0.3750 -1.2177
   8223SM  H15T10917   4.469   3.948  14.151  0.8629  0.9526 -0.7277
   8223SM  C16S10918   4.414   4.099  14.305 -0.6601  0.0020  0.2560
   8223SM  H16S10919   4.375   4.014  14.365 -0.2231  0.0001  0.5448
   8223SM  H16T10920   4.326   4.140  14.251  0.2846  0.7227 -0.7888
   8223SM  C17S10921   4.469   4.210  14.393 -0.2041 -0.0071  0.4498
   8223SM  H17S10922   4.386   4.227  14.464  0.2803  1.3404  0.7117
   8223SM  H17T10923   4.490   4.309  14.346  2.3462 -0.4752  0.4331
   8223SM  C18S10924   4.584   4.181  14.486 -0.4456  0.1045 -0.1434
   8223SM  H18S10925   4.681   4.166  14.434 -0.1648  2.6801 -0.4668
   8223SM  H18T10926   4.565   4.090  14.547 -2.0761 -0.9025 -2.0339
   8223SM  H18U10927   4.606   4.265  14.555 -1.9393  0.1628  0.2856
   8223SM   C1F10928   3.703   3.809  13.240 -0.0061  0.7623 -0.0929
   8223SM    OF10929   3.687   3.706  13.173  0.0845  0.1104  0.0182
   8223SM   C2F10930   3.718   3.796  13.392  0.7132 -0.0739  0.8525
   8223SM   H2F10931   3.622   3.835  13.433 -0.0054  0.0555 -0.8479
   8223SM   H2G10932   3.796   3.871  13.415 -0.9536  1.2523  2.5487
   8223SM   C3F10933   3.753   3.653  13.459 -0.3186 -0.5623  0.7429
   8223SM   H3F10934   3.852   3.618  13.424 -1.5469 -0.3419 -3.5905
   8223SM   H3G10935   3.681   3.576  13.422  0.2005 -0.4907 -0.4599
   8223SM   C4F10936   3.749   3.668  13.613  0.7668  0.0355 -0.5386
   8223SM   H4F10937   3.659   3.727  13.641  0.7733 -1.7492  4.1646
   8223SM   H4G10938   3.833   3.738  13.634 -0.0614  0.7709  0.4662
   8223SM   C5F10939   3.740   3.536  13.697  0.1168  0.2303  0.2756
   8223SM   H5F10940   3.837   3.483  13.682 -1.0747 -1.1826 -3.6174
   8223SM   H5G10941   3.667   3.464  13.654  1.3985  0.5127 -2.5850
   8223SM   C6F10942   3.730   3.564  13.853  0.2808  0.1374 -0.0199
   8223SM   H6F10943   3.638   3.624  13.869  0.1636 -0.3094  1.0043
   8223SM   H6G10944   3.808   3.639  13.875 -0.4693  0.6338  1.0007
   8223SM   C7F10945   3.756   3.442  13.938  0.2585 -0.7659 -0.6542
   8223SM   H7F10946   3.663   3.381  13.933 -1.2126  1.2022  0.9367
   8223SM   H7G10947   3.750   3.474  14.044  1.7400 -3.2771  0.2832
   8223SM   C8F10948   3.870   3.346  13.921  0.0675 -0.2110  0.7699
   8223SM   H8F10949   3.960   3.410  13.909  0.1515 -0.7107 -1.5369
   8223SM   H8G10950   3.855   3.296  13.824 -1.5105  1.0397  0.3132
   8223SM   C9F10951   3.893   3.257  14.037  0.3683  1.0241  0.0348
   8223SM   H9F10952   3.950   3.168  14.004  0.6272  0.8140  1.0140
   8223SM   H9G10953   3.799   3.207  14.068 -0.6896  0.5854 -3.3974
   8223SM  C10F10954   3.967   3.305  14.165 -0.1365 -0.8194  0.2251
   8223SM  H10F10955   3.894   3.362  14.225  0.0418  0.3510 -0.6408
   8223SM  H10G10956   4.065   3.344  14.130 -0.3910 -2.8970 -3.3503
   8223SM  C11F10957   4.016   3.190  14.248 -0.3236  0.3524 -0.3853
   8223SM  H11F10958   4.076   3.115  14.191 -1.2935 -1.2301  0.6063
   8223SM  H11G10959   3.928   3.142  14.296 -1.6834  1.3136 -1.8458
   8223SM  C12F10960   4.107   3.232  14.363  1.0228 -0.1646  0.2458
   8223SM  H12F10961   4.048   3.284  14.441  1.6971  0.2689  0.4667
   8223SM  H12G10962   4.183   3.308  14.339  0.4020  0.1101 -0.9445
   8223SM  C13F10963   4.167   3.111  14.427  0.3561  0.2105 -0.3756
   8223SM  H13F10964   4.240   3.064  14.356  1.8481  1.1938  0.4547
   8223SM  H13G10965   4.089   3.039  14.461  0.0185  1.4957  1.7517
   8223SM  C14F10966   4.245   3.152  14.556 -0.0216  0.6804 -0.0970
   8223SM  H14F10967   4.304   3.246  14.548 -0.3902  0.8507 -0.9997
   8223SM  H14G10968   4.318   3.074  14.583 -3.8447 -1.8368  4.5798
   8223SM  C15F10969   4.155   3.161  14.678 -0.5715 -0.6087  0.0816
   8223SM  H15F10970   4.085   3.075  14.666 -2.3309  0.9068 -1.1950
   8223SM  H15G10971   4.095   3.254  14.668  0.1277 -0.3059 -1.4890
   8223SM  C16F10972   4.234   3.152  14.806 -0.4376 -0.8787 -0.6865
   8223SM  H16F10973   4.310   3.072  14.790  1.5746  0.3505  1.8378
   8223SM  H16G10974   4.175   3.121  14.895 -2.0157 -1.7321 -1.9870
   8223SM  C17F10975   4.303   3.288  14.833  0.2353  0.2489  0.3041
   8223SM  H17F10976   4.232   3.372  14.845  1.4860  1.4273 -0.2134
   8223SM  H17G10977   4.367   3.315  14.746  0.6584  0.7393  0.7569
   8223SM  C18F10978   4.403   3.283  14.944 -0.4313 -0.0993 -0.8940
   8223SM  H18F10979   4.491   3.232  14.900 -0.4905 -0.6994 -0.3207
   8223SM  H18G10980   4.391   3.226  15.038 -1.0670  1.0521 -0.2481
   8223SM  C19F10981   4.461   3.427  14.972  0.1396  0.0397 -0.1998
   8223SM  H19F10982   4.408   3.481  15.054 -1.4575 -1.0580 -0.4753
   8223SM  H19G10983   4.436   3.492  14.886  2.8786  1.9697  0.2977
   8223SM  C20F10984   4.613   3.412  15.012 -0.6194  0.1516  0.1316
   8223SM  H20F10985   4.661   3.360  14.927 -0.3928  2.3226 -1.1538
   8223SM  H20G10986   4.617   3.354  15.106 -2.0830  0.4281  0.3919
   8223SM  C21F10987   4.679   3.550  15.037  0.4721 -0.1665  0.3999
   8223SM  H21F10988   4.603   3.609  15.093  0.4166  1.1807 -1.0315
   8223SM  H21G10989   4.693   3.593  14.935 -0.7225  0.1781  0.3600
   8223SM  C22F10990   4.818   3.546  15.104 -0.1111 -0.2398  0.2511
   8223SM  H22F10991   4.886   3.492  15.034 -0.5048  1.5699 -1.6417
   8223SM  H22G10992   4.809   3.489  15.198  2.8221 -1.2660  0.0015
   8223SM  C23F10993   4.884   3.678  15.129  0.0279 -0.0568  0.6407
   8223SM  H23F10994   4.878   3.731  15.031 -0.1768  1.1111  1.2710
   8223SM  H23G10995   4.992   3.671  15.153  0.2891  1.3891  0.0119
   8223SM  H23H10996   4.827   3.734  15.206  1.8555  1.8829  0.6813
   8323SM     N10997   5.137   4.464  12.380  0.1520 -0.1099  0.0792
   8323SM   C1510998   5.013   4.515  12.342 -0.2987  0.0693  0.0419
   8323SM  H15A10999   4.945   4.434  12.319  0.1319 -0.7412  1.5533
   8323SM  H15B11000   5.031   4.559  12.244 -0.4089  1.6781  0.7035
   8323SM  H15C11001   4.965   4.585  12.409  0.2737  0.0547  0.4666
   8323SM   C1411002   5.192   4.374  12.273  0.7592 -0.5247 -0.0419
   8323SM  H14A11003   5.293   4.342  12.295  1.2780  1.7762  1.2924
   8323SM  H14B11004   5.192   4.424  12.177 -0.3233  1.0440  0.7230
   8323SM  H14C11005   5.128   4.287  12.269  0.3639 -0.2650  0.4929
   8323SM   C1311006   5.233   4.575  12.396  0.4346  0.0118 -0.1680
   8323SM  H13A11007   5.242   4.639  12.309  1.9675 -0.9107 -0.7317
   8323SM  H13B11008   5.333   4.540  12.415  0.0576 -1.3482 -0.5820
   8323SM  H13C11009   5.195   4.627  12.482 -1.6079  0.0948 -1.0502
   8323SM   C1211010   5.125   4.387  12.512  0.2623  0.1393 -0.2699
   8323SM  H12A11011   5.053   4.307  12.504 -1.1124  1.3368 -0.4080
   8323SM  H12B11012   5.088   4.448  12.593  1.3924 -1.2730  1.3838
   8323SM   C1111013   5.256   4.334  12.564  0.2477 -0.5923 -0.7745
   8323SM  H11A11014   5.327   4.414  12.593  1.7761 -2.5863  1.3230
   8323SM  H11B11015   5.295   4.275  12.478  0.7336  1.1397 -1.8181
   8323SM     P11016   5.185   4.106  12.658 -0.2492  0.2345 -0.0416
   8323SM   O1311017   5.112   4.094  12.530  0.0160 -0.1832 -0.1574
   8323SM   O1411018   5.314   4.031  12.687 -0.1107 -0.4024  0.1912
   8323SM   O1111019   5.084   4.096  12.774 -0.3781  0.1592 -0.3081
   8323SM   O1211020   5.226   4.259  12.683  0.4534  0.0654 -0.2888
   8323SM   C1S11021   5.098   4.005  12.886  0.5440  0.1310 -0.3804
   8323SM   H1S11022   5.179   4.042  12.953 -2.0393 -0.0458  3.1266
   8323SM   H1T11023   5.111   3.902  12.847 -2.5526 -0.3452 -0.4329
   8323SM    NF11024   4.971   3.963  13.108 -0.3424 -0.3309  0.2057
   8323SM   HNF11025   4.939   3.869  13.117 -0.9597  0.0644  3.1131
   8323SM   C2S11026   4.965   4.019  12.971  0.3540 -0.6153 -0.4468
   8323SM   H2S11027   4.955   4.128  12.989 -0.5023 -0.9285  1.1454
   8323SM   C3S11028   4.847   3.963  12.887  0.3235 -0.2046  0.5095
   8323SM   H3S11029   4.874   3.856  12.873  0.2523 -0.3354  1.3028
   8323SM    O311030   4.834   4.019  12.756 -0.1035  0.2695  0.3404
   8323SM   HO311031   4.922   4.057  12.747 -0.3387  0.4779 -1.4403
   8323SM   C4S11032   4.718   3.981  12.949 -0.1531 -0.4391  0.2852
   8323SM   H4S11033   4.679   4.083  12.947 -0.4135 -0.3634  3.7693
   8323SM   C5S11034   4.647   3.893  13.013  0.4590 -0.2685  0.4143
   8323SM   H5S11035   4.691   3.794  13.033  0.8100 -0.5793 -1.6475
   8323SM   C6S11036   4.519   3.920  13.077  0.5510  0.3058  0.0859
   8323SM   H6S11037   4.494   3.832  13.139 -0.4248  1.6510  1.6659
   8323SM   H6T11038   4.434   3.935  13.007  0.1803 -0.7011  0.3019
   8323SM   C7S11039   4.532   4.047  13.158  0.0752  0.5617  0.3166
   8323SM   H7S11040   4.438   4.069  13.214 -0.8508 -1.9147 -0.1443
   8323SM   H7T11041   4.571   4.139  13.109  1.6513 -1.0048 -1.5263
   8323SM   C8S11042   4.623   4.031  13.287 -0.0435 -0.1599 -1.1013
   8323SM   H8S11043   4.727   3.995  13.270  0.3708  0.8161 -0.6774
   8323SM   H8T11044   4.569   3.963  13.356 -0.5773  1.0948 -0.2569
   8323SM   C9S11045   4.649   4.161  13.364  0.1683 -0.5645  0.3468
   8323SM   H9S11046   4.555   4.218  13.382  0.7660  0.2459  1.0755
   8323SM   H9T11047   4.721   4.217  13.300  0.2438 -1.1327 -0.0606
   8323SM  C10S11048   4.714   4.129  13.502  0.2927  0.8007  0.3247
   8323SM  H10S11049   4.819   4.095  13.486  0.1262 -0.3960  1.6005
   8323SM  H10T11050   4.662   4.051  13.562  0.2342  0.5748 -0.0152
   8323SM  C11S11051   4.743   4.256  13.587 -0.2236  1.0770  0.4597
   8323SM  H11S11052   4.648   4.315  13.593 -0.6570  0.3300  1.0777
   8323SM  H11T11053   4.802   4.326  13.523 -0.5014 -0.0940 -1.1174
   8323SM  C12S11054   4.799   4.217  13.727  0.1870  0.6092 -0.3008
   8323SM  H12S11055   4.735   4.139  13.773  1.2925 -0.4229 -0.4717
   8323SM  H12T11056   4.797   4.303  13.797  0.3360  0.4399 -0.0870
   8323SM  C13S11057   4.949   4.182  13.724  0.0029 -0.0947  0.5344
   8323SM  H13S11058   5.010   4.254  13.665 -1.8948  0.7397 -0.5208
   8323SM  H13T11059   4.960   4.091  13.661 -1.2961 -1.0370  1.6068
   8323SM  C14S11060   5.006   4.175  13.862 -0.4412 -0.3932 -0.6995
   8323SM  H14S11061   4.932   4.113  13.917  0.3498 -1.4908 -0.8454
   8323SM  H14T11062   4.992   4.278  13.902 -1.8404  0.0412 -2.1778
   8323SM  C15S11063   5.149   4.119  13.880 -0.0746 -0.2270  0.4750
   8323SM  H15S11064   5.223   4.198  13.855 -0.3598 -0.3225 -0.7375
   8323SM  H15T11065   5.167   4.052  13.793  1.0453  3.9194 -2.8096
   8323SM  C16S11066   5.184   4.051  14.014 -0.3611 -0.0933 -0.3592
   8323SM  H16S11067   5.293   4.032  14.006 -0.5169 -0.1397 -3.3577
   8323SM  H16T11068   5.127   3.956  14.018 -1.5721  0.6256 -0.0151
   8323SM  C17S11069   5.144   4.125  14.143  0.5227 -0.6893 -0.1299
   8323SM  H17S11070   5.144   4.060  14.234 -3.0731  0.9311  1.2004
   8323SM  H17T11071   5.040   4.161  14.131  0.5653  0.3609  2.1878
   8323SM  C18S11072   5.235   4.244  14.186  0.0244  0.4834 -0.8376
   8323SM  H18S11073   5.224   4.326  14.112 -0.0733  0.7199 -0.5634
   8323SM  H18T11074   5.342   4.218  14.200 -0.3777  0.3622  3.1042
   8323SM  H18U11075   5.219   4.287  14.287  3.7254  1.6907 -0.5944
   8323SM   C1F11076   5.040   4.016  13.210 -0.1668  0.2025  0.1423
   8323SM    OF11077   5.056   4.136  13.212 -0.4083 -0.0013 -0.0964
   8323SM   C2F11078   5.082   3.923  13.320  0.3900 -0.6359 -0.5699
   8323SM   H2F11079   5.115   3.824  13.282  0.2047 -0.8905 -0.0765
   8323SM   H2G11080   4.994   3.918  13.387  1.5361  1.1181  1.1817
   8323SM   C3F11081   5.211   3.978  13.387  0.2858  0.0034  0.2222
   8323SM   H3F11082   5.186   4.079  13.425  2.7454  1.0268 -0.6668
   8323SM   H3G11083   5.283   3.994  13.303 -2.3113 -0.6686 -2.2842
   8323SM   C4F11084   5.275   3.882  13.491  0.3519 -0.9087  0.4293
   8323SM   H4F11085   5.286   3.783  13.442 -2.8577 -0.4826 -1.4516
   8323SM   H4G11086   5.215   3.859  13.582  0.6986 -0.7285  0.7057
   8323SM   C5F11087   5.423   3.935  13.523  0.4092  0.0782 -0.4437
   8323SM   H5F11088   5.479   3.922  13.428  1.6022  0.9214  0.1206
   8323SM   H5G11089   5.477   3.873  13.598 -0.6590 -0.1838  0.1261
   8323SM   C6F11090   5.425   4.083  13.558 -0.6149 -0.6743  0.0121
   8323SM   H6F11091   5.333   4.102  13.617 -1.6603  2.0243 -2.2813
   8323SM   H6G11092   5.405   4.139  13.464  1.4839 -1.6252 -1.0628
   8323SM   C7F11093   5.544   4.128  13.643 -0.5187 -0.0263 -0.3893
   8323SM   H7F11094   5.528   4.238  13.640 -1.1295 -0.1223 -0.8285
   8323SM   H7G11095   5.641   4.099  13.598 -1.7071  0.0222 -3.1211
   8323SM   C8F11096   5.540   4.077  13.790  0.0898  1.0520  0.3603
   8323SM   H8F11097   5.604   3.987  13.796  2.2625  2.3241 -1.7034
   8323SM   H8G11098   5.439   4.051  13.827 -0.3738  0.6590 -1.0930
   8323SM   C9F11099   5.604   4.174  13.891  0.0666 -0.5436  0.2216
   8323SM   H9F11100   5.561   4.276  13.883  0.9192 -0.2798 -1.9745
   8323SM   H9G11101   5.711   4.187  13.865  0.3292 -0.8335  1.1560
   8323SM  C10F11102   5.592   4.124  14.035 -0.4023 -0.2726 -0.0268
   8323SM  H10F11103   5.619   4.017  14.033 -0.3399 -0.3306  1.8782
   8323SM  H10G11104   5.483   4.137  14.051 -0.4442  1.2861 -1.3064
   8323SM  C11F11105   5.675   4.192  14.152  0.3451  0.7901  0.9698
   8323SM  H11F11106   5.662   4.302  14.158 -1.9250  0.5249  2.0845
   8323SM  H11G11107   5.783   4.170  14.139  0.5880  2.5385 -0.3407
   8323SM  C12F11108   5.644   4.122  14.282  0.4387 -0.2701 -0.4938
   8323SM  H12F11109   5.681   4.018  14.273 -0.2779 -0.5399 -0.3761
   8323SM  H12G11110   5.534   4.116  14.296  0.4896 -3.5317 -0.7271
   8323SM  C13F11111   5.709   4.181  14.411  0.3224 -0.0876  0.0260
   8323SM  H13F11112   5.681   4.287  14.427 -2.2823 -0.4543 -1.5249
   8323SM  H13G11113   5.817   4.173  14.388  0.2424  1.6690 -1.1641
   8323SM  C14F11114   5.698   4.102  14.538 -0.7309 -0.0685 -0.6291
   8323SM  H14F11115   5.776   4.129  14.612 -1.3109 -1.2088  0.4196
   8323SM  H14G11116   5.699   3.992  14.523 -1.0997 -0.0106 -1.0983
   8323SM  C15F11117   5.563   4.122  14.609 -0.0271 -0.1789  1.0509
   8323SM  H15F11118   5.494   4.089  14.528  1.3019 -1.1518  0.2893
   8323SM  H15G11119   5.551   4.232  14.620  0.6901  0.4899 -3.1094
   8323SM  C16F11120   5.547   4.017  14.717  0.3332  0.1473  0.4998
   8323SM  H16F11121   5.603   3.925  14.694  1.3820  1.1273 -1.0602
   8323SM  H16G11122   5.439   3.990  14.726  0.1937  0.9729  1.6106
   8323SM  C17F11123   5.573   4.073  14.856 -0.2010 -0.1368  0.1895
   8323SM  H17F11124   5.527   4.172  14.876 -0.2980 -0.3970  1.3339
   8323SM  H17G11125   5.682   4.092  14.861  0.0237 -1.5196  1.5346
   8323SM  C18F11126   5.537   3.972  14.960  0.5791  0.2208 -0.5921
   8323SM  H18F11127   5.598   3.992  15.050 -0.9690 -2.3365  1.1920
   8323SM  H18G11128   5.589   3.882  14.920  0.2202 -0.1646 -0.2148
   8323SM  C19F11129   5.385   3.945  14.992  0.3897  0.0381  0.5259
   8323SM  H19F11130   5.327   3.904  14.907 -0.7522  1.6184  0.5189
   8323SM  H19G11131   5.352   4.049  15.013 -1.8492 -0.2659 -1.1868
   8323SM  C20F11132   5.365   3.856  15.114 -0.7311 -0.1435 -0.5424
   8323SM  H20F11133   5.423   3.905  15.196  0.1473  0.0634 -1.2718
   8323SM  H20G11134   5.414   3.757  15.103 -1.5661 -0.6604  0.2175
   8323SM  C21F11135   5.220   3.876  15.158 -0.4672  0.0990  0.9209
   8323SM  H21F11136   5.152   3.811  15.099 -0.4503  0.7673  0.1506
   8323SM  H21G11137   5.185   3.978  15.130 -0.1393  0.6040  2.2673
   8323SM  C22F11138   5.191   3.841  15.300  0.5501 -0.5353 -1.1583
   8323SM  H22F11139   5.081   3.850  15.304  0.5342  0.9174 -3.5048
   8323SM  H22G11140   5.221   3.913  15.379 -0.3522 -1.1407 -0.2369
   8323SM  C23F11141   5.225   3.700  15.346 -0.5658 -0.5804  0.1768
   8323SM  H23F11142   5.192   3.630  15.266  0.6562 -0.8004 -0.1469
   8323SM  H23G11143   5.186   3.683  15.448 -0.8791 -0.2428  0.1156
   8323SM  H23H11144   5.334   3.677  15.348 -0.5735 -0.5682  1.6174
   8423SM     N11145   3.064   0.991  12.804  0.0453 -0.6392 -0.0362
   8423SM   C1511146   2.995   0.997  12.940 -0.0704  0.1836  0.2537
   8423SM  H15A11147   2.905   1.052  12.920 -0.0493  0.1604  0.0902
   8423SM  H15B11148   3.038   1.054  13.021 -0.1728 -2.5792  2.4082
   8423SM  H15C11149   2.980   0.894  12.970  3.0225 -0.5779 -0.3627
   8423SM   C1411150   3.200   0.925  12.817  0.2969  0.0843 -0.1685
   8423SM  H14A11151   3.239   0.902  12.719 -0.8317 -0.3694 -0.5293
   8423SM  H14B11152   3.182   0.837  12.876  0.3801 -0.7501 -1.3647
   8423SM  H14C11153   3.268   0.993  12.866 -0.8994 -0.7320  2.8433
   8423SM   C1311154   2.980   0.910  12.718  0.2502 -0.7185  0.8516
   8423SM  H13A11155   2.879   0.947  12.717 -0.4190 -2.3723 -1.6873
   8423SM  H13B11156   2.970   0.806  12.747 -2.0693 -0.0496  2.7333
   8423SM  H13C11157   3.010   0.919  12.615  0.6801  0.4902  1.0661
   8423SM   C1211158   3.094   1.137  12.748 -0.1758  0.3760 -0.6042
   8423SM  H12A11159   3.162   1.125  12.666  0.0481  3.6013 -1.0032
   8423SM  H12B11160   3.144   1.198  12.822 -3.1192 -0.0010  1.9562
   8423SM   C1111161   2.968   1.211  12.694 -0.3761  0.3968  0.0518
   8423SM  H11A11162   2.921   1.142  12.621 -0.4140 -0.0124  0.4584
   8423SM  H11B11163   2.995   1.297  12.629 -1.5051  1.2969  0.7238
   8423SM     P11164   2.856   1.362  12.887  0.2583  0.3529 -0.4009
   8423SM   O1311165   2.845   1.475  12.797 -0.4352  0.0447  0.0087
   8423SM   O1411166   2.741   1.337  12.979 -0.4666  0.0240 -0.1479
   8423SM   O1111167   2.994   1.353  12.966 -0.3431 -0.0365  0.7263
   8423SM   O1211168   2.864   1.243  12.789 -0.1258 -0.0748 -0.2001
   8423SM   C1S11169   3.024   1.448  13.064  0.0650  0.2119  0.1381
   8423SM   H1S11170   2.942   1.521  13.081 -0.9955 -0.9796  0.2279
   8423SM   H1T11171   3.106   1.518  13.036  0.4252 -1.2460 -2.8727
   8423SM    NF11172   3.058   1.474  13.305 -0.6332  0.2875 -0.7181
   8423SM   HNF11173   3.145   1.504  13.343 -0.0215  1.2479 -2.7297
   8423SM   C2S11174   3.050   1.376  13.201  0.6426 -0.1307 -0.3593
   8423SM   H2S11175   2.962   1.308  13.213 -0.8917  1.5531 -1.4932
   8423SM   C3S11176   3.182   1.296  13.190 -0.5553 -0.5486  0.8492
   8423SM   H3S11177   3.258   1.375  13.171  3.3546 -3.7945  1.7329
   8423SM    O311178   3.192   1.222  13.068 -0.1203  0.1252  0.0943
   8423SM   HO311179   3.115   1.242  13.015 -1.7369 -3.5653  0.7766
   8423SM   C4S11180   3.212   1.226  13.325 -0.3697  0.1473 -0.1827
   8423SM   H4S11181   3.272   1.281  13.399  0.4533 -0.6185 -0.2521
   8423SM   C5S11182   3.186   1.094  13.355  0.1775 -0.3929 -0.0051
   8423SM   H5S11183   3.134   1.035  13.278 -0.9895  0.9396 -0.2636
   8423SM   C6S11184   3.231   1.019  13.482 -0.1961 -0.1428  0.0390
   8423SM   H6S11185   3.280   0.924  13.452  0.7474  0.3146  0.0922
   8423SM   H6T11186   3.141   0.985  13.537  0.1993 -0.1282  0.7049
   8423SM   C7S11187   3.309   1.103  13.584 -0.1685  0.1339  0.5979
   8423SM   H7S11188   3.250   1.196  13.600 -1.2580 -0.2710 -0.8583
   8423SM   H7T11189   3.411   1.128  13.548 -0.6153 -0.2745 -1.0384
   8423SM   C8S11190   3.317   1.023  13.717  0.4017 -0.3801 -0.0219
   8423SM   H8S11191   3.399   0.950  13.699  0.4786 -0.0511 -1.1129
   8423SM   H8T11192   3.226   0.964  13.738  0.5620 -0.3356  0.8095
   8423SM   C9S11193   3.344   1.092  13.846  0.8153 -0.3883 -0.2537
   8423SM   H9S11194   3.258   1.157  13.870 -0.7164 -2.5327  0.3392
   8423SM   H9T11195   3.435   1.153  13.828 -0.8737  1.7451 -2.2183
   8423SM  C10S11196   3.355   0.999  13.958  0.5554  0.3943  0.0255
   8423SM  H10S11197   3.437   0.926  13.939  1.9545  0.7784  3.7745
   8423SM  H10T11198   3.266   0.931  13.962 -0.0058  1.0540 -0.7835
   8423SM  C11S11199   3.379   1.068  14.092 -0.0293  0.3254 -0.3004
   8423SM  H11S11200   3.286   1.065  14.153  1.6734 -2.2284  2.4423
   8423SM  H11T11201   3.420   1.169  14.071  0.5099 -0.0142 -0.9363
   8423SM  C12S11202   3.482   0.987  14.187  0.2809  0.0310 -0.1754
   8423SM  H12S11203   3.534   1.064  14.247 -1.0626 -0.0304  1.1310
   8423SM  H12T11204   3.565   0.955  14.121  0.9937  2.8137 -0.7547
   8423SM  C13S11205   3.411   0.882  14.281 -0.5272  0.7208  0.8475
   8423SM  H13S11206   3.356   0.818  14.209  0.8562  1.4105 -0.9307
   8423SM  H13T11207   3.333   0.928  14.346 -0.8891  1.2596  0.0547
   8423SM  C14S11208   3.508   0.807  14.365  0.3543 -0.4906 -0.1434
   8423SM  H14S11209   3.610   0.794  14.322  0.7715  0.4934  0.5046
   8423SM  H14T11210   3.474   0.703  14.386 -0.0727 -0.6837 -1.6479
   8423SM  C15S11211   3.536   0.878  14.500 -0.1884 -0.0944  0.2925
   8423SM  H15S11212   3.435   0.913  14.532 -2.2393 -2.1413 -3.3144
   8423SM  H15T11213   3.606   0.962  14.479  1.0229 -1.1445  0.0250
   8423SM  C16S11214   3.606   0.794  14.608 -0.6627  0.7434 -0.1530
   8423SM  H16S11215   3.694   0.747  14.557 -2.6614 -1.4266 -1.8230
   8423SM  H16T11216   3.547   0.705  14.637  0.4490  0.5364  1.6412
   8423SM  C17S11217   3.653   0.873  14.731  0.3679 -0.6289  0.0391
   8423SM  H17S11218   3.560   0.907  14.783  0.1396  1.7333 -1.7282
   8423SM  H17T11219   3.708   0.968  14.712  3.4232 -2.4773 -1.0016
   8423SM  C18S11220   3.735   0.784  14.830 -0.0312 -0.6811 -0.1686
   8423SM  H18S11221   3.672   0.694  14.847 -0.6193 -0.7526 -2.4082
   8423SM  H18T11222   3.755   0.857  14.911  1.9825 -0.2068 -1.0317
   8423SM  H18U11223   3.834   0.756  14.788  0.3416 -0.6370  0.6637
   8423SM   C1F11224   2.954   1.547  13.353  0.6907 -0.0787 -0.0079
   8423SM    OF11225   2.837   1.506  13.347 -0.4517  0.1084  0.1433
   8423SM   C2F11226   2.974   1.683  13.413  0.2654 -0.0630  0.1287
   8423SM   H2F11227   2.905   1.765  13.383  2.5344  2.4416  1.3612
   8423SM   H2G11228   3.071   1.714  13.370 -0.6810 -0.2179 -2.3269
   8423SM   C3F11229   2.981   1.681  13.565 -0.0818 -0.0175 -1.0066
   8423SM   H3F11230   2.898   1.621  13.607 -0.3061  0.0682 -1.3266
   8423SM   H3G11231   2.973   1.777  13.620  1.7834 -0.2020 -0.3183
   8423SM   C4F11232   3.110   1.617  13.611 -0.0644 -0.9213  0.2953
   8423SM   H4F11233   3.197   1.684  13.593 -0.3370 -0.9191 -1.1363
   8423SM   H4G11234   3.129   1.519  13.564  0.3924  0.5457 -2.8512
   8423SM   C5F11235   3.103   1.592  13.762 -0.6078 -0.1455  0.3949
   8423SM   H5F11236   3.014   1.528  13.774 -0.4636 -0.5280 -0.4869
   8423SM   H5G11237   3.087   1.690  13.811  2.4021  1.4007 -1.3515
   8423SM   C6F11238   3.227   1.519  13.800 -0.3813 -0.1472 -0.5600
   8423SM   H6F11239   3.311   1.584  13.770 -0.4841 -0.3636 -1.3293
   8423SM   H6G11240   3.236   1.429  13.735  1.4494  0.2134 -0.8442
   8423SM   C7F11241   3.228   1.487  13.951  0.7152  0.6660 -0.5486
   8423SM   H7F11242   3.317   1.424  13.969  1.4057  1.4474 -1.1140
   8423SM   H7G11243   3.132   1.438  13.980  0.5861  2.4415  2.4446
   8423SM   C8F11244   3.260   1.606  14.045  0.1496 -0.0240 -0.4633
   8423SM   H8F11245   3.175   1.678  14.048  0.2837  0.0924  1.3346
   8423SM   H8G11246   3.351   1.651  13.999  1.3975 -2.4899 -0.5705
   8423SM   C9F11247   3.271   1.573  14.196 -0.4458  1.1222 -0.4694
   8423SM   H9F11248   3.347   1.493  14.212 -0.6413  0.7304 -1.4667
   8423SM   H9G11249   3.173   1.535  14.233 -0.2488  0.2623 -0.8076
   8423SM  C10F11250   3.311   1.697  14.284  0.0928 -0.0619 -0.0584
   8423SM  H10F11251   3.410   1.729  14.244  0.8950 -3.0291 -0.7288
   8423SM  H10G11252   3.325   1.659  14.387  1.5804  0.2987 -0.1049
   8423SM  C11F11253   3.207   1.813  14.284  0.5084 -0.3355  0.3465
   8423SM  H11F11254   3.105   1.776  14.304  0.2237  1.1496  1.8713
   8423SM  H11G11255   3.208   1.868  14.187 -0.0843  0.0067  0.5297
   8423SM  C12F11256   3.246   1.919  14.388 -0.4934  0.4471 -0.5007
   8423SM  H12F11257   3.345   1.962  14.362 -1.2140  1.5596 -1.4713
   8423SM  H12G11258   3.254   1.868  14.487 -0.0919 -0.3121 -0.9084
   8423SM  C13F11259   3.131   2.026  14.410 -0.4687 -0.2273  0.1038
   8423SM  H13F11260   3.041   1.964  14.428 -1.1740  0.3953 -1.1322
   8423SM  H13G11261   3.116   2.079  14.314 -3.8686  0.4897  0.9090
   8423SM  C14F11262   3.155   2.121  14.522 -0.2549  0.1244 -0.1209
   8423SM  H14F11263   3.086   2.207  14.508  2.1491  2.2767  0.4238
   8423SM  H14G11264   3.260   2.158  14.511 -0.7173  1.2745 -0.8143
   8423SM  C15F11265   3.135   2.063  14.660  0.0094 -0.8952  0.2073
   8423SM  H15F11266   3.216   1.992  14.688  0.7054 -1.0146 -1.9656
   8423SM  H15G11267   3.036   2.013  14.654 -0.4155 -0.2702  1.5295
   8423SM  C16F11268   3.128   2.169  14.774  0.3805  0.0526  0.6306
   8423SM  H16F11269   3.046   2.240  14.751  0.5014  0.4947  1.5170
   8423SM  H16G11270   3.233   2.206  14.777  0.0100  1.0906  1.8295
   8423SM  C17F11271   3.098   2.102  14.914  0.5621  0.0532 -0.3110
   8423SM  H17F11272   3.178   2.029  14.936  0.0458 -0.8048 -1.1708
   8423SM  H17G11273   2.999   2.053  14.898 -1.0055  3.2578 -1.3052
   8423SM  C18F11274   3.071   2.201  15.021 -0.3513 -0.0750 -0.6970
   8423SM  H18F11275   3.131   2.292  15.002  0.6471 -0.3793  0.8362
   8423SM  H18G11276   3.102   2.149  15.114  3.0240 -2.0030 -2.7059
   8423SM  C19F11277   2.923   2.230  15.039  0.0002 -0.8608 -0.1559
   8423SM  H19F11278   2.879   2.243  14.937 -1.0799 -0.4467  0.3473
   8423SM  H19G11279   2.921   2.327  15.093  0.4706  0.2437 -2.0275
   8423SM  C20F11280   2.850   2.130  15.121 -0.0450  0.3979 -0.3917
   8423SM  H20F11281   2.908   2.127  15.216 -0.4687  1.2824 -0.0871
   8423SM  H20G11282   2.848   2.035  15.064  1.7098  0.5068 -0.6949
   8423SM  C21F11283   2.706   2.183  15.156  0.0067  0.3008  0.3086
   8423SM  H21F11284   2.653   2.206  15.062  1.6616 -1.9820 -1.2904
   8423SM  H21G11285   2.720   2.270  15.223 -0.6823 -0.5232  1.5583
   8423SM  C22F11286   2.614   2.074  15.211 -0.4997 -0.4753  0.0599
   8423SM  H22F11287   2.535   2.119  15.274  0.5871 -0.2377  1.3166
   8423SM  H22G11288   2.666   1.999  15.275  1.9591 -2.2699 -3.6636
   8423SM  C23F11289   2.543   1.992  15.107 -0.2863 -0.9814 -0.6967
   8423SM  H23F11290   2.505   2.064  15.031  1.8423  1.6188  0.5385
   8423SM  H23G11291   2.455   1.948  15.158 -1.9283  1.7946 -0.8930
   8423SM  H23H11292   2.613   1.914  15.071 -1.7283 -2.5121 -0.3111
   8523SM     N11293   5.111   2.932  12.348 -0.0604 -0.6174  0.0503
   8523SM   C1511294   5.181   2.799  12.360  0.4529 -0.5478 -0.2221
   8523SM  H15A11295   5.265   2.818  12.426  0.8869  1.6302 -1.3228
   8523SM  H15B11296   5.225   2.768  12.266  2.2257  3.2754 -0.8213
   8523SM  H15C11297   5.122   2.727  12.415  1.4736 -0.3616  1.1837
   8523SM   C1411298   5.214   3.041  12.307  0.2245  0.1646 -0.2118
   8523SM  H14A11299   5.168   3.135  12.278  0.2963  0.6975  1.2659
   8523SM  H14B11300   5.272   3.006  12.224  1.4072 -1.0036  1.0634
   8523SM  H14C11301   5.289   3.058  12.383  0.9802  1.4447 -1.2072
   8523SM   C1311302   5.013   2.922  12.245 -0.1286  0.5072  0.7654
   8523SM  H13A11303   4.969   3.013  12.207  1.2404 -0.3363 -3.4077
   8523SM  H13B11304   4.929   2.861  12.276  0.8648 -0.5304  1.5214
   8523SM  H13C11305   5.052   2.861  12.164 -1.4329 -0.7146  1.0168
   8523SM   C1211306   5.058   2.965  12.491 -0.8982 -0.7852 -0.5993
   8523SM  H12A11307   4.995   2.890  12.537 -2.6314  1.2149  0.5008
   8523SM  H12B11308   4.981   3.041  12.480  0.7205  0.8102 -1.4544
   8523SM   C1111309   5.160   3.019  12.600  0.4389 -0.6226 -0.2876
   8523SM  H11A11310   5.100   3.049  12.688  2.6081  0.2053  0.9986
   8523SM  H11B11311   5.203   3.111  12.555  0.4416 -1.4419 -2.0461
   8523SM     P11312   5.211   2.783  12.716  0.0869 -0.1207 -0.1109
   8523SM   O1311313   5.093   2.719  12.658 -0.5068 -0.4151  0.1197
   8523SM   O1411314   5.333   2.696  12.731 -0.1124 -0.9919 -0.4693
   8523SM   O1111315   5.174   2.839  12.862  0.0998  0.1266 -0.0072
   8523SM   O1211316   5.253   2.918  12.631  0.1245 -0.3399 -0.1098
   8523SM   C1S11317   5.256   2.935  12.931  0.0405  0.8524  0.5021
   8523SM   H1S11318   5.225   3.036  12.896  0.1242  0.8451  0.4058
   8523SM   H1T11319   5.361   2.931  12.897  1.0295 -2.0870  3.4569
   8523SM    NF11320   5.270   3.041  13.157  0.1452  0.0759  0.3007
   8523SM   HNF11321   5.355   3.036  13.209  1.3869  1.1486 -1.5372
   8523SM   C2S11322   5.245   2.917  13.085 -0.2248  0.3087 -0.3366
   8523SM   H2S11323   5.136   2.907  13.105  0.2279 -0.1036  2.1955
   8523SM   C3S11324   5.330   2.796  13.131  0.0194 -0.0035  0.1711
   8523SM   H3S11325   5.439   2.811  13.117  0.2924 -1.6170  0.3392
   8523SM    O311326   5.289   2.670  13.070 -0.5885  0.0648 -0.1941
   8523SM   HO311327   5.266   2.690  12.979  0.8461  0.1795 -0.5533
   8523SM   C4S11328   5.318   2.777  13.278  0.1434  0.1461 -0.3536
   8523SM   H4S11329   5.216   2.753  13.312  0.4261 -4.2566 -1.9017
   8523SM   C5S11330   5.420   2.781  13.371  0.0885  0.9008  0.2023
   8523SM   H5S11331   5.525   2.786  13.340 -0.4585 -0.1375 -2.0355
   8523SM   C6S11332   5.386   2.770  13.517  0.3192  0.6292 -0.6134
   8523SM   H6S11333   5.281   2.734  13.525  0.6317 -0.2802 -0.4612
   8523SM   H6T11334   5.391   2.868  13.568 -1.4675  0.1262  0.6164
   8523SM   C7S11335   5.472   2.660  13.583 -0.3640 -0.3010  0.1230
   8523SM   H7S11336   5.579   2.685  13.568  0.0988 -1.5238  1.2152
   8523SM   H7T11337   5.448   2.566  13.529  1.5408 -2.9063  3.4317
   8523SM   C8S11338   5.453   2.648  13.736 -0.2352 -0.6787  0.2423
   8523SM   H8S11339   5.402   2.740  13.772  4.4854  1.8684  1.2342
   8523SM   H8T11340   5.550   2.644  13.791 -1.1994 -2.5597  1.9513
   8523SM   C9S11341   5.391   2.516  13.781 -0.6234  0.1756  0.5537
   8523SM   H9S11342   5.460   2.443  13.734  1.7582  2.4360  0.3084
   8523SM   H9T11343   5.289   2.480  13.757  0.2562 -1.2688 -1.2737
   8523SM  C10S11344   5.404   2.507  13.937 -0.7503 -0.4292  0.3152
   8523SM  H10S11345   5.373   2.603  13.983  0.1101  0.2325 -0.4534
   8523SM  H10T11346   5.514   2.510  13.950 -0.9005  0.7072  1.5582
   8523SM  C11S11347   5.359   2.379  14.007 -0.2971 -0.6643 -0.0433
   8523SM  H11S11348   5.381   2.305  13.927 -0.6159  0.0537 -0.8052
   8523SM  H11T11349   5.248   2.380  14.012 -0.2927 -2.4464  1.7823
   8523SM  C12S11350   5.418   2.349  14.144  0.0481  0.0004  0.2713
   8523SM  H12S11351   5.529   2.356  14.146  0.1308 -0.9408 -0.3486
   8523SM  H12T11352   5.384   2.246  14.168 -1.7792  0.4708 -0.2087
   8523SM  C13S11353   5.352   2.427  14.258  0.6220 -0.0487  0.3073
   8523SM  H13S11354   5.248   2.456  14.229 -0.0246 -0.4742  2.0717
   8523SM  H13T11355   5.415   2.517  14.271  0.2958  0.4223 -1.1097
   8523SM  C14S11356   5.361   2.350  14.388 -0.1361 -0.3156 -0.2063
   8523SM  H14S11357   5.460   2.300  14.391 -1.0440 -2.1647  1.7431
   8523SM  H14T11358   5.286   2.268  14.378  0.7860 -1.0874 -0.9198
   8523SM  C15S11359   5.321   2.422  14.513 -0.2364  0.6727  0.4309
   8523SM  H15S11360   5.403   2.493  14.539  1.8584 -1.4807  0.0954
   8523SM  H15T11361   5.322   2.354  14.600 -0.3398  1.7277  1.2771
   8523SM  C16S11362   5.202   2.524  14.507  0.2151  0.4118 -0.5337
   8523SM  H16S11363   5.117   2.464  14.468  1.0944  0.0760 -2.0081
   8523SM  H16T11364   5.217   2.592  14.420 -0.5130 -0.4400 -1.3555
   8523SM  C17S11365   5.173   2.589  14.652  0.2272 -0.5254  0.8138
   8523SM  H17S11366   5.273   2.628  14.682  0.5202 -1.4757  1.0982
   8523SM  H17T11367   5.132   2.509  14.717  2.5259 -1.2479  1.4711
   8523SM  C18S11368   5.071   2.702  14.640  0.7174  0.5580  1.2103
   8523SM  H18S11369   5.088   2.758  14.545 -0.9148 -0.8968 -0.0211
   8523SM  H18T11370   5.063   2.761  14.733  1.3366  2.0263  0.3665
   8523SM  H18U11371   4.973   2.653  14.620 -0.2254  2.9148 -0.4512
   8523SM   C1F11372   5.193   3.144  13.147  0.8017  0.3695  0.6434
   8523SM    OF11373   5.081   3.136  13.086  0.1128 -0.3494 -0.0674
   8523SM   C2F11374   5.226   3.275  13.211 -0.3093  0.5048  0.6574
   8523SM   H2F11375   5.124   3.299  13.248 -0.1603  0.8622  0.8466
   8523SM   H2G11376   5.265   3.344  13.133 -2.9414  1.5557  0.1626
   8523SM   C3F11377   5.310   3.269  13.337  0.3944  0.8134 -0.0982
   8523SM   H3F11378   5.415   3.249  13.306  0.2141  1.2420 -1.0067
   8523SM   H3G11379   5.272   3.185  13.399  2.4433 -0.6995 -0.7845
   8523SM   C4F11380   5.300   3.400  13.415 -0.3862  0.3135 -0.0663
   8523SM   H4F11381   5.193   3.429  13.419 -0.5013 -0.1238  3.4946
   8523SM   H4G11382   5.369   3.475  13.370  2.1764 -0.9241  1.5819
   8523SM   C5F11383   5.350   3.380  13.560  0.7804  0.5278  0.0470
   8523SM   H5F11384   5.435   3.311  13.578 -0.6934 -0.8543  2.2385
   8523SM   H5G11385   5.257   3.333  13.600  0.8607  0.0527 -0.3037
   8523SM   C6F11386   5.366   3.514  13.632 -0.1847  0.6685  0.4809
   8523SM   H6F11387   5.293   3.586  13.590 -1.3988 -0.3584  0.7600
   8523SM   H6G11388   5.467   3.554  13.610  0.1915 -1.4719 -2.1829
   8523SM   C7F11389   5.329   3.514  13.783 -0.3108 -0.1932  0.1540
   8523SM   H7F11390   5.380   3.426  13.828  0.1303 -0.0288 -0.0171
   8523SM   H7G11391   5.220   3.495  13.797 -0.8664  3.6665  2.3018
   8523SM   C8F11392   5.377   3.647  13.860  0.7651  0.1262 -0.0280
   8523SM   H8F11393   5.302   3.725  13.833 -0.4640 -0.8676  0.3839
   8523SM   H8G11394   5.476   3.663  13.813 -0.2675  1.1648 -1.9740
   8523SM   C9F11395   5.380   3.639  14.010  0.1927 -0.0214 -0.1844
   8523SM   H9F11396   5.426   3.545  14.045  0.4031  0.6343  1.3852
   8523SM   H9G11397   5.276   3.641  14.047  0.6254 -0.9305  1.1533
   8523SM  C10F11398   5.461   3.760  14.056 -0.6701 -0.1375 -0.4695
   8523SM  H10F11399   5.428   3.857  14.012 -1.9225  0.7454  2.1730
   8523SM  H10G11400   5.564   3.751  14.015 -0.9561  0.8598 -1.4791
   8523SM  C11F11401   5.478   3.771  14.211 -0.2271 -0.0720 -0.3250
   8523SM  H11F11402   5.575   3.815  14.241 -0.6570 -0.1593  1.2598
   8523SM  H11G11403   5.484   3.663  14.236 -0.6008 -0.0357 -0.0668
   8523SM  C12F11404   5.354   3.817  14.298  0.3226  0.2188 -0.8576
   8523SM  H12F11405   5.262   3.775  14.251 -1.8748  2.3735  1.2160
   8523SM  H12G11406   5.357   3.928  14.299 -0.8510  0.2801 -1.4596
   8523SM  C13F11407   5.364   3.765  14.443 -0.1417  0.3336  0.7241
   8523SM  H13F11408   5.457   3.782  14.500 -1.3774 -1.0457  3.3642
   8523SM  H13G11409   5.350   3.656  14.426 -0.2432  0.4264  0.1950
   8523SM  C14F11410   5.242   3.813  14.524 -0.0315  0.4663 -0.1433
   8523SM  H14F11411   5.259   3.787  14.631  2.3266  0.5644 -0.4415
   8523SM  H14G11412   5.147   3.771  14.483 -0.3717 -0.0223  1.0793
   8523SM  C15F11413   5.204   3.967  14.518 -0.2140  0.6058 -0.2840
   8523SM  H15F11414   5.134   3.986  14.434  0.3995  2.5151 -0.4029
   8523SM  H15G11415   5.297   4.025  14.499  0.4608 -1.1907 -3.2879
   8523SM  C16F11416   5.137   4.028  14.642 -0.2869  0.5708  1.2126
   8523SM  H16F11417   5.219   4.052  14.713 -0.9554  3.3503  1.1721
   8523SM  H16G11418   5.080   3.943  14.684  2.4006 -2.2329 -0.4387
   8523SM  C17F11419   5.078   4.169  14.630 -0.3249 -0.0341 -0.8430
   8523SM  H17F11420   4.976   4.150  14.589  0.6996 -0.3881 -3.4409
   8523SM  H17G11421   5.136   4.223  14.552 -0.5922 -0.3688 -1.2780
   8523SM  C18F11422   5.090   4.244  14.769 -0.0913 -0.4062  0.0105
   8523SM  H18F11423   5.089   4.166  14.848  1.9929  1.8485  2.4476
   8523SM  H18G11424   5.004   4.310  14.792  0.0442  0.5535 -1.9844
   8523SM  C19F11425   5.224   4.326  14.776 -0.6961  0.0860 -0.3936
   8523SM  H19F11426   5.209   4.412  14.707 -2.5461 -2.3103 -3.2310
   8523SM  H19G11427   5.303   4.266  14.727 -0.7348 -0.1744 -0.1427
   8523SM  C20F11428   5.268   4.372  14.917 -0.2482  0.0824 -0.6194
   8523SM  H20F11429   5.358   4.435  14.905 -0.9250  1.2866  0.3717
   8523SM  H20G11430   5.285   4.287  14.987 -0.1102  0.9627  0.4407
   8523SM  C21F11431   5.150   4.453  14.967 -0.0383  0.0178  0.1928
   8523SM  H21F11432   5.068   4.385  14.997 -0.3002  0.3066  0.1339
   8523SM  H21G11433   5.101   4.525  14.897  0.0512  2.4668  2.4580
   8523SM  C22F11434   5.173   4.539  15.089  0.4014 -0.1628 -0.1253
   8523SM  H22F11435   5.174   4.472  15.177  0.3875  1.5425  1.2139
   8523SM  H22G11436   5.085   4.606  15.101  0.6756  0.2588 -0.4474
   8523SM  C23F11437   5.286   4.637  15.070  0.2813  0.5259  0.4864
   8523SM  H23F11438   5.282   4.696  14.976  0.4725 -2.0791 -1.2569
   8523SM  H23G11439   5.381   4.581  15.060  0.9613  1.3426  2.0219
   8523SM  H23H11440   5.298   4.702  15.159  1.8577  0.5557  0.2892
   8623SM     N11441   2.542   1.243  12.513 -0.0028 -0.9305 -0.6741
   8623SM   C1511442   2.688   1.284  12.505 -0.1538 -0.3045 -0.5485
   8623SM  H15A11443   2.740   1.270  12.598  0.7432 -0.4267 -1.0540
   8623SM  H15B11444   2.699   1.386  12.472 -0.9683  0.0216  0.1380
   8623SM  H15C11445   2.729   1.224  12.425 -0.8061 -1.2120 -0.2190
   8623SM   C1411446   2.465   1.309  12.399  0.4089 -0.0851 -0.0248
   8623SM  H14A11447   2.360   1.283  12.400  0.7121 -1.3886  0.3904
   8623SM  H14B11448   2.504   1.278  12.304  0.7877  0.5923 -0.0905
   8623SM  H14C11449   2.478   1.415  12.409 -0.2038  0.0820 -0.9030
   8623SM   C1311450   2.528   1.097  12.497 -0.3436  1.0182  0.9095
   8623SM  H13A11451   2.593   1.038  12.560 -0.3339 -2.8418 -2.3625
   8623SM  H13B11452   2.560   1.079  12.396 -0.3552  1.4171  0.8330
   8623SM  H13C11453   2.425   1.067  12.513 -0.0745 -0.3747  0.1487
   8623SM   C1211454   2.479   1.289  12.645 -0.3707  0.4723  0.3598
   8623SM  H12A11455   2.540   1.247  12.724  0.9340 -0.6002 -1.1561
   8623SM  H12B11456   2.382   1.242  12.654  0.2785 -1.0190 -0.0408
   8623SM   C1111457   2.459   1.442  12.665 -0.7932  0.5294  0.4894
   8623SM  H11A11458   2.550   1.502  12.644 -1.9511  2.4784  0.7713
   8623SM  H11B11459   2.425   1.442  12.770  1.6264  1.4049  1.3325
   8623SM     P11460   2.203   1.447  12.606  0.1767  0.2813 -0.2064
   8623SM   O1311461   2.142   1.552  12.526  0.8407 -0.1093  0.4791
   8623SM   O1411462   2.173   1.309  12.564  1.1104 -0.1599  0.0936
   8623SM   O1111463   2.180   1.484  12.758 -0.2696 -0.2713  0.0114
   8623SM   O1211464   2.353   1.487  12.585  0.3575  0.2547 -0.5327
   8623SM   C1S11465   2.203   1.617  12.807  0.2305 -0.2036 -0.1556
   8623SM   H1S11466   2.128   1.685  12.762 -1.5106 -1.6511  0.4375
   8623SM   H1T11467   2.307   1.647  12.781 -0.3593  0.2837 -2.1533
   8623SM    NF11468   2.236   1.750  13.010 -0.3187  0.2397 -0.0702
   8623SM   HNF11469   2.332   1.755  13.037 -0.1564 -2.8116  0.2768
   8623SM   C2S11470   2.197   1.614  12.963 -0.6138  0.3542  0.0997
   8623SM   H2S11471   2.090   1.594  12.986 -0.5544 -0.5969 -0.3898
   8623SM   C3S11472   2.283   1.503  13.022  0.4597  0.7418 -0.0191
   8623SM   H3S11473   2.391   1.514  13.000  0.8021 -1.3054  0.4510
   8623SM    O311474   2.263   1.377  12.968 -0.1824  0.7191 -0.4050
   8623SM   HO311475   2.209   1.391  12.890  0.3617  0.7594 -0.7847
   8623SM   C4S11476   2.247   1.500  13.171  0.9279 -0.0048  0.0597
   8623SM   H4S11477   2.140   1.481  13.186  1.0584 -0.8524 -0.0550
   8623SM   C5S11478   2.326   1.509  13.277 -0.1587 -0.8659 -0.2269
   8623SM   H5S11479   2.434   1.525  13.272 -0.3388  0.9524  0.9601
   8623SM   C6S11480   2.273   1.487  13.423 -0.1573 -0.1499 -0.9683
   8623SM   H6S11481   2.175   1.435  13.430  0.6331 -1.5975  5.7582
   8623SM   H6T11482   2.263   1.589  13.465 -0.8363  0.8263 -3.3158
   8623SM   C7S11483   2.363   1.394  13.513 -0.0898  0.2463 -0.1470
   8623SM   H7S11484   2.470   1.422  13.503 -0.5072  1.4395 -1.6652
   8623SM   H7T11485   2.357   1.295  13.463  0.5507  0.6395 -1.0229
   8623SM   C8S11486   2.324   1.392  13.661  0.2667  0.1461  0.6731
   8623SM   H8S11487   2.213   1.379  13.662  0.3970 -1.7916 -1.4684
   8623SM   H8T11488   2.341   1.492  13.706  0.2143 -0.3592  1.8489
   8623SM   C9S11489   2.383   1.276  13.737 -0.0206  0.8455  0.3807
   8623SM   H9S11490   2.492   1.289  13.719  0.2633 -1.1235  0.5086
   8623SM   H9T11491   2.340   1.189  13.683  0.4607  1.0728 -0.3848
   8623SM  C10S11492   2.345   1.267  13.887 -0.2643 -0.0291 -0.1926
   8623SM  H10S11493   2.235   1.267  13.901 -0.4788  2.0098 -1.4135
   8623SM  H10T11494   2.388   1.350  13.948  0.6803 -0.6919  0.0560
   8623SM  C11S11495   2.387   1.130  13.948 -0.1870  0.0666  0.2334
   8623SM  H11S11496   2.476   1.098  13.891 -1.1160  0.7664 -1.7148
   8623SM  H11T11497   2.309   1.053  13.930 -2.4881  2.5678 -1.3757
   8623SM  C12S11498   2.411   1.146  14.097  0.5879 -0.5080  0.2558
   8623SM  H12S11499   2.328   1.207  14.137 -0.2702 -2.3200  1.3928
   8623SM  H12T11500   2.506   1.199  14.114  0.1954  0.1612  0.3899
   8623SM  C13S11501   2.406   1.014  14.174  0.3008 -0.3323  0.0406
   8623SM  H13S11502   2.493   0.951  14.145  0.3057 -1.0256  1.4718
   8623SM  H13T11503   2.308   0.961  14.174  0.6801 -1.0395 -0.0280
   8623SM  C14S11504   2.442   1.039  14.319  0.1586 -0.7192  0.1414
   8623SM  H14S11505   2.370   1.110  14.365  0.4563 -0.0736 -0.3717
   8623SM  H14T11506   2.538   1.095  14.321  1.5759 -3.0778  2.0277
   8623SM  C15S11507   2.449   0.896  14.381  0.9166  0.1816 -0.7783
   8623SM  H15S11508   2.516   0.838  14.313  0.4955 -1.3950  0.0913
   8623SM  H15T11509   2.355   0.838  14.375  2.5450 -2.8205  0.6004
   8623SM  C16S11510   2.506   0.887  14.522  0.4123 -0.3558 -0.2670
   8623SM  H16S11511   2.493   0.783  14.559  0.3050 -0.3330 -0.2369
   8623SM  H16T11512   2.458   0.959  14.592 -0.5502  0.2737 -1.5133
   8623SM  C17S11513   2.661   0.896  14.527  0.4003  0.1269 -0.2931
   8623SM  H17S11514   2.678   1.003  14.504 -0.3980  0.1711 -0.7209
   8623SM  H17T11515   2.720   0.842  14.450 -0.9390 -2.2955  0.2755
   8623SM  C18S11516   2.725   0.870  14.666  0.1577  0.4265  0.0558
   8623SM  H18S11517   2.681   0.779  14.712  3.0862 -1.5232 -0.7298
   8623SM  H18T11518   2.703   0.959  14.729  0.1557  0.2071  0.3667
   8623SM  H18U11519   2.835   0.864  14.651  0.1769 -0.5364  0.4657
   8623SM   C1F11520   2.161   1.852  12.989  0.0639 -0.6813 -0.8888
   8623SM    OF11521   2.041   1.832  12.964 -0.5537  0.2715 -0.2133
   8623SM   C2F11522   2.225   1.981  13.000 -0.9445 -0.2959  0.4656
   8623SM   H2F11523   2.292   1.998  12.913 -0.0325  1.9190  1.5095
   8623SM   H2G11524   2.295   1.975  13.087  0.4306  1.2495 -0.4689
   8623SM   C3F11525   2.129   2.100  13.018  0.3842 -0.4286 -0.8808
   8623SM   H3F11526   2.044   2.070  13.083  0.9436  0.1467  0.1452
   8623SM   H3G11527   2.105   2.136  12.916  0.2629 -1.0891 -1.0910
   8623SM   C4F11528   2.191   2.219  13.092 -0.2845 -0.1360 -0.0686
   8623SM   H4F11529   2.128   2.310  13.100  0.6642  0.4911  0.4843
   8623SM   H4G11530   2.288   2.245  13.045 -0.4887  0.7908  0.0077
   8623SM   C5F11531   2.226   2.192  13.237 -0.0237  0.2721  0.5001
   8623SM   H5F11532   2.309   2.118  13.227  0.2122  0.2855  2.1343
   8623SM   H5G11533   2.137   2.157  13.292  0.7440 -1.5232  0.6775
   8623SM   C6F11534   2.298   2.301  13.315 -0.4533  0.1465 -0.1275
   8623SM   H6F11535   2.239   2.393  13.333  1.3993  1.7165 -1.6923
   8623SM   H6G11536   2.386   2.335  13.256 -0.7531  3.1292  0.9728
   8623SM   C7F11537   2.351   2.248  13.455 -0.1165  0.2790  0.1646
   8623SM   H7F11538   2.428   2.320  13.489  0.4838 -0.4768  0.4351
   8623SM   H7G11539   2.407   2.156  13.428  0.4037  0.6807 -0.1413
   8623SM   C8F11540   2.245   2.207  13.558  0.2684 -0.2397  0.1517
   8623SM   H8F11541   2.191   2.118  13.519  3.0211 -1.7916 -0.4093
   8623SM   H8G11542   2.169   2.285  13.577  0.8026  0.4289 -0.3698
   8623SM   C9F11543   2.312   2.170  13.688  0.8753 -0.1756  0.2077
   8623SM   H9F11544   2.224   2.181  13.755 -1.9024  2.2434 -3.4662
   8623SM   H9G11545   2.384   2.247  13.725  1.8040 -0.0376 -1.7463
   8623SM  C10F11546   2.387   2.045  13.687  0.0996 -0.2663 -0.2708
   8623SM  H10F11547   2.494   2.047  13.655  0.1039 -1.7792 -0.4250
   8623SM  H10G11548   2.332   1.975  13.620  2.6352 -1.3044 -1.4002
   8623SM  C11F11549   2.385   1.981  13.825 -0.4002 -0.0959 -0.2101
   8623SM  H11F11550   2.282   1.975  13.866 -0.2801  0.2052  0.1327
   8623SM  H11G11551   2.439   2.052  13.891  0.5775 -0.9237 -0.0788
   8623SM  C12F11552   2.452   1.838  13.836  0.1545 -1.0603 -0.7191
   8623SM  H12F11553   2.551   1.845  13.786  0.6376 -0.2493  0.2936
   8623SM  H12G11554   2.396   1.756  13.788  1.6780 -1.4161 -1.9878
   8623SM  C13F11555   2.485   1.789  13.979  0.3838  0.3438  0.7684
   8623SM  H13F11556   2.395   1.766  14.039  1.2391  0.3374  2.0811
   8623SM  H13G11557   2.541   1.867  14.035  0.0487  0.4351  0.9721
   8623SM  C14F11558   2.572   1.658  13.991 -0.1189  0.7898  0.3340
   8623SM  H14F11559   2.650   1.668  13.912 -0.7988 -2.6276 -0.9169
   8623SM  H14G11560   2.507   1.572  13.967 -0.3790  0.8093  0.9489
   8623SM  C15F11561   2.635   1.632  14.125  0.1641 -0.2318 -0.3969
   8623SM  H15F11562   2.566   1.609  14.209  0.0177 -1.6330 -0.8742
   8623SM  H15G11563   2.690   1.723  14.158  0.1589 -0.7796  1.2073
   8623SM  C16F11564   2.728   1.507  14.123 -0.7554  0.2229 -1.2217
   8623SM  H16F11565   2.792   1.501  14.032  0.0706  0.1630 -0.6516
   8623SM  H16G11566   2.665   1.415  14.131 -2.3245  1.4426  2.6454
   8623SM  C17F11567   2.827   1.498  14.247 -0.0724  0.4651  0.2395
   8623SM  H17F11568   2.887   1.591  14.248  3.7696 -1.7680  0.7278
   8623SM  H17G11569   2.897   1.413  14.231 -0.6818 -0.6293  2.8101
   8623SM  C18F11570   2.751   1.479  14.378 -0.2799 -0.1390  0.0161
   8623SM  H18F11571   2.682   1.393  14.360 -0.2114 -0.4678  1.2186
   8623SM  H18G11572   2.695   1.573  14.397 -0.1655 -0.0645 -0.0156
   8623SM  C19F11573   2.831   1.464  14.513 -0.4799 -0.3354  0.5751
   8623SM  H19F11574   2.869   1.361  14.531  1.0959  0.0750 -0.1725
   8623SM  H19G11575   2.773   1.505  14.598  1.4179  0.9064  1.3472
   8623SM  C20F11576   2.956   1.551  14.503  0.0531 -0.3366 -0.5890
   8623SM  H20F11577   2.919   1.653  14.480 -2.7632 -1.4001 -1.1816
   8623SM  H20G11578   3.025   1.523  14.421  5.4386 -0.6465  3.4763
   8623SM  C21F11579   3.035   1.549  14.633  0.5388 -0.2173 -0.4350
   8623SM  H21F11580   3.145   1.552  14.616  0.6481  1.9923  0.2785
   8623SM  H21G11581   3.000   1.466  14.697 -0.6121  0.0946 -0.6461
   8623SM  C22F11582   3.016   1.683  14.706  0.6249 -0.3939 -0.0755
   8623SM  H22F11583   2.912   1.691  14.746  0.1266  2.7378 -1.6732
   8623SM  H22G11584   3.034   1.770  14.640  1.8689  0.5301  1.4253
   8623SM  C23F11585   3.120   1.694  14.814 -0.5552 -0.1466  0.0922
   8623SM  H23F11586   3.224   1.680  14.776 -0.5915  1.4600 -0.6851
   8623SM  H23G11587   3.103   1.623  14.897 -2.3021 -0.9000 -0.8649
   8623SM  H23H11588   3.102   1.800  14.842 -2.1143 -0.2195 -0.5440
   8723SM     N11589   4.487   0.981  12.970 -0.3867 -0.2191 -0.2958
   8723SM   C1511590   4.423   1.111  12.940  0.7902  0.5656  0.3638
   8723SM  H15A11591   4.486   1.180  12.885 -0.7745  0.6121 -1.4723
   8723SM  H15B11592   4.391   1.171  13.024 -3.2585 -0.4060 -0.2760
   8723SM  H15C11593   4.332   1.101  12.882  1.4408  0.0836 -0.6033
   8723SM   C1411594   4.392   0.883  13.029  0.8169 -0.2368 -0.0166
   8723SM  H14A11595   4.445   0.800  13.075  1.0889 -1.2156 -1.9799
   8723SM  H14B11596   4.336   0.847  12.945 -0.6500 -0.8407  1.1756
   8723SM  H14C11597   4.331   0.929  13.105  0.4765 -0.6303 -0.0501
   8723SM   C1311598   4.540   0.931  12.834  0.2475  0.3251  0.1235
   8723SM  H13A11599   4.588   1.012  12.781 -0.3672  0.5139 -0.1519
   8723SM  H13B11600   4.453   0.898  12.780  1.7251 -3.0672 -0.4091
   8723SM  H13C11601   4.613   0.852  12.842 -1.5262 -1.4071  0.1356
   8723SM   C1211602   4.594   1.003  13.076 -0.2180 -0.2200 -0.1248
   8723SM  H12A11603   4.675   1.059  13.030  0.0406  0.4917  1.1535
   8723SM  H12B11604   4.645   0.911  13.098 -2.1023 -0.5572  3.4693
   8723SM   C1111605   4.547   1.056  13.218 -0.1075 -0.1395  0.3943
   8723SM  H11A11606   4.633   1.043  13.287 -0.0507  0.1508  0.3785
   8723SM  H11B11607   4.462   0.991  13.247 -0.5076  0.0344 -0.3486
   8723SM     P11608   4.595   1.319  13.206  0.1068 -0.1792  0.3176
   8723SM   O1311609   4.680   1.310  13.081 -0.3822  0.1757 -0.3523
   8723SM   O1411610   4.507   1.441  13.203  0.1783  0.8372 -0.1528
   8723SM   O1111611   4.677   1.314  13.340 -0.0014  0.0025 -0.7129
   8723SM   O1211612   4.502   1.195  13.213 -0.2881 -0.0332  0.0854
   8723SM   C1S11613   4.603   1.301  13.466 -0.2755 -0.6017 -0.5529
   8723SM   H1S11614   4.604   1.192  13.489  0.7590 -0.1330  1.9782
   8723SM   H1T11615   4.502   1.349  13.471  0.2950  0.7139 -1.1761
   8723SM    NF11616   4.646   1.318  13.722  0.3332 -0.4964  0.5385
   8723SM   HNF11617   4.605   1.388  13.780  1.9896  0.3225  0.7740
   8723SM   C2S11618   4.693   1.355  13.586  0.0307  0.6728  0.1499
   8723SM   H2S11619   4.787   1.298  13.570 -0.6732 -0.3555 -0.4622
   8723SM   C3S11620   4.733   1.508  13.570 -0.3913  0.2893  0.6679
   8723SM   H3S11621   4.640   1.566  13.556  0.2009  0.8425 -1.4817
   8723SM    O311622   4.803   1.536  13.446 -0.3126  0.0744 -0.1239
   8723SM   HO311623   4.781   1.461  13.390  0.0722 -2.0775  2.4185
   8723SM   C4S11624   4.811   1.574  13.685 -0.1482  0.1282 -0.1840
   8723SM   H4S11625   4.751   1.599  13.774 -1.5123  1.9382 -1.5398
   8723SM   C5S11626   4.944   1.593  13.698  0.4318 -0.3096 -0.0685
   8723SM   H5S11627   5.016   1.586  13.615  0.9725  0.1106  0.3541
   8723SM   C6S11628   5.017   1.642  13.817  0.8882  0.4943  0.0143
   8723SM   H6S11629   5.027   1.752  13.802 -0.9701  0.6800 -0.2139
   8723SM   H6T11630   5.117   1.595  13.812  0.0044 -1.3621 -2.7149
   8723SM   C7S11631   4.952   1.616  13.954 -0.0480 -0.0387 -0.5172
   8723SM   H7S11632   4.928   1.509  13.969  0.2390 -0.2824 -1.6406
   8723SM   H7T11633   4.851   1.662  13.950 -0.8781 -0.7660  4.8348
   8723SM   C8S11634   5.027   1.686  14.070 -0.7101 -0.6420 -0.1334
   8723SM   H8S11635   5.081   1.779  14.041  4.0889 -2.4564  1.9364
   8723SM   H8T11636   5.103   1.616  14.109  0.4333 -0.7255 -2.3774
   8723SM   C9S11637   4.937   1.708  14.185 -0.9228  0.1384 -0.2504
   8723SM   H9S11638   4.896   1.606  14.199  1.7104 -0.9850 -0.2665
   8723SM   H9T11639   4.847   1.770  14.163 -1.3273 -0.9313 -1.7606
   8723SM  C10S11640   5.003   1.779  14.308 -0.0376  0.0942  0.0877
   8723SM  H10S11641   5.044   1.876  14.271  1.8421  0.3311  2.5694
   8723SM  H10T11642   5.078   1.709  14.350 -1.3728 -0.5989  1.4258
   8723SM  C11S11643   4.895   1.793  14.419 -0.1480  0.4471  0.0319
   8723SM  H11S11644   4.865   1.691  14.449 -1.3450  0.6881 -0.2889
   8723SM  H11T11645   4.811   1.857  14.382 -0.0962  0.2137 -0.5001
   8723SM  C12S11646   4.946   1.859  14.549 -1.1523  0.4290 -0.0930
   8723SM  H12S11647   4.999   1.952  14.519  2.0679 -0.8848  1.0307
   8723SM  H12T11648   5.027   1.791  14.582 -0.9628  1.0848  0.8497
   8723SM  C13S11649   4.832   1.878  14.648 -0.8781 -0.9553  0.0277
   8723SM  H13S11650   4.769   1.787  14.652 -0.1036 -1.4688  1.7959
   8723SM  H13T11651   4.778   1.972  14.624  1.7371  0.0544 -2.4482
   8723SM  C14S11652   4.889   1.890  14.791 -0.0362  0.4572 -0.2661
   8723SM  H14S11653   4.951   1.799  14.801 -1.9032 -0.6528  2.9616
   8723SM  H14T11654   4.810   1.866  14.865 -1.3766  0.3888 -1.6856
   8723SM  C15S11655   4.961   2.015  14.832 -0.2339  0.1046  0.8678
   8723SM  H15S11656   4.889   2.098  14.816  0.1780  0.2490 -0.3875
   8723SM  H15T11657   5.051   2.032  14.768  0.2694 -1.7248  1.0382
   8723SM  C16S11658   5.022   2.019  14.978 -0.1103 -0.2544 -0.8860
   8723SM  H16S11659   4.966   1.943  15.036  2.5609  0.3431  2.7932
   8723SM  H16T11660   5.012   2.108  15.043 -0.1577 -1.3691  0.6776
   8723SM  C17S11661   5.162   1.953  14.982 -0.7284 -0.2128 -0.3053
   8723SM  H17S11662   5.234   2.016  14.925  2.0104 -0.9206  2.0966
   8723SM  H17T11663   5.148   1.853  14.934  0.9423  0.2233 -1.7985
   8723SM  C18S11664   5.229   1.938  15.118 -0.2873 -0.0367 -0.0997
   8723SM  H18S11665   5.167   1.864  15.173 -0.0335 -1.1160 -1.2049
   8723SM  H18T11666   5.258   2.037  15.158 -0.4017  0.2000 -0.5890
   8723SM  H18U11667   5.328   1.891  15.100 -0.2003  0.0525  0.1463
   8723SM   C1F11668   4.650   1.195  13.770 -0.5937 -0.3368  0.0051
   8723SM    OF11669   4.703   1.102  13.705 -0.0573 -0.5586 -0.1055
   8723SM   C2F11670   4.585   1.174  13.904  0.3461  0.5786  0.7572
   8723SM   H2F11671   4.535   1.269  13.935  0.3672  1.2688 -1.2160
   8723SM   H2G11672   4.660   1.157  13.984  0.7764 -0.4402  0.1430
   8723SM   C3F11673   4.484   1.055  13.900  0.1725  0.4153 -0.2555
   8723SM   H3F11674   4.531   0.956  13.879 -2.0970 -1.9785  4.3625
   8723SM   H3G11675   4.405   1.075  13.824 -0.9799  0.9819  1.0474
   8723SM   C4F11676   4.404   1.028  14.029 -0.4730 -0.3806 -0.3933
   8723SM   H4F11677   4.332   0.945  14.013 -0.4892 -0.6137  0.8582
   8723SM   H4G11678   4.348   1.120  14.056  1.0404  0.2333  0.7394
   8723SM   C5F11679   4.498   1.002  14.150 -0.1106 -0.2254  0.6227
   8723SM   H5F11680   4.545   1.099  14.178 -0.5931 -0.1287  1.1058
   8723SM   H5G11681   4.574   0.927  14.118 -0.1837  0.8334 -2.3103
   8723SM   C6F11682   4.415   0.941  14.266 -0.0382 -0.2627 -0.2450
   8723SM   H6F11683   4.326   0.892  14.222 -0.6989 -0.1484  0.9210
   8723SM   H6G11684   4.378   1.025  14.328  0.7290 -0.1892  0.1264
   8723SM   C7F11685   4.483   0.833  14.339  0.5136  0.1088  0.6130
   8723SM   H7F11686   4.509   0.759  14.260  0.2114  0.5572  0.0887
   8723SM   H7G11687   4.422   0.785  14.418  1.0487  0.1208  1.0424
   8723SM   C8F11688   4.605   0.886  14.417  0.3857 -0.3509 -0.1371
   8723SM   H8F11689   4.667   0.953  14.354 -2.4921  1.2381 -1.4380
   8723SM   H8G11690   4.661   0.798  14.457 -1.9427 -2.5341 -1.4231
   8723SM   C9F11691   4.548   0.964  14.539  0.0269 -0.1960 -0.5032
   8723SM   H9F11692   4.494   0.892  14.603  2.7585 -1.7730  0.1709
   8723SM   H9G11693   4.473   1.039  14.504 -0.2296  0.4501  1.3347
   8723SM  C10F11694   4.655   1.021  14.625 -0.2686  0.0263  0.4409
   8723SM  H10F11695   4.731   1.069  14.560  1.2108 -1.1675  1.2012
   8723SM  H10G11696   4.701   0.929  14.667 -1.2059 -1.9255 -2.4883
   8723SM  C11F11697   4.607   1.106  14.739 -0.2201  0.0511  0.3584
   8723SM  H11F11698   4.531   1.182  14.711 -1.3073 -0.3495  2.0645
   8723SM  H11G11699   4.690   1.162  14.786  1.9730 -2.8992  0.2627
   8723SM  C12F11700   4.549   1.028  14.851  0.1655  0.2017  0.3640
   8723SM  H12F11701   4.612   0.939  14.872  1.3530  0.7927 -0.5575
   8723SM  H12G11702   4.449   1.006  14.808  0.2827  0.8678 -0.2843
   8723SM  C13F11703   4.526   1.117  14.974 -0.0391  0.5748 -0.1835
   8723SM  H13F11704   4.450   1.194  14.945 -1.5232 -0.5151  0.6603
   8723SM  H13G11705   4.612   1.168  15.022 -0.2179  0.3787  0.3528
   8723SM  C14F11706   4.459   1.035  15.086  0.5472  0.3981 -0.0916
   8723SM  H14F11707   4.516   0.943  15.108  1.4380  0.8090 -0.6297
   8723SM  H14G11708   4.359   1.009  15.045 -0.4593  0.5527  2.1376
   8723SM  C15F11709   4.430   1.112  15.215  0.9477  0.6944 -0.5517
   8723SM  H15F11710   4.520   1.166  15.251  1.8249 -0.5767 -0.7982
   8723SM  H15G11711   4.404   1.047  15.301  3.5223  1.5213  0.9730
   8723SM  C16F11712   4.330   1.221  15.205 -0.7983 -0.2142  0.8506
   8723SM  H16F11713   4.226   1.186  15.194 -0.9117 -0.0944  1.5283
   8723SM  H16G11714   4.346   1.292  15.121  1.0980 -3.1057 -1.4440
   8723SM  C17F11715   4.327   1.311  15.324  0.3195 -0.3555 -0.2190
   8723SM  H17F11716   4.251   1.391  15.309 -0.2642 -0.8816 -0.1601
   8723SM  H17G11717   4.428   1.351  15.344 -0.0648  0.3959  0.2279
   8723SM  C18F11718   4.269   1.248  15.453 -0.1358  0.7990 -0.2400
   8723SM  H18F11719   4.325   1.155  15.480  2.8037  2.7824  0.9858
   8723SM  H18G11720   4.166   1.211  15.432 -0.1091  0.4198  0.2865
   8723SM  C19F11721   4.257   1.339  15.573  0.3711  0.3038  0.8446
   8723SM  H19F11722   4.357   1.363  15.615  0.0849  0.8588  1.2356
   8723SM  H19G11723   4.199   1.278  15.645 -1.2589 -0.8573 -1.3079
   8723SM  C20F11724   4.170   1.461  15.546 -0.8320 -0.2988 -0.0739
   8723SM  H20F11725   4.071   1.433  15.504 -0.5922  0.5114 -1.2165
   8723SM  H20G11726   4.218   1.534  15.478 -1.7007  2.4390  2.0459
   8723SM  C21F11727   4.153   1.543  15.680  0.5175 -0.1667 -0.5704
   8723SM  H21F11728   4.256   1.570  15.713  1.4900 -1.9591 -1.9167
   8723SM  H21G11729   4.119   1.479  15.764 -1.0302  0.6816 -0.5237
   8723SM  C22F11730   4.067   1.671  15.676  0.3096  0.6694 -0.2050
   8723SM  H22F11731   4.062   1.706  15.781  1.1261 -0.4291  0.2297
   8723SM  H22G11732   3.964   1.646  15.643  0.7466  1.3173 -2.2127
   8723SM  C23F11733   4.120   1.782  15.588 -0.2013  0.2616 -0.0594
   8723SM  H23F11734   4.078   1.766  15.486 -0.1987  1.2090 -0.2155
   8723SM  H23G11735   4.231   1.787  15.588 -0.0748 -1.7627 -0.3789
   8723SM  H23H11736   4.074   1.877  15.622  0.4671  0.3018  0.7584
   8823SM     N11737   0.080   1.646  13.028 -0.2264  0.6634 -0.2470
   8823SM   C1511738   0.104   1.652  12.884  0.3387  0.0402  0.0999
   8823SM  H15A11739   0.022   1.615  12.825 -1.0803  3.1776 -0.1142
   8823SM  H15B11740   0.192   1.592  12.864  0.2408  0.0942 -0.5195
   8823SM  H15C11741   0.112   1.751  12.841 -0.1580 -0.4762 -1.2426
   8823SM   C1411742  -0.035   1.732  13.061 -0.0394 -0.3557  0.0033
   8823SM  H14A11743  -0.062   1.731  13.165  2.6028  0.2568  0.7806
   8823SM  H14B11744  -0.116   1.698  12.998 -1.5091  2.4162  0.2457
   8823SM  H14C11745  -0.005   1.833  13.035 -0.3976 -0.4058 -0.6294
   8823SM   C1311746   0.041   1.499  13.056 -0.2617  0.5627 -0.4457
   8823SM  H13A11747   0.045   1.482  13.163 -1.3142 -1.2251 -0.6509
   8823SM  H13B11748   0.108   1.431  13.006 -0.8525 -0.2185 -0.1832
   8823SM  H13C11749  -0.059   1.476  13.022 -0.2357 -1.1583  0.5115
   8823SM   C1211750   0.208   1.678  13.105 -0.3863 -0.1789  0.0262
   8823SM  H12A11751   0.196   1.641  13.205  1.6833 -1.1174 -0.0217
   8823SM  H12B11752   0.226   1.784  13.108 -2.5868  0.2792 -1.3584
   8823SM   C1111753   0.347   1.612  13.061 -0.2906 -0.3818 -0.1043
   8823SM  H11A11754   0.437   1.655  13.109 -0.0199  1.1745 -1.8978
   8823SM  H11B11755   0.362   1.644  12.956  1.0100  0.4357  0.3187
   8823SM     P11756   0.402   1.396  13.190  0.4688  0.5203 -0.0529
   8823SM   O1311757   0.295   1.301  13.228 -0.0077 -0.0901 -0.1063
   8823SM   O1411758   0.533   1.334  13.156  0.2402  0.2948 -0.1150
   8823SM   O1111759   0.420   1.507  13.299 -0.2420  0.2961  0.0202
   8823SM   O1211760   0.343   1.474  13.069 -0.0199  0.2737  0.7798
   8823SM   C1S11761   0.339   1.521  13.415 -0.7105  0.2114  0.2724
   8823SM   H1S11762   0.312   1.422  13.457  2.7813 -1.4865 -1.1077
   8823SM   H1T11763   0.254   1.587  13.389 -0.1065  0.8953 -0.0077
   8823SM    NF11764   0.306   1.636  13.629 -0.4169 -0.4979 -0.2973
   8823SM   HNF11765   0.273   1.729  13.645 -1.3535 -0.7243 -0.8558
   8823SM   C2S11766   0.408   1.597  13.531 -0.1436 -0.8814 -0.1625
   8823SM   H2S11767   0.480   1.529  13.582  0.3577 -0.1389  0.1453
   8823SM   C3S11768   0.489   1.721  13.490 -0.1686  0.5554  0.5198
   8823SM   H3S11769   0.420   1.791  13.438  0.7822  2.2795  1.4898
   8823SM    O311770   0.582   1.699  13.379 -0.2413  0.6334  0.0281
   8823SM   HO311771   0.541   1.634  13.323  1.2737  0.3180 -0.7776
   8823SM   C4S11772   0.560   1.790  13.602  0.1837 -0.4135  0.4121
   8823SM   H4S11773   0.488   1.860  13.648  2.1376  0.9873  1.4887
   8823SM   C5S11774   0.681   1.769  13.660 -0.5679  0.2436 -0.1985
   8823SM   H5S11775   0.736   1.680  13.625 -0.8963 -0.0531  0.0256
   8823SM   C6S11776   0.735   1.852  13.767 -0.7129 -0.0845 -0.0280
   8823SM   H6S11777   0.829   1.902  13.739  0.9531 -2.7129  0.4971
   8823SM   H6T11778   0.760   1.786  13.853  0.9911  2.1408  1.2834
   8823SM   C7S11779   0.630   1.951  13.823 -0.6132  0.1121  0.2357
   8823SM   H7S11780   0.535   1.895  13.840 -0.0512 -0.3842  1.8839
   8823SM   H7T11781   0.603   2.035  13.755 -0.3568 -0.1764 -0.2304
   8823SM   C8S11782   0.655   2.004  13.964  0.1620  1.4065 -0.4588
   8823SM   H8S11783   0.763   2.023  13.976  0.7440 -1.1720 -0.9963
   8823SM   H8T11784   0.646   1.918  14.033 -0.3469  0.6706 -1.4105
   8823SM   C9S11785   0.565   2.117  13.995  1.1047 -0.1779 -0.6611
   8823SM   H9S11786   0.457   2.093  14.005  0.8350  1.3423  0.6056
   8823SM   H9T11787   0.567   2.197  13.918  1.3820 -0.3723 -0.8577
   8823SM  C10S11788   0.614   2.171  14.135  0.6766  0.3759  0.6961
   8823SM  H10S11789   0.718   2.210  14.132  1.0622 -0.7064 -0.7577
   8823SM  H10T11790   0.610   2.089  14.210 -0.2656 -1.3584 -1.1582
   8823SM  C11S11791   0.530   2.290  14.185  0.2638  0.0376  0.0319
   8823SM  H11S11792   0.428   2.250  14.204  1.1066 -1.4266  1.9352
   8823SM  H11T11793   0.535   2.375  14.114 -0.3770  1.8491  2.0386
   8823SM  C12S11794   0.593   2.335  14.322 -0.1341 -0.1215 -0.0035
   8823SM  H12S11795   0.703   2.331  14.307  0.0565  2.3427  0.2986
   8823SM  H12T11796   0.571   2.267  14.407 -1.3668  2.1668  1.6197
   8823SM  C13S11797   0.563   2.471  14.361  0.0277 -0.1669 -0.5563
   8823SM  H13S11798   0.529   2.538  14.280 -1.2059  0.6076  0.5627
   8823SM  H13T11799   0.640   2.522  14.423 -1.0644  1.3642 -0.4124
   8823SM  C14S11800   0.444   2.473  14.462  0.5421  0.5011  0.6753
   8823SM  H14S11801   0.487   2.425  14.553  4.1962  0.3371 -0.9352
   8823SM  H14T11802   0.354   2.418  14.430  0.0625  1.8674 -0.4140
   8823SM  C15S11803   0.395   2.607  14.501 -0.4984  0.2061 -0.3700
   8823SM  H15S11804   0.358   2.675  14.422 -0.2873  0.1293 -0.5364
   8823SM  H15T11805   0.474   2.668  14.549 -0.3333  2.3766 -3.2114
   8823SM  C16S11806   0.284   2.582  14.603 -0.4535 -0.1710  0.1250
   8823SM  H16S11807   0.313   2.503  14.675 -0.0318 -0.4309 -0.3219
   8823SM  H16T11808   0.200   2.541  14.544 -1.2863 -0.4515  1.4662
   8823SM  C17S11809   0.235   2.708  14.683  0.9251  0.0240 -0.1907
   8823SM  H17S11810   0.237   2.785  14.603 -0.0360 -1.9399 -2.1759
   8823SM  H17T11811   0.315   2.740  14.754 -0.3971  0.5862  1.0872
   8823SM  C18S11812   0.103   2.686  14.766  0.2492  0.2248 -0.0482
   8823SM  H18S11813   0.115   2.592  14.824 -1.2859 -0.8202 -1.3210
   8823SM  H18T11814   0.025   2.666  14.690 -0.3703 -1.3437  0.9634
   8823SM  H18U11815   0.079   2.772  14.832  0.1305 -1.4725  2.2476
   8823SM   C1F11816   0.221   1.547  13.690 -0.0219 -0.4047 -0.0669
   8823SM    OF11817   0.229   1.428  13.681 -0.3897 -0.0316  0.0082
   8823SM   C2F11818   0.104   1.609  13.777  0.1367  0.1855  0.5002
   8823SM   H2F11819   0.010   1.620  13.719  1.1059  2.2999 -0.8105
   8823SM   H2G11820   0.135   1.713  13.802  2.0245  0.0239 -0.9405
   8823SM   C3F11821   0.061   1.527  13.897 -0.1593  0.0423  0.2696
   8823SM   H3F11822   0.024   1.429  13.862 -0.3255  0.7040 -1.5441
   8823SM   H3G11823  -0.023   1.579  13.947 -1.0677 -0.4440 -0.7126
   8823SM   C4F11824   0.174   1.515  13.998 -0.3133  0.1585 -0.0112
   8823SM   H4F11825   0.232   1.610  13.993  1.3312 -0.7011  1.4364
   8823SM   H4G11826   0.244   1.436  13.963 -1.9091 -1.5765  0.5679
   8823SM   C5F11827   0.129   1.485  14.136  0.8606  0.0823 -0.3166
   8823SM   H5F11828   0.095   1.381  14.155 -0.4727  0.4082 -0.7936
   8823SM   H5G11829   0.036   1.543  14.159 -0.3552 -1.2321 -1.7182
   8823SM   C6F11830   0.245   1.502  14.232 -0.5857 -0.7695 -0.4828
   8823SM   H6F11831   0.278   1.606  14.211  0.0886 -0.7007  0.8247
   8823SM   H6G11832   0.327   1.430  14.210 -0.0138  0.2674 -1.9775
   8823SM   C7F11833   0.198   1.496  14.382  0.6203 -0.0327  0.0938
   8823SM   H7F11834   0.143   1.401  14.398 -1.5157  1.2896  1.1021
   8823SM   H7G11835   0.137   1.587  14.401 -0.6446 -0.7987 -0.1318
   8823SM   C8F11836   0.317   1.494  14.476 -0.3203  0.0573  0.0591
   8823SM   H8F11837   0.396   1.569  14.449  0.0989  0.3082  1.8850
   8823SM   H8G11838   0.369   1.398  14.456  0.6574  0.1908  1.7936
   8823SM   C9F11839   0.282   1.514  14.620  0.6595  0.3345 -0.2774
   8823SM   H9F11840   0.199   1.448  14.651  0.1481  1.7790  1.5983
   8823SM   H9G11841   0.239   1.616  14.633 -2.3403 -1.0674  2.1167
   8823SM  C10F11842   0.403   1.498  14.711  0.2896 -0.5598  0.0767
   8823SM  H10F11843   0.490   1.554  14.670  1.4649  0.1354  3.1993
   8823SM  H10G11844   0.440   1.394  14.703  1.4713 -0.1904  0.5002
   8823SM  C11F11845   0.402   1.528  14.863  0.2203 -0.5096  0.4621
   8823SM  H11F11846   0.493   1.480  14.905  0.2971 -1.9903 -1.2726
   8823SM  H11G11847   0.313   1.474  14.905 -1.5478  1.0138 -1.1456
   8823SM  C12F11848   0.388   1.670  14.905 -0.0264  0.2529  0.0535
   8823SM  H12F11849   0.296   1.702  14.852 -0.3086 -1.6013 -0.6571
   8823SM  H12G11850   0.477   1.729  14.874 -0.3789 -0.4019 -2.3434
   8823SM  C13F11851   0.373   1.680  15.058 -0.0716  0.0131  0.3679
   8823SM  H13F11852   0.469   1.650  15.106  0.2807  0.1909 -0.2223
   8823SM  H13G11853   0.292   1.607  15.081 -0.0468 -1.0797 -2.5827
   8823SM  C14F11854   0.347   1.818  15.102  0.4440  0.3391 -1.2196
   8823SM  H14F11855   0.266   1.864  15.041  1.1684  0.2235 -2.2943
   8823SM  H14G11856   0.437   1.884  15.100  1.1644 -0.6339 -1.4603
   8823SM  C15F11857   0.291   1.822  15.250  0.2678 -0.1882  0.6198
   8823SM  H15F11858   0.225   1.734  15.267  1.7612 -0.8508  3.7628
   8823SM  H15G11859   0.241   1.919  15.270  1.0711  0.0738  1.4181
   8823SM  C16F11860   0.389   1.814  15.365 -0.1113  0.5088  0.2700
   8823SM  H16F11861   0.444   1.910  15.357  1.0630 -0.1324  0.4280
   8823SM  H16G11862   0.464   1.734  15.353 -0.4057  0.1248  0.9599
   8823SM  C17F11863   0.316   1.802  15.500 -0.7567 -0.2980  0.3102
   8823SM  H17F11864   0.256   1.709  15.499  0.1345 -0.9131  1.4274
   8823SM  H17G11865   0.246   1.888  15.508 -1.4600 -0.9018  0.7075
   8823SM  C18F11866   0.411   1.798  15.625 -0.1053 -0.6379  0.0740
   8823SM  H18F11867   0.464   1.891  15.654 -1.6091  0.3147 -0.0980
   8823SM  H18G11868   0.495   1.730  15.601  1.5901  0.9119  1.3507
   8823SM  C19F11869   0.346   1.746  15.755 -0.1085  0.2797  0.2814
   8823SM  H19F11870   0.301   1.648  15.732 -0.7910  0.4238  0.9341
   8823SM  H19G11871   0.267   1.811  15.798 -1.6757 -1.8589  0.8015
   8823SM  C20F11872   0.454   1.726  15.864  0.7458 -0.4157 -0.1275
   8823SM  H20F11873   0.536   1.684  15.801  0.8484  2.1440 -1.8539
   8823SM  H20G11874   0.422   1.660  15.947  0.8914  0.7246  0.8666
   8823SM  C21F11875   0.496   1.854  15.940  0.9109  0.2614 -0.0420
   8823SM  H21F11876   0.530   1.930  15.866 -1.8164  2.7501  1.0471
   8823SM  H21G11877   0.582   1.815  15.998  1.8154  3.7461  1.1586
   8823SM  C22F11878   0.395   1.918  16.038  0.0353  0.3331 -0.0482
   8823SM  H22F11879   0.463   1.959  16.116 -0.3519  0.1660  0.3843
   8823SM  H22G11880   0.337   1.835  16.084  0.5759  0.4755  0.9249
   8823SM  C23F11881   0.294   2.018  15.995 -0.0377 -0.9263 -0.0117
   8823SM  H23F11882   0.215   1.978  15.928 -1.5186  0.1140  1.0486
   8823SM  H23G11883   0.342   2.095  15.930 -2.4522 -0.8379 -1.8460
   8823SM  H23H11884   0.243   2.063  16.083 -0.8610 -0.5481 -0.6669
   8923SM     N11885   5.051   1.306  13.213  0.7306  0.5793 -0.1128
   8923SM   C1511886   5.012   1.262  13.356  0.2644  0.2735  0.0341
   8923SM  H15A11887   5.028   1.155  13.361  1.2902  0.1481 -3.4373
   8923SM  H15B11888   4.908   1.288  13.370 -0.2717 -1.3059 -0.7449
   8923SM  H15C11889   5.081   1.308  13.425  0.9789  1.1256 -1.2009
   8923SM   C1411890   4.985   1.222  13.113  0.1068  0.0163 -0.2842
   8923SM  H14A11891   4.877   1.235  13.114 -0.2282 -2.4310  1.3704
   8923SM  H14B11892   4.999   1.116  13.127  4.7062  0.4570 -0.2434
   8923SM  H14C11893   5.018   1.245  13.013  1.2682 -0.5372 -0.0454
   8923SM   C1311894   5.007   1.440  13.188 -0.3990 -0.7325  0.4358
   8923SM  H13A11895   4.900   1.458  13.184 -0.3571  0.0195  2.0260
   8923SM  H13B11896   5.052   1.475  13.096  1.4976 -2.8069  0.5149
   8923SM  H13C11897   5.045   1.514  13.258 -0.9576 -0.5243  0.5275
   8923SM   C1211898   5.202   1.286  13.185 -0.3275  0.0000 -0.7205
   8923SM  H12A11899   5.216   1.315  13.082 -2.1674  0.0093 -1.0106
   8923SM  H12B11900   5.230   1.182  13.188  1.3140  0.2916 -3.1158
   8923SM   C1111901   5.312   1.371  13.262 -0.5856  0.6396  0.0327
   8923SM  H11A11902   5.411   1.319  13.262 -0.1115  1.4022  2.3887
   8923SM  H11B11903   5.277   1.370  13.367 -2.5910  0.4075 -0.6019
   8923SM     P11904   5.402   1.538  13.090  0.0215 -0.0748  0.3046
   8923SM   O1311905   5.399   1.421  13.007 -0.9777 -0.2146  0.2779
   8923SM   O1411906   5.355   1.668  13.039 -0.1810 -0.4788 -0.6049
   8923SM   O1111907   5.544   1.561  13.159 -0.2377  0.7441  0.1223
   8923SM   O1211908   5.309   1.505  13.215  0.1196  0.3591  0.1715
   8923SM   C1S11909   5.558   1.649  13.270 -0.4854  1.0253  1.2121
   8923SM   H1S11910   5.459   1.678  13.310  0.5285  4.4273  1.6456
   8923SM   H1T11911   5.602   1.747  13.240  0.8717 -0.1413 -0.8841
   8923SM    NF11912   5.652   1.659  13.506 -0.0181  0.3578 -0.7184
   8923SM   HNF11913   5.739   1.701  13.530  1.1300 -3.4172  2.9072
   8923SM   C2S11914   5.644   1.580  13.384  0.5359 -0.1400 -0.1762
   8923SM   H2S11915   5.587   1.487  13.407 -2.0898  1.2730 -0.5018
   8923SM   C3S11916   5.784   1.530  13.333 -0.0018  0.3869  0.7238
   8923SM   H3S11917   5.846   1.618  13.305 -0.9204  0.7718 -0.1361
   8923SM    O311918   5.777   1.447  13.217  0.5469 -0.1528  0.1672
   8923SM   HO311919   5.692   1.477  13.184 -0.2357 -2.8307 -0.5132
   8923SM   C4S11920   5.857   1.445  13.435 -0.3297 -0.2690  0.2158
   8923SM   H4S11921   5.803   1.352  13.459 -1.2541  0.0905 -0.4227
   8923SM   C5S11922   5.974   1.479  13.497  0.3314  1.0903  0.2371
   8923SM   H5S11923   6.030   1.566  13.462  0.2141  1.6937  1.5037
   8923SM   C6S11924   6.036   1.384  13.605  0.1999 -0.2525 -0.2685
   8923SM   H6S11925   6.116   1.450  13.645 -3.5597  3.1428  2.4069
   8923SM   H6T11926   6.077   1.296  13.551  0.1582 -0.3714 -0.1071
   8923SM   C7S11927   5.948   1.357  13.727  0.1579 -0.7820 -1.1890
   8923SM   H7S11928   5.996   1.286  13.798 -0.4639 -0.6641 -0.6352
   8923SM   H7T11929   5.855   1.306  13.693 -1.6015  1.0904  0.5408
   8923SM   C8S11930   5.894   1.486  13.803  0.1359  0.5973 -0.3273
   8923SM   H8S11931   5.844   1.555  13.732  1.4357  1.1634 -0.7185
   8923SM   H8T11932   5.974   1.541  13.857  0.2868 -0.9040  1.0529
   8923SM   C9S11933   5.786   1.453  13.914 -0.6739 -1.2771 -0.6788
   8923SM   H9S11934   5.744   1.353  13.891 -0.4297 -1.4727 -0.2848
   8923SM   H9T11935   5.703   1.528  13.911  0.5358  0.0728 -2.1082
   8923SM  C10S11936   5.842   1.440  14.058 -0.3416 -0.3774  0.1833
   8923SM  H10S11937   5.893   1.535  14.084  0.3649 -0.7923  0.3437
   8923SM  H10T11938   5.911   1.353  14.054 -0.8907 -0.7770 -1.1481
   8923SM  C11S11939   5.738   1.410  14.167  0.1967  0.9412 -0.1686
   8923SM  H11S11940   5.699   1.513  14.174 -0.3018  0.7250  0.3554
   8923SM  H11T11941   5.787   1.392  14.265  0.2012 -0.0981 -0.3484
   8923SM  C12S11942   5.628   1.309  14.132  0.0067 -0.3931 -0.0930
   8923SM  H12S11943   5.688   1.227  14.087  1.5507  1.9513 -2.6934
   8923SM  H12T11944   5.571   1.355  14.048  2.8017  2.0250 -0.8489
   8923SM  C13S11945   5.545   1.256  14.252 -0.0007 -0.0524  0.0679
   8923SM  H13S11946   5.610   1.226  14.337 -0.3691  2.8316  1.5091
   8923SM  H13T11947   5.478   1.178  14.212 -2.2778  1.7318  0.1881
   8923SM  C14S11948   5.448   1.368  14.308  0.1778 -0.1486  0.5406
   8923SM  H14S11949   5.426   1.440  14.226 -0.0044 -1.2455 -0.3877
   8923SM  H14T11950   5.511   1.420  14.383 -1.6092  0.7968  1.4769
   8923SM  C15S11951   5.319   1.318  14.376  0.6001 -0.7143  0.1364
   8923SM  H15S11952   5.352   1.228  14.432  2.5748 -1.1278 -1.5733
   8923SM  H15T11953   5.245   1.284  14.300  0.0451  3.1335 -1.2526
   8923SM  C16S11954   5.240   1.416  14.462 -0.1586  0.2777 -0.1445
   8923SM  H16S11955   5.210   1.505  14.403 -1.4903  0.2176  0.4029
   8923SM  H16T11956   5.321   1.444  14.533  0.3382 -0.4965 -0.3921
   8923SM  C17S11957   5.133   1.351  14.555  0.2946 -0.1103 -0.2366
   8923SM  H17S11958   5.165   1.247  14.580 -1.5943 -0.8637 -0.7110
   8923SM  H17T11959   5.040   1.334  14.497 -0.7174  2.2424  0.5769
   8923SM  C18S11960   5.104   1.436  14.673 -0.1967  0.5041  0.2207
   8923SM  H18S11961   5.002   1.408  14.708  0.4183 -0.9333  0.9354
   8923SM  H18T11962   5.102   1.541  14.637 -0.1105  0.5490  0.3438
   8923SM  H18U11963   5.177   1.425  14.756 -0.3322 -2.9010  0.0025
   8923SM   C1F11964   5.547   1.691  13.578  0.3827  0.4576 -0.5276
   8923SM    OF11965   5.435   1.661  13.545  0.2013  0.1443  0.6372
   8923SM   C2F11966   5.578   1.759  13.704 -0.8263 -0.0337 -0.9234
   8923SM   H2F11967   5.579   1.867  13.680  1.0164  0.4459  0.9524
   8923SM   H2G11968   5.677   1.727  13.742 -1.2661 -0.4924 -0.1244
   8923SM   C3F11969   5.470   1.741  13.813  0.2431 -0.1163  0.6631
   8923SM   H3F11970   5.447   1.633  13.826  0.0680  0.0075  1.4110
   8923SM   H3G11971   5.377   1.790  13.777  2.7990  3.1781 -2.1488
   8923SM   C4F11972   5.513   1.791  13.953  0.6070 -0.1219  0.3204
   8923SM   H4F11973   5.570   1.886  13.956  0.1945  0.1100  1.0844
   8923SM   H4G11974   5.584   1.711  13.984  1.3727 -0.2926 -1.6956
   8923SM   C5F11975   5.398   1.818  14.059 -0.0066  0.4075 -0.1014
   8923SM   H5F11976   5.354   1.718  14.077  0.0825  0.3472 -0.2194
   8923SM   H5G11977   5.319   1.886  14.018 -0.6999  0.3588  1.1232
   8923SM   C6F11978   5.460   1.868  14.196  0.0390  0.0510  0.4389
   8923SM   H6F11979   5.497   1.972  14.186  4.1076 -0.9942  2.5387
   8923SM   H6G11980   5.551   1.808  14.218  2.2696  1.9078 -2.7871
   8923SM   C7F11981   5.350   1.862  14.302  0.0537 -0.0049 -0.9257
   8923SM   H7F11982   5.313   1.758  14.311 -0.1840  0.2140  1.0136
   8923SM   H7G11983   5.263   1.929  14.282  0.1267  1.4635  2.7781
   8923SM   C8F11984   5.401   1.888  14.439  0.2216  0.2893 -0.6009
   8923SM   H8F11985   5.322   1.948  14.489 -1.2568 -0.7050 -1.6458
   8923SM   H8G11986   5.501   1.934  14.436  0.6839 -0.3710  2.0538
   8923SM   C9F11987   5.414   1.762  14.538  0.0992 -1.0198  0.6209
   8923SM   H9F11988   5.483   1.684  14.500  0.9048  0.1078 -0.3121
   8923SM   H9G11989   5.315   1.719  14.564  0.9150 -2.9370  0.7236
   8923SM  C10F11990   5.465   1.807  14.680  0.3202 -0.6433  0.2107
   8923SM  H10F11991   5.405   1.894  14.712  1.5913 -0.2507  1.6616
   8923SM  H10G11992   5.568   1.847  14.671 -0.8183  2.3980 -0.3166
   8923SM  C11F11993   5.454   1.690  14.775 -0.6705 -0.4118  0.0711
   8923SM  H11F11994   5.492   1.598  14.726 -1.8756 -1.6335  1.3402
   8923SM  H11G11995   5.347   1.670  14.798 -0.9887  2.3691  1.3679
   8923SM  C12F11996   5.522   1.716  14.912 -0.4275 -0.0571  0.6941
   8923SM  H12F11997   5.470   1.806  14.951  1.9124  0.8034  2.0195
   8923SM  H12G11998   5.631   1.732  14.910 -0.4070 -0.2504 -0.2028
   8923SM  C13F11999   5.491   1.606  15.018 -0.4153  0.8008  0.0701
   8923SM  H13F12000   5.513   1.513  14.961  1.6653  1.9903 -1.2009
   8923SM  H13G12001   5.381   1.623  15.023 -0.4359  0.3423  1.9475
   8923SM  C14F12002   5.560   1.626  15.150 -0.2821  0.7973  0.6033
   8923SM  H14F12003   5.516   1.707  15.212  1.7497  3.4572 -1.1861
   8923SM  H14G12004   5.663   1.659  15.126 -0.3362  0.6568  0.1563
   8923SM  C15F12005   5.578   1.499  15.236  0.0442  0.1424 -0.0875
   8923SM  H15F12006   5.480   1.458  15.270 -0.2551  2.6497  2.4827
   8923SM  H15G12007   5.632   1.531  15.328  1.3632  1.9697 -1.4426
   8923SM  C16F12008   5.659   1.390  15.170 -0.1461  0.8430 -0.0078
   8923SM  H16F12009   5.759   1.422  15.131 -0.6756  1.9147 -0.5285
   8923SM  H16G12010   5.606   1.353  15.080  1.0280 -0.2238 -0.3075
   8923SM  C17F12011   5.684   1.264  15.260 -0.0551 -0.5730  0.0167
   8923SM  H17F12012   5.760   1.207  15.202  0.6748  1.8891 -1.5774
   8923SM  H17G12013   5.590   1.207  15.278 -2.1256  2.8650  0.9498
   8923SM  C18F12014   5.759   1.301  15.392 -0.1334 -0.1025  0.2555
   8923SM  H18F12015   5.676   1.334  15.458 -0.3862 -1.3079  0.5602
   8923SM  H18G12016   5.818   1.394  15.375  0.3553 -0.3763  0.4438
   8923SM  C19F12017   5.837   1.187  15.454 -0.2753 -0.4350  0.3344
   8923SM  H19F12018   5.939   1.183  15.409 -0.3379 -1.2538  0.2552
   8923SM  H19G12019   5.794   1.086  15.440 -0.2779 -0.2557 -1.1288
   8923SM  C20F12020   5.859   1.210  15.600  0.3015 -0.5291 -0.3029
   8923SM  H20F12021   5.761   1.230  15.650  0.2574 -1.6508  0.0780
   8923SM  H20G12022   5.916   1.299  15.634 -1.1276  0.1628  0.4082
   8923SM  C21F12023   5.936   1.098  15.667  0.6008  0.0294 -0.3390
   8923SM  H21F12024   6.040   1.088  15.628  0.6099 -2.1592  0.0985
   8923SM  H21G12025   5.883   1.005  15.636  1.2834 -0.9578  1.3039
   8923SM  C22F12026   5.949   1.115  15.819  0.7155 -0.2916 -0.0812
   8923SM  H22F12027   5.848   1.132  15.862  1.5215  3.7210  0.5502
   8923SM  H22G12028   6.000   1.212  15.834 -1.6689  0.8057  1.5451
   8923SM  C23F12029   6.015   1.002  15.892  0.0351  0.3723  0.2535
   8923SM  H23F12030   6.126   1.004  15.896  0.2110 -3.0690 -0.2318
   8923SM  H23G12031   5.980   0.910  15.841  1.5607 -0.6277  0.9455
   8923SM  H23H12032   5.974   1.008  15.996 -0.2217  1.6726  0.0955
   9023SM     N12033   5.842   0.368  12.693 -0.5324  0.5604 -0.0448
   9023SM   C1512034   5.867   0.381  12.543 -0.1731  0.5952  0.0257
   9023SM  H15A12035   5.925   0.295  12.514  1.5336  1.2742  1.2066
   9023SM  H15B12036   5.926   0.470  12.525  2.1157 -0.7709  0.3796
   9023SM  H15C12037   5.779   0.367  12.482  0.0660 -1.6308  0.1079
   9023SM   C1412038   5.805   0.228  12.724 -0.0239 -0.3630 -0.1346
   9023SM  H14A12039   5.705   0.195  12.699  0.7485 -1.3586 -2.1277
   9023SM  H14B12040   5.811   0.204  12.829  2.5310 -0.7653 -0.3035
   9023SM  H14C12041   5.872   0.163  12.671 -1.1124  0.7609 -3.0899
   9023SM   C1312042   5.967   0.397  12.762 -0.2456  0.2747 -0.1523
   9023SM  H13A12043   6.049   0.334  12.730  0.3984  0.1371  1.6539
   9023SM  H13B12044   5.967   0.381  12.869 -0.1287 -0.5976 -0.2782
   9023SM  H13C12045   5.997   0.500  12.753 -1.9930  0.7729 -0.6254
   9023SM   C1212046   5.735   0.466  12.738  0.0928  0.1829  0.0692
   9023SM  H12A12047   5.645   0.449  12.682  1.0815  1.7012 -2.1289
   9023SM  H12B12048   5.761   0.568  12.713 -0.6607  0.4703  0.4384
   9023SM   C1112049   5.708   0.476  12.891  0.5230 -0.0340 -0.9232
   9023SM  H11A12050   5.709   0.375  12.937 -1.5340  0.0737 -0.5349
   9023SM  H11B12051   5.603   0.513  12.897  0.8182  1.0065 -1.8569
   9023SM     P12052   5.781   0.717  12.924 -0.3541 -0.2432 -0.3436
   9023SM   O1312053   5.907   0.778  12.979 -0.0648 -0.0949 -0.2962
   9023SM   O1412054   5.737   0.749  12.790 -0.3183 -0.1893  0.6448
   9023SM   O1112055   5.669   0.766  13.018 -0.3355 -0.1798  0.1326
   9023SM   O1212056   5.807   0.562  12.943  0.6024 -0.3047 -0.1025
   9023SM   C1S12057   5.636   0.693  13.141  0.1434 -0.1998  0.4534
   9023SM   H1S12058   5.616   0.584  13.134  0.3530 -0.1718 -0.9177
   9023SM   H1T12059   5.538   0.734  13.173  0.5642  2.5672 -1.4091
   9023SM    NF12060   5.681   0.665  13.380 -0.2674  0.0356  0.3947
   9023SM   HNF12061   5.608   0.714  13.426  1.0285  1.3532  1.1217
   9023SM   C2S12062   5.730   0.728  13.257 -0.3457  0.0020 -0.4734
   9023SM   H2S12063   5.833   0.694  13.232  0.2328  0.8149  0.6977
   9023SM   C3S12064   5.746   0.887  13.274  1.1501  0.5406  0.0045
   9023SM   H3S12065   5.641   0.922  13.285  1.4174  0.8114  2.0623
   9023SM    O312066   5.794   0.968  13.165 -0.1106 -0.9832  0.1032
   9023SM   HO312067   5.802   0.904  13.094 -1.4371 -0.2920 -0.7016
   9023SM   C4S12068   5.800   0.927  13.412 -0.6216 -0.7334  0.4245
   9023SM   H4S12069   5.721   0.931  13.489 -1.1308 -0.7551 -0.0984
   9023SM   C5S12070   5.932   0.967  13.450 -0.2451 -0.5212  0.2257
   9023SM   H5S12071   6.015   0.964  13.378 -0.5254 -1.3573 -0.0719
   9023SM   C6S12072   5.967   1.020  13.584  0.4173 -0.2477 -0.1597
   9023SM   H6S12073   5.882   1.080  13.624 -0.6020 -2.2436  0.8049
   9023SM   H6T12074   6.052   1.091  13.593 -0.1196  0.5802 -1.3426
   9023SM   C7S12075   5.985   0.905  13.681 -0.8640  0.9595  0.6329
   9023SM   H7S12076   6.072   0.840  13.658 -2.1126 -0.7728  0.5417
   9023SM   H7T12077   5.891   0.845  13.680 -0.7436  0.7574  1.1809
   9023SM   C8S12078   6.006   0.961  13.825  0.4368 -0.1046  0.7631
   9023SM   H8S12079   5.937   1.048  13.834  1.3309  0.7259 -0.2267
   9023SM   H8T12080   6.113   0.990  13.832  0.1127  1.1073  1.0964
   9023SM   C9S12081   5.999   0.857  13.940  0.5193  0.3754  0.5089
   9023SM   H9S12082   6.083   0.788  13.916  0.2834  0.7804 -1.7366
   9023SM   H9T12083   5.915   0.784  13.937  0.6962  0.1796 -1.7055
   9023SM  C10S12084   6.024   0.912  14.081  0.8272  0.4231 -0.2972
   9023SM  H10S12085   6.131   0.940  14.078  0.9426 -0.1238 -2.0278
   9023SM  H10T12086   6.018   0.839  14.165  0.4100  1.6249  0.7627
   9023SM  C11S12087   5.933   1.033  14.119 -0.2040  0.2118 -0.1360
   9023SM  H11S12088   5.826   1.004  14.133  0.1574 -2.3753 -2.1719
   9023SM  H11T12089   5.930   1.112  14.040 -2.7943 -1.6253 -2.0633
   9023SM  C12S12090   5.970   1.097  14.256  0.3537  0.6362  0.3512
   9023SM  H12S12091   5.901   1.181  14.280 -2.1609 -1.6769  1.7935
   9023SM  H12T12092   6.069   1.146  14.268 -0.1223  1.8499 -0.4289
   9023SM  C13S12093   5.970   0.994  14.370  0.0569  0.5558  0.2232
   9023SM  H13S12094   6.060   0.929  14.369  0.2577  0.8055  1.0278
   9023SM  H13T12095   5.872   0.943  14.369 -0.1554  0.9330  0.9740
   9023SM  C14S12096   5.988   1.073  14.506  0.2275 -0.7848 -0.0844
   9023SM  H14S12097   5.913   1.155  14.511  0.3283 -0.7600  1.9804
   9023SM  H14T12098   6.086   1.123  14.491 -1.1452  1.3659 -3.0060
   9023SM  C15S12099   5.957   0.992  14.631  0.5313  0.7188  0.8438
   9023SM  H15S12100   5.858   0.944  14.614  0.7482  0.1442  1.1476
   9023SM  H15T12101   5.949   1.062  14.717 -0.1486  0.8882  0.6422
   9023SM  C16S12102   6.055   0.882  14.666 -0.2525  0.1599  0.4180
   9023SM  H16S12103   6.155   0.927  14.685 -0.0005 -1.1550  2.5282
   9023SM  H16T12104   6.070   0.800  14.592  0.4349  0.4264  0.2600
   9023SM  C17S12105   6.027   0.821  14.802 -0.2273 -0.1025 -0.3884
   9023SM  H17S12106   6.063   0.716  14.800  0.2249  0.0600 -0.9571
   9023SM  H17T12107   5.918   0.816  14.819 -0.4227  0.4045 -1.4113
   9023SM  C18S12108   6.105   0.890  14.912 -0.3176  0.6157  0.9353
   9023SM  H18S12109   6.085   0.999  14.911 -1.7819  0.3548  0.2860
   9023SM  H18T12110   6.212   0.868  14.888 -0.7683 -2.1354  1.1560
   9023SM  H18U12111   6.074   0.840  15.006 -1.2057 -2.5591 -0.8880
   9023SM   C1F12112   5.696   0.540  13.410  0.1777 -0.1193  0.6339
   9023SM    OF12113   5.752   0.465  13.325  0.4559 -0.1819 -0.0958
   9023SM   C2F12114   5.643   0.510  13.542  0.9510 -0.1194 -0.2317
   9023SM   H2F12115   5.533   0.518  13.529  1.0163  0.5970 -0.3365
   9023SM   H2G12116   5.695   0.566  13.622  1.7341 -2.3346  0.8891
   9023SM   C3F12117   5.647   0.354  13.585 -0.4407 -0.2159  0.3899
   9023SM   H3F12118   5.747   0.310  13.605 -0.3644 -0.1260  0.2078
   9023SM   H3G12119   5.605   0.292  13.503 -0.0344 -0.8257  0.6355
   9023SM   C4F12120   5.559   0.327  13.707 -0.2436 -0.3078 -0.6986
   9023SM   H4F12121   5.518   0.226  13.686  2.7843 -1.5056 -1.4599
   9023SM   H4G12122   5.475   0.397  13.721  0.5440  0.6150 -0.4834
   9023SM   C5F12123   5.640   0.328  13.841 -0.2690 -0.2329 -0.8039
   9023SM   H5F12124   5.705   0.418  13.848  0.4105 -0.7488 -0.3533
   9023SM   H5G12125   5.707   0.241  13.857  2.3719  2.2112  3.2893
   9023SM   C6F12126   5.539   0.329  13.961  0.1524 -0.3506  0.3512
   9023SM   H6F12127   5.459   0.253  13.969 -2.5098  2.1134 -1.0890
   9023SM   H6G12128   5.479   0.420  13.940  2.1913  0.6597 -1.4440
   9023SM   C7F12129   5.615   0.357  14.097 -0.5466  0.6158  0.1752
   9023SM   H7F12130   5.666   0.456  14.102 -2.6247  1.7413  0.1732
   9023SM   H7G12131   5.682   0.273  14.128 -0.9048  0.6586  1.0918
   9023SM   C8F12132   5.514   0.368  14.209  0.0088  0.0836 -0.2204
   9023SM   H8F12133   5.456   0.273  14.206 -1.7407  1.1135 -3.1395
   9023SM   H8G12134   5.439   0.447  14.185  0.7064  1.1032  0.8871
   9023SM   C9F12135   5.584   0.399  14.346  0.0213 -0.4884  0.5145
   9023SM   H9F12136   5.618   0.504  14.361  0.7211 -0.4279 -1.3013
   9023SM   H9G12137   5.672   0.331  14.355  0.4163 -0.6996 -3.4207
   9023SM  C10F12138   5.496   0.363  14.471  0.4618 -0.7733 -0.1263
   9023SM  H10F12139   5.429   0.283  14.432 -0.7525  0.1756 -0.0656
   9023SM  H10G12140   5.415   0.434  14.500 -0.8548 -1.2026 -2.4417
   9023SM  C11F12141   5.576   0.306  14.585  0.0310  0.2588  0.1529
   9023SM  H11F12142   5.635   0.217  14.554 -1.2138 -1.1928  1.7313
   9023SM  H11G12143   5.501   0.270  14.659 -0.2861 -0.2112 -0.3814
   9023SM  C12F12144   5.664   0.407  14.661 -0.0393  0.3709 -1.1856
   9023SM  H12F12145   5.727   0.461  14.587  0.5147  0.7887 -0.4286
   9023SM  H12G12146   5.729   0.342  14.724 -1.1638  0.4414  0.0847
   9023SM  C13F12147   5.575   0.496  14.753  0.2840 -0.5461  0.0933
   9023SM  H13F12148   5.554   0.450  14.852 -0.0098  1.9206  1.2546
   9023SM  H13G12149   5.480   0.520  14.701  0.0390 -0.2229  0.6819
   9023SM  C14F12150   5.624   0.636  14.789 -0.2316 -0.0701 -0.0190
   9023SM  H14F12151   5.626   0.709  14.705  1.8430  1.3745  1.1801
   9023SM  H14G12152   5.730   0.624  14.820 -0.4475 -0.2461  0.6540
   9023SM  C15F12153   5.542   0.703  14.898  0.0401 -0.5986 -0.2138
   9023SM  H15F12154   5.563   0.645  14.991 -0.5807  0.3415  0.5348
   9023SM  H15G12155   5.433   0.699  14.875 -0.7604 -2.1239  3.2514
   9023SM  C16F12156   5.582   0.854  14.925 -0.4327  0.4902  0.7408
   9023SM  H16F12157   5.693   0.854  14.919 -0.3921 -1.4372  0.8878
   9023SM  H16G12158   5.548   0.896  15.022  1.1218  1.5220  0.8889
   9023SM  C17F12159   5.530   0.963  14.823  0.2811  0.2478  0.2991
   9023SM  H17F12160   5.420   0.965  14.808  0.4048 -0.4808 -0.8435
   9023SM  H17G12161   5.576   0.930  14.728  1.2835  1.3546  0.3803
   9023SM  C18F12162   5.590   1.098  14.851 -0.2015 -0.1026 -0.2516
   9023SM  H18F12163   5.701   1.094  14.848 -0.0555  2.5374 -0.5674
   9023SM  H18G12164   5.555   1.147  14.944 -1.0653 -0.4790 -0.3751
   9023SM  C19F12165   5.584   1.189  14.734 -0.0168  0.0481  0.1078
   9023SM  H19F12166   5.480   1.226  14.717 -0.3304 -1.9721 -3.4973
   9023SM  H19G12167   5.615   1.140  14.639 -0.3912 -0.3195  0.1705
   9023SM  C20F12168   5.675   1.310  14.753  0.2300  0.0789  0.2526
   9023SM  H20F12169   5.782   1.286  14.770  0.1287  0.2029  1.0833
   9023SM  H20G12170   5.640   1.371  14.839  1.5403 -0.9318  1.5495
   9023SM  C21F12171   5.673   1.387  14.618 -0.3255  0.1146 -0.0361
   9023SM  H21F12172   5.572   1.429  14.600  0.1436  1.8460  1.0869
   9023SM  H21G12173   5.694   1.309  14.543 -1.7130 -1.5794  1.2558
   9023SM  C22F12174   5.768   1.505  14.619 -0.2327 -0.5475 -0.2205
   9023SM  H22F12175   5.762   1.557  14.717  1.3599 -2.4389  0.9477
   9023SM  H22G12176   5.748   1.580  14.540  1.8574 -0.9016 -1.1549
   9023SM  C23F12177   5.913   1.472  14.595 -0.6666 -1.1001 -0.0177
   9023SM  H23F12178   5.936   1.382  14.656 -2.4030 -0.8372  1.0901
   9023SM  H23G12179   5.973   1.556  14.636 -0.7195 -1.9296  1.8591
   9023SM  H23H12180   5.948   1.462  14.490 -0.3343 -0.0807 -0.0095
   9123SM     N12181   7.437   3.767  12.573 -0.0196 -0.1428 -0.1828
   9123SM   C1512182   7.529   3.735  12.685  0.0298  0.2871  0.2234
   9123SM  H15A12183   7.614   3.679  12.648  0.3802 -0.9210  2.6397
   9123SM  H15B12184   7.482   3.676  12.762 -3.6961  1.7822 -0.6815
   9123SM  H15C12185   7.564   3.826  12.733  2.7027  0.6562 -2.1828
   9123SM   C1412186   7.313   3.837  12.621  0.0234  0.9349  0.6569
   9123SM  H14A12187   7.333   3.915  12.693 -0.0902  1.3481  0.2448
   9123SM  H14B12188   7.247   3.764  12.666 -0.1801  0.2190 -0.7359
   9123SM  H14C12189   7.257   3.878  12.538  1.0845  0.3737 -0.3550
   9123SM   C1312190   7.508   3.867  12.485 -0.9981  0.1197 -0.2395
   9123SM  H13A12191   7.586   3.821  12.426 -1.2544 -2.2024  1.1243
   9123SM  H13B12192   7.548   3.948  12.543 -0.1961 -1.7701  2.0029
   9123SM  H13C12193   7.445   3.916  12.412 -0.4640 -0.6987 -1.2761
   9123SM   C1212194   7.402   3.645  12.485 -0.3878  0.4767 -0.5015
   9123SM  H12A12195   7.501   3.602  12.473 -0.4038  0.3699 -0.2624
   9123SM  H12B12196   7.368   3.673  12.386  1.8501  0.0432 -1.4457
   9123SM   C1112197   7.313   3.530  12.556  0.1183 -0.9880  0.0221
   9123SM  H11A12198   7.373   3.496  12.642  0.0727 -0.1633  0.3856
   9123SM  H11B12199   7.304   3.442  12.488  1.2768 -1.0742 -0.0256
   9123SM     P12200   7.076   3.600  12.495  0.0443  0.3526  0.3634
   9123SM   O1312201   7.000   3.713  12.546  0.1098  0.4878  0.2130
   9123SM   O1412202   7.126   3.603  12.358 -0.5665 -0.1501 -0.3303
   9123SM   O1112203   6.970   3.482  12.497  0.0722  0.2755 -0.2072
   9123SM   O1212204   7.186   3.570  12.594 -0.2624 -0.0714 -0.3526
   9123SM   C1S12205   6.967   3.379  12.600  0.1590 -0.1254 -0.1419
   9123SM   H1S12206   7.072   3.349  12.620 -0.0425 -0.3101  0.6758
   9123SM   H1T12207   6.903   3.296  12.563 -1.9542  2.2576 -2.3349
   9123SM    NF12208   6.888   3.329  12.840 -0.4199  0.1619  0.2235
   9123SM   HNF12209   6.808   3.273  12.860 -0.4239  0.8185  2.3691
   9123SM   C2S12210   6.884   3.423  12.729  0.0976  0.0005  0.1183
   9123SM   H2S12211   6.931   3.515  12.770 -1.0947  0.8986 -0.4792
   9123SM   C3S12212   6.740   3.463  12.688 -0.7739 -0.3083  0.0951
   9123SM   H3S12213   6.697   3.376  12.635 -4.2223 -0.0572  2.2068
   9123SM    O312214   6.741   3.584  12.599  0.4910  0.6841 -0.5111
   9123SM   HO312215   6.822   3.568  12.549  1.1034  2.5195 -0.1962
   9123SM   C4S12216   6.658   3.502  12.810  0.3387 -0.2399 -0.2250
   9123SM   H4S12217   6.721   3.520  12.898 -0.3446 -1.4526  0.5420
   9123SM   C5S12218   6.526   3.483  12.827 -0.3035  0.5276  0.1529
   9123SM   H5S12219   6.471   3.447  12.738 -0.3504  1.8798 -0.3853
   9123SM   C6S12220   6.446   3.509  12.957 -0.6457 -0.1223 -0.1810
   9123SM   H6S12221   6.362   3.577  12.933 -1.0717 -0.6883 -0.2964
   9123SM   H6T12222   6.513   3.559  13.032 -1.5748 -0.8038  1.1457
   9123SM   C7S12223   6.391   3.382  13.022  0.0343  0.2519  0.7046
   9123SM   H7S12224   6.320   3.327  12.957 -0.4142  1.2565  0.3267
   9123SM   H7T12225   6.335   3.409  13.114 -1.8626  0.8712 -0.5783
   9123SM   C8S12226   6.508   3.289  13.061  0.1802  0.4835 -0.0604
   9123SM   H8S12227   6.571   3.265  12.973 -1.2033 -1.4549 -0.5776
   9123SM   H8T12228   6.461   3.199  13.107 -0.8036  0.3926 -1.2015
   9123SM   C9S12229   6.610   3.348  13.164  0.7717  0.2448  0.1360
   9123SM   H9S12230   6.679   3.427  13.127  1.6289  0.5880  2.3165
   9123SM   H9T12231   6.676   3.264  13.194  0.8396  0.2347 -0.0425
   9123SM  C10S12232   6.537   3.395  13.288 -0.8302  0.2732  0.3590
   9123SM  H10S12233   6.452   3.323  13.289 -1.3324  0.6849 -2.7485
   9123SM  H10T12234   6.494   3.497  13.272  1.7076  1.7901  2.4593
   9123SM  C11S12235   6.625   3.386  13.417 -0.0583 -0.7269 -0.0668
   9123SM  H11S12236   6.663   3.282  13.419  0.8723 -0.3932  0.0075
   9123SM  H11T12237   6.561   3.405  13.505 -0.3782  0.7177 -0.5794
   9123SM  C12S12238   6.745   3.487  13.422 -0.5941 -0.6254  0.4532
   9123SM  H12S12239   6.709   3.591  13.409  0.4518 -0.2766  0.2526
   9123SM  H12T12240   6.798   3.452  13.331  1.8407  1.6627  0.8535
   9123SM  C13S12241   6.833   3.465  13.542 -0.0918  0.1421 -0.6041
   9123SM  H13S12242   6.921   3.530  13.520  0.8165 -1.5350 -2.2308
   9123SM  H13T12243   6.883   3.365  13.539 -0.4930 -0.0420 -1.1508
   9123SM  C14S12244   6.772   3.490  13.679  0.3442 -0.5784  0.1830
   9123SM  H14S12245   6.680   3.430  13.694 -1.5530  2.1507  0.2147
   9123SM  H14T12246   6.744   3.597  13.669 -0.8587 -1.0138 -1.6649
   9123SM  C15S12247   6.873   3.471  13.797  0.3857  0.2586  0.3808
   9123SM  H15S12248   6.944   3.555  13.782  0.4076  0.7297  2.7973
   9123SM  H15T12249   6.941   3.383  13.790 -1.1830 -0.8596 -2.5417
   9123SM  C16S12250   6.804   3.481  13.935  0.5666 -0.9659  0.2458
   9123SM  H16S12251   6.707   3.533  13.918  1.2723  0.2151 -0.2973
   9123SM  H16T12252   6.867   3.544  14.001  0.3197 -0.1576 -0.2666
   9123SM  C17S12253   6.785   3.344  13.999 -0.3706 -0.3163 -0.6595
   9123SM  H17S12254   6.747   3.358  14.102  2.8658  2.4982  0.3578
   9123SM  H17T12255   6.884   3.295  13.994 -0.4100 -0.4062 -0.5522
   9123SM  C18S12256   6.682   3.258  13.920 -0.1371  0.0973  0.0669
   9123SM  H18S12257   6.587   3.315  13.905 -0.6003 -1.0888 -1.7212
   9123SM  H18T12258   6.657   3.166  13.977  1.6366  1.3797  3.1733
   9123SM  H18U12259   6.710   3.232  13.816  0.0781  0.4535  0.0316
   9123SM   C1F12260   6.999   3.302  12.907 -0.8491  0.4140 -0.2189
   9123SM    OF12261   7.105   3.365  12.888  0.1739  0.2968 -0.2518
   9123SM   C2F12262   6.994   3.192  13.003  0.7870 -0.0218  0.0547
   9123SM   H2F12263   7.047   3.101  12.969 -0.4360 -0.4839 -0.6995
   9123SM   H2G12264   6.890   3.156  13.021  0.5371  1.5384  2.1932
   9123SM   C3F12265   7.044   3.238  13.138  0.3932  0.0344 -0.6068
   9123SM   H3F12266   6.975   3.307  13.190  0.8099  1.6554 -2.1005
   9123SM   H3G12267   7.140   3.293  13.127  0.3126  0.2578 -0.1962
   9123SM   C4F12268   7.075   3.117  13.230 -0.3348  0.5550  0.8853
   9123SM   H4F12269   7.165   3.056  13.204  1.6760  2.7841  2.1815
   9123SM   H4G12270   6.994   3.042  13.220  0.8828 -0.6485 -0.6033
   9123SM   C5F12271   7.087   3.167  13.367  0.2624 -0.3208  0.1120
   9123SM   H5F12272   7.019   3.252  13.388 -1.9558 -2.3029  1.5164
   9123SM   H5G12273   7.188   3.202  13.396  0.3380 -0.8127  0.4648
   9123SM   C6F12274   7.059   3.058  13.469 -0.0692 -0.0987 -0.2919
   9123SM   H6F12275   7.093   3.087  13.571 -0.9295  0.3688 -0.1286
   9123SM   H6G12276   7.100   2.961  13.434  0.0286  0.1310 -0.8116
   9123SM   C7F12277   6.912   3.038  13.493  0.8784  0.6681  0.5484
   9123SM   H7F12278   6.855   3.015  13.400  1.7162 -1.1727  0.4320
   9123SM   H7G12279   6.871   3.123  13.551 -2.4575  0.5390 -1.3426
   9123SM   C8F12280   6.886   2.912  13.576  0.3133 -0.5090 -0.4733
   9123SM   H8F12281   6.954   2.835  13.535  0.4059 -0.3205 -0.6743
   9123SM   H8G12282   6.781   2.881  13.562  0.2075  0.3348 -1.7325
   9123SM   C9F12283   6.913   2.935  13.731  0.1074 -0.0824  0.8739
   9123SM   H9F12284   6.832   2.999  13.770  0.4095  0.1876  1.0659
   9123SM   H9G12285   7.007   2.988  13.759 -0.5750  0.3981  2.3189
   9123SM  C10F12286   6.910   2.807  13.821 -0.7883  0.0377  0.5799
   9123SM  H10F12287   7.010   2.773  13.854 -0.6790 -1.4397 -1.0826
   9123SM  H10G12288   6.866   2.728  13.756  1.7067 -0.1453 -1.0566
   9123SM  C11F12289   6.826   2.821  13.949  0.7607 -0.4000 -0.4074
   9123SM  H11F12290   6.802   2.721  13.991 -1.3593  0.8872  1.6777
   9123SM  H11G12291   6.735   2.878  13.923  0.9468 -1.0442 -2.7162
   9123SM  C12F12292   6.905   2.900  14.048  0.3740  0.1822  0.3483
   9123SM  H12F12293   6.963   2.979  13.996  0.3888 -0.0806 -0.0300
   9123SM  H12G12294   6.982   2.836  14.097  0.0412 -2.2814 -2.1180
   9123SM  C13F12295   6.822   2.968  14.161 -0.1626  0.3395 -0.4301
   9123SM  H13F12296   6.716   2.949  14.137  0.0095 -2.1592  0.4971
   9123SM  H13G12297   6.846   3.076  14.162  2.4367 -0.1547 -1.1292
   9123SM  C14F12298   6.853   2.902  14.299  0.9089 -0.0989  0.6321
   9123SM  H14F12299   6.962   2.877  14.296  0.7272 -0.8821 -1.5692
   9123SM  H14G12300   6.797   2.807  14.308  2.4163 -1.5298 -2.8856
   9123SM  C15F12301   6.836   3.002  14.407 -0.7224 -0.3430 -0.0611
   9123SM  H15F12302   6.852   2.950  14.504 -1.3058  1.2365  0.9179
   9123SM  H15G12303   6.735   3.047  14.398  0.0768  1.1512 -2.3941
   9123SM  C16F12304   6.947   3.101  14.420 -0.3971  0.0891  0.7842
   9123SM  H16F12305   6.968   3.150  14.323 -1.0080 -0.7093  0.2402
   9123SM  H16G12306   7.042   3.046  14.437  0.6877  0.9910 -1.9260
   9123SM  C17F12307   6.926   3.203  14.532 -0.1622  0.7113  0.1968
   9123SM  H17F12308   7.012   3.273  14.534  0.0713  0.5274 -1.5348
   9123SM  H17G12309   6.923   3.140  14.624  0.5462  1.1418  0.5262
   9123SM  C18F12310   6.800   3.286  14.518  0.1477 -0.0482  0.3213
   9123SM  H18F12311   6.705   3.228  14.509 -0.8152  0.6799  3.9955
   9123SM  H18G12312   6.811   3.355  14.432 -1.2585  0.9941  0.9379
   9123SM  C19F12313   6.762   3.367  14.643 -0.4718 -0.1271  0.0978
   9123SM  H19F12314   6.851   3.427  14.673 -0.4086  1.1966 -2.4497
   9123SM  H19G12315   6.740   3.303  14.731 -0.4887  0.3054  0.4083
   9123SM  C20F12316   6.635   3.453  14.632 -0.1597  0.1149  0.3020
   9123SM  H20F12317   6.549   3.384  14.641  1.5334 -1.8247  2.7874
   9123SM  H20G12318   6.636   3.499  14.530  1.6989  1.4086  0.8444
   9123SM  C21F12319   6.634   3.550  14.754  0.2018  0.4656 -0.4522
   9123SM  H21F12320   6.706   3.631  14.728  0.1166  1.2023  1.4548
   9123SM  H21G12321   6.667   3.505  14.850 -2.1330 -1.9351 -0.6517
   9123SM  C22F12322   6.494   3.622  14.770 -0.2643  0.7069 -0.4353
   9123SM  H22F12323   6.483   3.685  14.680 -0.2025  0.4359 -0.6349
   9123SM  H22G12324   6.507   3.697  14.851  1.0901 -0.1160  0.1573
   9123SM  C23F12325   6.374   3.534  14.803 -0.0031  0.1984 -0.5732
   9123SM  H23F12326   6.281   3.585  14.836  0.9085  0.2345  2.2020
   9123SM  H23G12327   6.405   3.469  14.887  2.2693 -0.6775 -2.0182
   9123SM  H23H12328   6.362   3.462  14.719 -0.8234 -0.2054 -0.1244
   9223SM     N12329   5.378   0.969  12.877  0.0430 -0.1547  0.0861
   9223SM   C1512330   5.224   0.956  12.857 -0.3641  0.1744  0.2850
   9223SM  H15A12331   5.176   0.995  12.946 -0.4409 -3.0741  1.8123
   9223SM  H15B12332   5.202   0.852  12.874  1.5112 -0.6814 -2.1155
   9223SM  H15C12333   5.189   0.989  12.761  3.2539  0.8351 -0.9542
   9223SM   C1412334   5.435   0.888  12.761 -0.0256  0.1561  0.2103
   9223SM  H14A12335   5.423   0.782  12.773  0.6315 -0.1211 -1.3705
   9223SM  H14B12336   5.539   0.901  12.736 -0.7317  0.0563 -3.2957
   9223SM  H14C12337   5.384   0.917  12.670  0.9761  0.8427 -0.1497
   9223SM   C1312338   5.420   1.106  12.854  0.0757 -0.8228  0.9591
   9223SM  H13A12339   5.527   1.121  12.856  0.1180  1.0067 -3.5599
   9223SM  H13B12340   5.369   1.170  12.923 -0.2095  0.8118 -0.7080
   9223SM  H13C12341   5.397   1.135  12.753  0.1202 -2.3141  0.4868
   9223SM   C1212342   5.418   0.909  13.008  0.2612  0.9385 -0.1964
   9223SM  H12A12343   5.523   0.883  13.006 -0.0976 -0.8527  1.7763
   9223SM  H12B12344   5.372   0.813  13.023  1.3448  0.4225 -0.0807
   9223SM   C1112345   5.383   0.992  13.135 -0.5335  0.4332 -0.4461
   9223SM  H11A12346   5.409   1.099  13.120 -1.4303  1.4801  3.9715
   9223SM  H11B12347   5.453   0.959  13.215 -0.2627  4.4959  1.2517
   9223SM     P12348   5.173   0.858  13.226  0.2984 -0.1033  0.3555
   9223SM   O1312349   5.025   0.882  13.219 -0.3640 -0.0987 -0.0135
   9223SM   O1412350   5.220   0.730  13.166 -0.8445 -0.1370 -0.2834
   9223SM   O1112351   5.218   0.867  13.378 -0.0806 -0.4232  0.1259
   9223SM   O1212352   5.244   0.989  13.165  0.1800  0.1395  0.5767
   9223SM   C1S12353   5.255   0.994  13.431  0.4701 -0.4196 -0.5172
   9223SM   H1S12354   5.158   1.047  13.436  0.6153 -0.1617 -0.3912
   9223SM   H1T12355   5.324   1.064  13.378 -0.6098  0.8341 -0.3140
   9223SM    NF12356   5.327   1.123  13.627 -0.4255  0.7443  0.2289
   9223SM   HNF12357   5.422   1.153  13.631 -0.7807  2.1972 -1.2767
   9223SM   C2S12358   5.312   0.984  13.578  0.1063  0.4965  0.0392
   9223SM   H2S12359   5.236   0.931  13.639  0.8917 -0.4666  0.2128
   9223SM   C3S12360   5.447   0.909  13.582 -1.1114  0.2514  0.1466
   9223SM   H3S12361   5.533   0.963  13.536 -0.9427 -1.5420 -1.8081
   9223SM    O312362   5.452   0.791  13.502 -0.3588 -0.0730  0.1124
   9223SM   HO312363   5.375   0.784  13.444  0.1717 -2.0182 -0.4122
   9223SM   C4S12364   5.494   0.868  13.722  1.0096 -0.8842 -0.1659
   9223SM   H4S12365   5.425   0.796  13.768  0.4658 -2.1224 -2.7350
   9223SM   C5S12366   5.598   0.922  13.800  0.7664  1.0129 -0.6386
   9223SM   H5S12367   5.645   1.013  13.759  1.0625  0.7795 -0.8174
   9223SM   C6S12368   5.632   0.878  13.943  0.0552 -0.5146  0.8772
   9223SM   H6S12369   5.701   0.955  13.983  1.6008 -1.2048 -0.3393
   9223SM   H6T12370   5.692   0.785  13.935  0.8746  0.1018 -0.6222
   9223SM   C7S12371   5.506   0.854  14.030 -0.0915 -0.5959 -0.0609
   9223SM   H7S12372   5.457   0.761  13.994 -1.3968  0.0231  0.0506
   9223SM   H7T12373   5.428   0.933  14.022  0.2031 -0.2031  0.7960
   9223SM   C8S12374   5.546   0.827  14.177 -0.5051 -0.6496 -0.8520
   9223SM   H8S12375   5.612   0.911  14.204  1.2781 -2.2724  0.1144
   9223SM   H8T12376   5.607   0.734  14.181 -2.5892 -2.1634 -2.0035
   9223SM   C9S12377   5.432   0.814  14.283  0.1691  0.4024  0.2383
   9223SM   H9S12378   5.372   0.729  14.246 -0.9790  1.0794  0.4864
   9223SM   H9T12379   5.371   0.906  14.270 -1.3999 -0.8505 -1.8703
   9223SM  C10S12380   5.482   0.797  14.431  0.2200  0.3091  0.4148
   9223SM  H10S12381   5.527   0.893  14.463 -1.8326  1.7300 -0.7301
   9223SM  H10T12382   5.560   0.718  14.435  0.5042  0.6296  1.4964
   9223SM  C11S12383   5.370   0.741  14.525 -0.0132 -0.1076 -0.2413
   9223SM  H11S12384   5.411   0.728  14.627 -1.6861  3.8322  1.1439
   9223SM  H11T12385   5.327   0.646  14.487 -0.1537  0.3486 -1.2792
   9223SM  C12S12386   5.257   0.839  14.559  0.0457  0.2978 -0.5294
   9223SM  H12S12387   5.211   0.860  14.460  3.6386  0.1768 -2.3877
   9223SM  H12T12388   5.298   0.933  14.602 -4.2300  1.4001  1.7949
   9223SM  C13S12389   5.159   0.782  14.657  0.1071  0.0741  0.3311
   9223SM  H13S12390   5.211   0.754  14.751  0.2903 -0.5512  0.0463
   9223SM  H13T12391   5.115   0.688  14.617  1.4953 -0.7507  0.6838
   9223SM  C14S12392   5.050   0.884  14.675  0.3743 -0.2195 -1.2149
   9223SM  H14S12393   4.965   0.828  14.719  0.8549 -0.7773 -0.9823
   9223SM  H14T12394   5.015   0.924  14.578  0.2192 -1.6686 -1.7652
   9223SM  C15S12395   5.081   0.993  14.783  0.5563  0.4908  0.3818
   9223SM  H15S12396   5.177   1.037  14.749  0.3658 -0.4989 -1.5457
   9223SM  H15T12397   5.099   0.935  14.876 -0.8075 -0.2617  0.1933
   9223SM  C16S12398   4.965   1.087  14.807  0.1992  0.3194 -0.4231
   9223SM  H16S12399   4.876   1.029  14.837 -0.5472  2.6122  2.2394
   9223SM  H16T12400   4.945   1.137  14.710  0.8348  0.1562 -0.6464
   9223SM  C17S12401   4.987   1.182  14.927  0.0800  0.5163 -0.1481
   9223SM  H17S12402   4.942   1.277  14.889 -0.6771  0.1739 -0.1120
   9223SM  H17T12403   5.097   1.197  14.934  0.4173 -0.7796 -1.9544
   9223SM  C18S12404   4.925   1.151  15.065 -0.0198 -0.2113  0.0358
   9223SM  H18S12405   4.933   1.046  15.099 -2.6291 -1.2982 -2.2611
   9223SM  H18T12406   4.815   1.158  15.049  0.1364  1.8557 -0.4207
   9223SM  H18U12407   4.950   1.220  15.148 -0.4714 -0.9933  0.8478
   9223SM   C1F12408   5.228   1.210  13.658  0.6378 -0.3728  0.3869
   9223SM    OF12409   5.116   1.181  13.629  0.5291 -0.3118  0.5744
   9223SM   C2F12410   5.267   1.338  13.733 -0.4427 -0.3302 -0.0856
   9223SM   H2F12411   5.178   1.405  13.734 -0.3203 -0.1043  2.4844
   9223SM   H2G12412   5.349   1.393  13.684 -1.3041  0.6034 -0.5073
   9223SM   C3F12413   5.310   1.316  13.881  0.6547 -0.1074  0.3216
   9223SM   H3F12414   5.350   1.415  13.911  0.3424  0.3190 -0.6112
   9223SM   H3G12415   5.393   1.243  13.881  1.0078  0.2954  0.5071
   9223SM   C4F12416   5.199   1.280  13.978  0.5886  0.7287 -0.5857
   9223SM   H4F12417   5.100   1.323  13.953 -0.3738 -2.1580 -2.2461
   9223SM   H4G12418   5.218   1.338  14.071 -2.2472  0.9666 -0.0685
   9223SM   C5F12419   5.179   1.128  13.999  0.0637  0.2032 -0.7177
   9223SM   H5F12420   5.218   1.103  14.100  1.6562  3.7876 -0.3013
   9223SM   H5G12421   5.238   1.064  13.930  1.3422  0.5983 -0.0111
   9223SM   C6F12422   5.035   1.086  13.983  0.3874  0.1824  0.6979
   9223SM   H6F12423   5.019   1.096  13.874  1.8678 -0.0320  0.4433
   9223SM   H6G12424   4.967   1.154  14.039 -1.8447  0.0724 -1.6879
   9223SM   C7F12425   5.010   0.936  14.005 -0.4730  0.6471  0.4672
   9223SM   H7F12426   5.075   0.902  14.089  0.3875  0.1571 -0.3674
   9223SM   H7G12427   5.047   0.877  13.918 -0.3516 -0.9771  1.5772
   9223SM   C8F12428   4.871   0.894  14.039  0.4812 -0.3143 -0.4968
   9223SM   H8F12429   4.803   0.894  13.951 -2.8677 -0.1547  1.8840
   9223SM   H8G12430   4.841   0.965  14.118  2.1694  0.4550 -0.5086
   9223SM   C9F12431   4.875   0.758  14.100 -0.6026 -0.2950 -0.5829
   9223SM   H9F12432   4.888   0.757  14.210 -1.6826  0.7244 -0.4280
   9223SM   H9G12433   4.964   0.704  14.062  0.2803 -0.0997  1.1249
   9223SM  C10F12434   4.760   0.664  14.054  0.4319  0.2578 -0.0199
   9223SM  H10F12435   4.785   0.608  13.961 -0.8341  0.6321 -0.6091
   9223SM  H10G12436   4.672   0.730  14.034 -1.0859 -2.0537 -1.3361
   9223SM  C11F12437   4.724   0.558  14.164  0.2214  0.5399 -0.0161
   9223SM  H11F12438   4.715   0.608  14.263  1.2334  2.2755 -0.7372
   9223SM  H11G12439   4.807   0.485  14.165  0.3782  0.7228  0.5698
   9223SM  C12F12440   4.589   0.490  14.134  0.8327  0.6659 -0.1558
   9223SM  H12F12441   4.592   0.450  14.030 -1.7483  2.0467 -0.8320
   9223SM  H12G12442   4.509   0.567  14.131  1.6927  1.5510 -1.6303
   9223SM  C13F12443   4.557   0.383  14.238  0.0849 -0.1446 -0.1683
   9223SM  H13F12444   4.624   0.296  14.228 -3.5571 -3.0276 -2.2278
   9223SM  H13G12445   4.462   0.336  14.204 -0.0721  0.7052 -0.9503
   9223SM  C14F12446   4.535   0.439  14.382 -0.2714 -0.2508 -0.2913
   9223SM  H14F12447   4.451   0.512  14.380 -0.7511 -0.7747  0.0335
   9223SM  H14G12448   4.621   0.494  14.426 -1.0456  1.9301 -1.3363
   9223SM  C15F12449   4.494   0.325  14.476  0.0642  0.0240  0.3365
   9223SM  H15F12450   4.579   0.253  14.471  0.3794  0.4638 -1.3882
   9223SM  H15G12451   4.412   0.266  14.430  0.6966 -0.0055 -0.8041
   9223SM  C16F12452   4.454   0.373  14.616  0.0746  0.4859 -0.1596
   9223SM  H16F12453   4.388   0.299  14.667 -1.5441  2.5346  0.8625
   9223SM  H16G12454   4.395   0.466  14.606 -1.3731 -0.5572 -2.2749
   9223SM  C17F12455   4.583   0.399  14.698  0.3758  0.4743  0.3003
   9223SM  H17F12456   4.539   0.452  14.786 -1.2091  1.0908 -0.8304
   9223SM  H17G12457   4.660   0.467  14.657  0.3739 -0.5213 -1.4086
   9223SM  C18F12458   4.654   0.275  14.738  0.4845 -0.2658  0.3602
   9223SM  H18F12459   4.713   0.231  14.655  2.2665  0.6780  1.0806
   9223SM  H18G12460   4.574   0.209  14.778 -1.0760  2.4849  2.1013
   9223SM  C19F12461   4.745   0.286  14.856 -0.8037  0.1251 -0.6342
   9223SM  H19F12462   4.760   0.182  14.890 -3.5560  0.2753  1.3513
   9223SM  H19G12463   4.698   0.343  14.939  3.0016  1.4934  0.8152
   9223SM  C20F12464   4.881   0.355  14.820 -0.0558  0.1753  0.8271
   9223SM  H20F12465   4.858   0.464  14.816 -0.3954  0.1471  1.6861
   9223SM  H20G12466   4.914   0.317  14.721  0.5218 -1.2540  1.5392
   9223SM  C21F12467   5.000   0.324  14.912 -0.0131  0.0806 -0.5047
   9223SM  H21F12468   5.017   0.215  14.925  1.4222  0.3174 -0.2718
   9223SM  H21G12469   4.965   0.354  15.013 -1.6768 -2.1317 -0.3343
   9223SM  C22F12470   5.130   0.395  14.875 -0.3647 -0.0792  0.0713
   9223SM  H22F12471   5.187   0.406  14.970  0.9044 -0.7724 -0.5792
   9223SM  H22G12472   5.103   0.498  14.845 -0.5814  0.4255  1.8575
   9223SM  C23F12473   5.216   0.318  14.776  0.5390  0.0498  0.1949
   9223SM  H23F12474   5.174   0.216  14.785 -2.9804  1.4214  1.2159
   9223SM  H23G12475   5.324   0.333  14.797  0.4649  2.8573 -1.0580
   9223SM  H23H12476   5.209   0.351  14.670  3.7968  0.3368 -0.0364
   9323SM     N12477   6.184   2.155  12.652 -0.1432 -0.4578 -0.6112
   9323SM   C1512478   6.116   2.107  12.530  0.1699 -0.0993  0.1319
   9323SM  H15A12479   6.014   2.142  12.530  0.2961  0.4690  2.7113
   9323SM  H15B12480   6.116   1.999  12.524  2.7650 -0.2081  0.7755
   9323SM  H15C12481   6.163   2.146  12.440 -0.9116  1.7472  0.3318
   9323SM   C1412482   6.118   2.079  12.764  0.1960  0.4573 -1.0407
   9323SM  H14A12483   6.109   1.972  12.759 -1.5598  0.2701  2.7418
   9323SM  H14B12484   6.022   2.122  12.791  1.4347  2.6533  0.1986
   9323SM  H14C12485   6.178   2.101  12.851 -0.9236 -0.2503 -0.0719
   9323SM   C1312486   6.337   2.125  12.658  0.5374  0.1666 -0.2322
   9323SM  H13A12487   6.366   2.155  12.758  1.6294 -0.1777 -0.4410
   9323SM  H13B12488   6.399   2.185  12.593 -0.2895  0.2397 -0.9720
   9323SM  H13C12489   6.354   2.019  12.654  0.4034  0.0024  1.9593
   9323SM   C1212490   6.173   2.305  12.654  0.6641  0.1424  0.3192
   9323SM  H12A12491   6.071   2.332  12.629  0.6539 -0.2592 -0.0766
   9323SM  H12B12492   6.224   2.344  12.567 -1.9945 -2.2529 -2.5320
   9323SM   C1112493   6.213   2.381  12.782 -0.0402 -0.3615 -0.6560
   9323SM  H11A12494   6.202   2.485  12.745  1.9025 -0.8728 -2.9045
   9323SM  H11B12495   6.316   2.348  12.808 -1.1949 -4.0997 -0.2285
   9323SM     P12496   5.978   2.397  12.902 -0.2188 -0.3173  0.0189
   9323SM   O1312497   5.958   2.505  12.805  0.2685  0.1359  0.4742
   9323SM   O1412498   5.887   2.282  12.901  0.2800 -0.5390 -0.4562
   9323SM   O1112499   5.969   2.468  13.037  0.4549  0.1516  0.3564
   9323SM   O1212500   6.128   2.362  12.895 -0.3054 -0.0539  0.1402
   9323SM   C1S12501   5.959   2.388  13.160 -0.5507 -0.3338  0.3756
   9323SM   H1S12502   6.038   2.311  13.152 -1.1186 -1.1236  1.8940
   9323SM   H1T12503   5.863   2.335  13.177  0.0271 -1.3812  0.4787
   9323SM    NF12504   6.067   2.405  13.391  0.5868  0.6862  0.1958
   9323SM   HNF12505   6.008   2.392  13.470 -0.6481 -0.0189 -0.7939
   9323SM   C2S12506   5.999   2.472  13.281  0.3095  0.5710 -0.9256
   9323SM   H2S12507   6.073   2.548  13.247  1.2973 -0.8663 -2.0929
   9323SM   C3S12508   5.882   2.562  13.331 -0.2933 -0.2238 -0.7636
   9323SM   H3S12509   5.804   2.493  13.369 -1.2290  1.4229  0.4392
   9323SM    O312510   5.811   2.616  13.221 -0.2332 -0.2317 -0.1278
   9323SM   HO312511   5.861   2.584  13.145  0.0521  0.3651 -0.1964
   9323SM   C4S12512   5.920   2.666  13.433 -0.4729  0.5080  0.3212
   9323SM   H4S12513   5.908   2.627  13.536  1.6522 -0.6664  0.1791
   9323SM   C5S12514   5.951   2.795  13.408  0.7948  0.1043  0.0566
   9323SM   H5S12515   5.934   2.833  13.307  0.5525 -0.9825 -0.3202
   9323SM   C6S12516   5.995   2.904  13.501  0.2855  0.1292 -0.5952
   9323SM   H6S12517   5.920   2.986  13.503  0.7215  0.5603 -1.4976
   9323SM   H6T12518   6.084   2.954  13.457  0.8088  0.0369  0.3215
   9323SM   C7S12519   6.020   2.876  13.651  0.3325  0.5997  0.1047
   9323SM   H7S12520   6.101   2.800  13.656 -0.2954 -0.0982 -0.1848
   9323SM   H7T12521   5.927   2.830  13.689  0.3512 -1.1049 -1.7157
   9323SM   C8S12522   6.049   2.996  13.740 -0.3581 -0.6403 -0.8527
   9323SM   H8S12523   5.975   3.076  13.718  1.2830  1.4980  1.0373
   9323SM   H8T12524   6.141   3.047  13.706 -0.4901  0.6602  0.6371
   9323SM   C9S12525   6.037   2.962  13.887  0.5835  0.3575 -0.4024
   9323SM   H9S12526   6.110   2.885  13.916  0.1753  1.3372  3.7873
   9323SM   H9T12527   5.937   2.924  13.918  0.7082  0.4847  0.1537
   9323SM  C10S12528   6.061   3.087  13.968 -0.3195 -0.3986 -0.0723
   9323SM  H10S12529   5.978   3.158  13.952 -0.0619 -0.6704 -3.3113
   9323SM  H10T12530   6.165   3.123  13.948 -0.4545  1.5707  2.2813
   9323SM  C11S12531   6.039   3.049  14.113 -0.1434 -0.8349 -0.3681
   9323SM  H11S12532   6.104   2.960  14.130 -0.5894 -1.4924 -1.9309
   9323SM  H11T12533   5.934   3.019  14.134 -0.5471  0.4532 -0.4507
   9323SM  C12S12534   6.070   3.157  14.225 -0.0187 -0.1355 -0.0544
   9323SM  H12S12535   5.988   3.232  14.223  0.2580  0.2703  2.0212
   9323SM  H12T12536   6.164   3.205  14.189  0.0876 -0.3926 -0.1170
   9323SM  C13S12537   6.092   3.097  14.368  0.8779  0.2252 -0.0152
   9323SM  H13S12538   6.166   3.015  14.378  1.1794  0.5993  0.9335
   9323SM  H13T12539   5.993   3.059  14.402  2.0429 -1.0003  2.2211
   9323SM  C14S12540   6.126   3.212  14.467  0.5832 -0.4230  0.3535
   9323SM  H14S12541   6.061   3.300  14.448 -1.5187 -1.6221  1.5824
   9323SM  H14T12542   6.231   3.243  14.446  1.2447 -2.2031  0.7838
   9323SM  C15S12543   6.096   3.172  14.615  0.2858 -0.0942 -0.0141
   9323SM  H15S12544   5.991   3.137  14.609  0.1479  0.3202 -0.0079
   9323SM  H15T12545   6.160   3.087  14.649  1.3124  0.2001 -1.1318
   9323SM  C16S12546   6.112   3.293  14.714 -0.5747  0.2653  0.1072
   9323SM  H16S12547   6.071   3.379  14.658 -1.9991 -0.5566 -0.1581
   9323SM  H16T12548   6.219   3.319  14.729 -1.1892  2.0574  1.7810
   9323SM  C17S12549   6.045   3.269  14.846  0.8243  0.1321 -0.8083
   9323SM  H17S12550   6.100   3.188  14.898  0.7359 -0.4226 -1.5633
   9323SM  H17T12551   5.938   3.239  14.836 -0.1073  2.9416 -0.1212
   9323SM  C18S12552   6.060   3.393  14.935  0.1104  0.2691  0.4436
   9323SM  H18S12553   6.160   3.410  14.979 -0.4549  1.5046  1.3127
   9323SM  H18T12554   5.976   3.408  15.007 -1.5991  0.5980 -1.5341
   9323SM  H18U12555   6.050   3.477  14.864  1.0009  1.0859  1.2694
   9323SM   C1F12556   6.190   2.345  13.387 -0.0508 -0.2149 -0.4618
   9323SM    OF12557   6.254   2.356  13.283  0.3280  0.4822 -0.3053
   9323SM   C2F12558   6.224   2.252  13.497  0.0920  0.3110 -0.4495
   9323SM   H2F12559   6.209   2.148  13.460 -0.7262 -0.2188  1.3055
   9323SM   H2G12560   6.152   2.262  13.581 -0.0725  1.7538 -0.7320
   9323SM   C3F12561   6.366   2.276  13.555  0.2017 -0.3232  0.5553
   9323SM   H3F12562   6.378   2.385  13.572  2.1212  0.0553 -2.4324
   9323SM   H3G12563   6.439   2.247  13.476  0.4028  1.6959 -0.0398
   9323SM   C4F12564   6.393   2.191  13.684 -0.0343 -0.3593  0.7543
   9323SM   H4F12565   6.500   2.214  13.703  0.3828  0.6083 -2.2054
   9323SM   H4G12566   6.373   2.085  13.660  0.0955 -0.2030 -0.0862
   9323SM   C5F12567   6.293   2.221  13.797 -0.3490  0.1608 -0.3496
   9323SM   H5F12568   6.193   2.176  13.778 -2.1669  2.8455  2.0265
   9323SM   H5G12569   6.268   2.329  13.789 -0.0452  0.5944  3.0289
   9323SM   C6F12570   6.342   2.172  13.932 -0.2517 -0.7715  0.0161
   9323SM   H6F12571   6.446   2.206  13.952 -0.7804  0.8681  0.1830
   9323SM   H6G12572   6.347   2.061  13.928 -1.7004 -1.0006  2.4784
   9323SM   C7F12573   6.266   2.220  14.055 -0.8226 -0.5408 -0.4442
   9323SM   H7F12574   6.169   2.165  14.061  0.7119 -3.5321 -1.3917
   9323SM   H7G12575   6.239   2.326  14.033 -3.4650 -0.7052  1.5266
   9323SM   C8F12576   6.340   2.204  14.190 -0.1451 -0.0387  0.8051
   9323SM   H8F12577   6.436   2.259  14.176  0.1812 -1.1796 -2.1665
   9323SM   H8G12578   6.352   2.094  14.199 -0.9948 -0.1744  0.4679
   9323SM   C9F12579   6.260   2.256  14.310 -0.3033 -0.1878 -0.3344
   9323SM   H9F12580   6.162   2.208  14.287  0.0503 -0.4541 -1.3302
   9323SM   H9G12581   6.257   2.367  14.325 -1.4768  0.4228 -4.0519
   9323SM  C10F12582   6.324   2.204  14.439  0.5225 -0.4233 -0.2336
   9323SM  H10F12583   6.426   2.242  14.464 -0.5246  1.3256  1.7246
   9323SM  H10G12584   6.329   2.094  14.426  1.6479 -0.5456  0.9422
   9323SM  C11F12585   6.237   2.244  14.562  0.5582 -0.7920  0.2199
   9323SM  H11F12586   6.133   2.208  14.545 -0.4179 -0.6663  4.6474
   9323SM  H11G12587   6.222   2.354  14.549  2.6385 -0.6094 -0.8972
   9323SM  C12F12588   6.297   2.198  14.696 -0.8457 -1.3166  0.4634
   9323SM  H12F12589   6.399   2.238  14.715 -0.9106 -1.2115  0.5886
   9323SM  H12G12590   6.294   2.087  14.688 -2.2862 -1.2473 -0.2480
   9323SM  C13F12591   6.211   2.244  14.813 -0.2146  0.2286  0.0756
   9323SM  H13F12592   6.102   2.233  14.796  0.0344  0.6471 -2.1748
   9323SM  H13G12593   6.218   2.354  14.826  1.5881  0.1278  0.1340
   9323SM  C14F12594   6.274   2.199  14.943 -0.0796 -0.0480  0.3071
   9323SM  H14F12595   6.361   2.265  14.958  1.4695 -1.6988 -0.9051
   9323SM  H14G12596   6.320   2.098  14.932 -1.6717 -0.7144 -0.5984
   9323SM  C15F12597   6.175   2.188  15.056  0.0638 -0.1785  0.1857
   9323SM  H15F12598   6.224   2.130  15.137  0.3554 -1.2193 -0.6960
   9323SM  H15G12599   6.082   2.134  15.027 -0.7613  1.4598 -0.3548
   9323SM  C16F12600   6.115   2.315  15.109  0.2164  0.1271  0.6362
   9323SM  H16F12601   6.081   2.385  15.029 -2.5697  0.8956  2.3623
   9323SM  H16G12602   6.195   2.364  15.168  0.4450  1.8941 -1.0183
   9323SM  C17F12603   5.995   2.292  15.207 -0.3375  0.4209  0.0954
   9323SM  H17F12604   6.002   2.351  15.301 -1.2960  0.5483  0.0963
   9323SM  H17G12605   5.995   2.183  15.229 -1.8192  0.1747 -1.0304
   9323SM  C18F12606   5.859   2.323  15.149  0.1579  0.1921  0.2511
   9323SM  H18F12607   5.860   2.431  15.122  1.5199  0.0867 -0.2316
   9323SM  H18G12608   5.776   2.309  15.221  0.8097 -0.1189  0.9617
   9323SM  C19F12609   5.818   2.243  15.028  0.1089  0.4660 -0.5094
   9323SM  H19F12610   5.856   2.139  15.041 -1.3932  0.1127  1.5690
   9323SM  H19G12611   5.869   2.285  14.939  0.9340  0.8670  0.1373
   9323SM  C20F12612   5.667   2.250  15.008  0.3947  0.3393 -0.3749
   9323SM  H20F12613   5.626   2.354  15.010  0.8774  0.5975 -2.3054
   9323SM  H20G12614   5.623   2.184  15.087  1.4984 -1.5368 -1.2781
   9323SM  C21F12615   5.627   2.171  14.874 -0.2999  0.2485  0.2258
   9323SM  H21F12616   5.690   2.080  14.878 -0.4636  0.0649 -1.0077
   9323SM  H21G12617   5.660   2.229  14.785  1.9980 -0.1662  0.7416
   9323SM  C22F12618   5.473   2.152  14.863  0.1249 -0.1817 -0.1974
   9323SM  H22F12619   5.448   2.073  14.938  1.6283 -0.7726 -0.2865
   9323SM  H22G12620   5.442   2.115  14.763 -0.7016 -0.7890  0.2744
   9323SM  C23F12621   5.401   2.284  14.902  0.7582 -0.3113  0.1173
   9323SM  H23F12622   5.290   2.276  14.900  0.5921  0.8748  1.8643
   9323SM  H23G12623   5.432   2.370  14.840  1.5248 -0.2163  0.6195
   9323SM  H23H12624   5.426   2.303  15.009 -0.6497 -1.8708  0.7724
   9423SM     N12625   4.371   6.571  12.904  0.1613  0.4947  0.3833
   9423SM   C1512626   4.477   6.556  12.795 -0.7810 -0.2491 -0.2275
   9423SM  H15A12627   4.568   6.584  12.845 -1.7248 -0.2246  1.5705
   9423SM  H15B12628   4.459   6.621  12.711  0.9538 -0.9555 -1.1922
   9423SM  H15C12629   4.473   6.453  12.766  0.2143 -0.2329 -0.4244
   9423SM   C1412630   4.424   6.671  13.000  0.1284 -0.7740  0.5863
   9423SM  H14A12631   4.519   6.654  13.047 -0.1137  2.9985  2.8797
   9423SM  H14B12632   4.353   6.697  13.078 -0.8201 -0.7513 -0.2689
   9423SM  H14C12633   4.432   6.760  12.939  0.4705 -0.4117  1.1523
   9423SM   C1312634   4.245   6.618  12.838  0.0062 -0.0540 -0.1025
   9423SM  H13A12635   4.254   6.711  12.783  2.7416 -1.1693 -1.7233
   9423SM  H13B12636   4.175   6.635  12.919  0.6472  1.9921  0.0953
   9423SM  H13C12637   4.203   6.540  12.776  0.5987  0.2135 -0.8581
   9423SM   C1212638   4.348   6.440  12.977 -0.3590  0.3593  0.1198
   9423SM  H12A12639   4.447   6.418  13.014  1.4579  1.2528 -3.6967
   9423SM  H12B12640   4.318   6.368  12.902 -0.0779  1.4377 -1.0488
   9423SM   C1112641   4.245   6.428  13.101  0.1836 -0.1147  0.5722
   9423SM  H11A12642   4.278   6.509  13.170 -1.4976  0.8329  0.3345
   9423SM  H11B12643   4.254   6.333  13.157  2.6231  0.1327  0.6992
   9423SM     P12644   4.042   6.346  12.963  0.1026 -0.1500 -0.2571
   9423SM   O1312645   3.957   6.418  12.863 -0.3283 -0.1808  0.3082
   9423SM   O1412646   4.147   6.260  12.904  0.2251 -0.3928 -0.1043
   9423SM   O1112647   3.947   6.258  13.048  0.1507 -0.0717  0.2517
   9423SM   O1212648   4.111   6.452  13.055  0.2558 -0.2442  0.3779
   9423SM   C1S12649   3.971   6.235  13.186 -0.0892 -0.3778  0.1481
   9423SM   H1S12650   4.047   6.298  13.237  0.7436  0.1755 -1.7136
   9423SM   H1T12651   4.020   6.136  13.198  0.5921  0.2457  3.5124
   9423SM    NF12652   3.883   6.188  13.414 -0.5815  0.3290 -0.7730
   9423SM   HNF12653   3.853   6.103  13.455  0.6536  0.1677 -0.1692
   9423SM   C2S12654   3.844   6.229  13.273  0.1711 -0.4318 -0.0047
   9423SM   H2S12655   3.785   6.323  13.275  0.2225 -0.3565 -1.5109
   9423SM   C3S12656   3.743   6.124  13.204  0.0458  0.1528  0.3684
   9423SM   H3S12657   3.799   6.029  13.200  0.3708  0.3129  0.9805
   9423SM    O312658   3.712   6.167  13.073  0.5345  0.0590  0.2383
   9423SM   HO312659   3.795   6.210  13.050 -0.2646  2.2016  1.1445
   9423SM   C4S12660   3.615   6.116  13.286 -0.0364 -0.1931  0.3697
   9423SM   H4S12661   3.539   6.195  13.275  1.5908  1.7655  2.2590
   9423SM   C5S12662   3.596   6.034  13.394 -0.8114 -0.3194  0.2062
   9423SM   H5S12663   3.694   5.989  13.418  0.8216  1.3424 -2.6369
   9423SM   C6S12664   3.490   6.019  13.494  0.0315  0.4450  0.7377
   9423SM   H6S12665   3.423   5.940  13.454  0.9883  1.2153 -2.7779
   9423SM   H6T12666   3.436   6.115  13.498 -0.3112  0.2322  1.2706
   9423SM   C7S12667   3.554   5.966  13.620 -0.4338 -0.5504 -0.5478
   9423SM   H7S12668   3.645   6.021  13.650 -0.0207 -1.2372 -0.5240
   9423SM   H7T12669   3.592   5.862  13.612  2.1792  0.3295 -0.4736
   9423SM   C8S12670   3.460   5.986  13.739  0.0114  0.0530  0.0818
   9423SM   H8S12671   3.373   5.917  13.729  0.6708 -0.8446  0.4422
   9423SM   H8T12672   3.408   6.083  13.723  0.9433  0.4140 -0.8776
   9423SM   C9S12673   3.527   5.979  13.880  0.5932  0.5110 -0.0946
   9423SM   H9S12674   3.611   6.051  13.891  1.3464 -0.5431  1.4244
   9423SM   H9T12675   3.579   5.881  13.886  1.9208  1.1660 -0.4906
   9423SM  C10S12676   3.428   5.985  14.000 -0.5200 -0.2162 -0.0455
   9423SM  H10S12677   3.348   5.909  13.994 -2.3087  1.5660  0.1836
   9423SM  H10T12678   3.377   6.083  13.987 -1.4839 -0.4673  1.6393
   9423SM  C11S12679   3.506   5.971  14.129 -0.1139  0.9052 -0.1657
   9423SM  H11S12680   3.602   6.027  14.134  1.5718 -1.8329  4.4407
   9423SM  H11T12681   3.545   5.868  14.127 -2.4861 -0.0511 -2.2171
   9423SM  C12S12682   3.426   5.987  14.260  0.5450  0.3351 -0.1591
   9423SM  H12S12683   3.345   5.911  14.270  0.7955 -0.1175 -1.3109
   9423SM  H12T12684   3.376   6.086  14.258 -1.0908 -0.2784  3.3087
   9423SM  C13S12685   3.508   5.987  14.391  0.5630 -0.3571 -0.8176
   9423SM  H13S12686   3.588   6.063  14.376  0.4919 -0.1105 -0.0117
   9423SM  H13T12687   3.563   5.894  14.419  0.0678 -0.3801  0.0956
   9423SM  C14S12688   3.422   6.033  14.509 -0.8110  0.9656  0.0509
   9423SM  H14S12689   3.350   5.954  14.536  0.4935  0.1680  1.3099
   9423SM  H14T12690   3.373   6.128  14.477 -1.7611  1.0571  1.6761
   9423SM  C15S12691   3.497   6.057  14.640 -0.1636 -0.1772 -0.0895
   9423SM  H15S12692   3.552   5.966  14.671 -0.1630 -0.0721  0.2232
   9423SM  H15T12693   3.413   6.077  14.710 -0.5590  1.3458 -0.9487
   9423SM  C16S12694   3.581   6.189  14.652  0.8583  0.4194  0.0058
   9423SM  H16S12695   3.588   6.222  14.758 -1.2926  1.3208 -0.0806
   9423SM  H16T12696   3.522   6.272  14.608 -2.1320 -0.5463  1.8661
   9423SM  C17S12697   3.719   6.192  14.587  0.0948  0.3636  0.0844
   9423SM  H17S12698   3.702   6.199  14.478 -3.6089 -1.2448  0.4313
   9423SM  H17T12699   3.773   6.098  14.612 -1.5089 -0.4228  0.6850
   9423SM  C18S12700   3.798   6.318  14.635 -0.0890 -0.4359 -0.1755
   9423SM  H18S12701   3.904   6.315  14.600 -0.1838 -1.0087 -0.4280
   9423SM  H18T12702   3.804   6.322  14.746 -0.9543 -1.7595 -0.0619
   9423SM  H18U12703   3.760   6.415  14.598  0.9112  0.2315  0.5046
   9423SM   C1F12704   3.939   6.281  13.493  0.0403 -0.9180 -0.0143
   9423SM    OF12705   3.963   6.394  13.445  0.1900  0.5809  0.1737
   9423SM   C2F12706   3.983   6.241  13.631 -0.2814  0.1674 -0.3886
   9423SM   H2F12707   4.092   6.239  13.612 -0.4162 -0.5931 -1.1083
   9423SM   H2G12708   3.936   6.144  13.657 -2.3953  1.9035  2.9852
   9423SM   C3F12709   3.949   6.357  13.726  0.0506  0.2679 -0.4456
   9423SM   H3F12710   3.844   6.346  13.761  0.0338  3.4785  0.8660
   9423SM   H3G12711   3.956   6.460  13.685 -1.2061  0.2932 -0.6459
   9423SM   C4F12712   4.037   6.341  13.854  0.2040  0.0342  0.2869
   9423SM   H4F12713   4.021   6.422  13.930  0.4479 -1.9364  2.5611
   9423SM   H4G12714   4.145   6.356  13.832 -0.3305  2.7133 -0.9235
   9423SM   C5F12715   4.005   6.204  13.924 -0.4230 -0.4692  0.7715
   9423SM   H5F12716   4.027   6.117  13.857  1.0007  1.0398 -0.8335
   9423SM   H5G12717   3.897   6.203  13.947 -0.5709 -0.2482  0.1179
   9423SM   C6F12718   4.074   6.191  14.059 -0.2019 -0.1096  0.5303
   9423SM   H6F12719   4.038   6.277  14.119 -0.0731  0.8351 -0.6927
   9423SM   H6G12720   4.181   6.217  14.041 -0.0324 -1.1624 -0.1049
   9423SM   C7F12721   4.069   6.051  14.124  0.5955 -0.0896  0.2417
   9423SM   H7F12722   4.146   6.045  14.204  0.1459  2.8729  0.9982
   9423SM   H7G12723   4.091   5.976  14.045 -3.0163  0.4574 -1.4840
   9423SM   C8F12724   3.934   6.012  14.182 -0.3331 -0.3430 -0.2112
   9423SM   H8F12725   3.855   6.015  14.103 -1.2934 -0.8207  0.7079
   9423SM   H8G12726   3.917   6.093  14.256  1.0296 -0.1286 -0.1179
   9423SM   C9F12727   3.933   5.867  14.248  0.2798  0.7458 -0.4603
   9423SM   H9F12728   3.992   5.856  14.342 -2.6238  0.9804  1.5200
   9423SM   H9G12729   3.966   5.794  14.171  0.0601 -0.9820  1.0144
   9423SM  C10F12730   3.793   5.817  14.278 -0.3418 -0.2729 -0.1617
   9423SM  H10F12731   3.717   5.844  14.202 -1.6751  0.9351  1.5185
   9423SM  H10G12732   3.761   5.876  14.367  2.0773 -1.5959  1.7288
   9423SM  C11F12733   3.782   5.673  14.310  0.7897 -0.1221  0.2499
   9423SM  H11F12734   3.825   5.622  14.221  0.3785 -0.0643  0.0152
   9423SM  H11G12735   3.673   5.657  14.317  0.9217 -0.3079  2.5269
   9423SM  C12F12736   3.845   5.628  14.440 -0.3354  0.2651  0.2199
   9423SM  H12F12737   3.792   5.677  14.524  1.3996  2.2778  0.2246
   9423SM  H12G12738   3.949   5.665  14.428 -0.3672 -0.3909 -2.9480
   9423SM  C13F12739   3.850   5.478  14.464 -0.8943  0.6158 -0.1798
   9423SM  H13F12740   3.874   5.427  14.368  0.2954  1.3083 -0.2754
   9423SM  H13G12741   3.745   5.456  14.491 -0.3513 -0.9090  0.7776
   9423SM  C14F12742   3.956   5.434  14.573  0.3254 -0.5230 -0.4154
   9423SM  H14F12743   4.050   5.469  14.525  1.0710  0.1752  1.4495
   9423SM  H14G12744   3.949   5.324  14.581 -0.8741 -0.7193 -3.0712
   9423SM  C15F12745   3.947   5.504  14.714  0.4775  0.6921  0.2570
   9423SM  H15F12746   3.914   5.606  14.685  1.4479  0.4971 -1.6888
   9423SM  H15G12747   4.046   5.511  14.764  0.2230  1.4236  0.6657
   9423SM  C16F12748   3.830   5.451  14.802  0.0591 -1.1533  0.6905
   9423SM  H16F12749   3.733   5.447  14.748 -0.4362  2.2371  1.1194
   9423SM  H16G12750   3.820   5.525  14.884  1.7037  1.5587 -1.3760
   9423SM  C17F12751   3.850   5.314  14.873 -0.0614  0.2385  0.0657
   9423SM  H17F12752   3.855   5.232  14.798  3.1500  1.5893 -1.3682
   9423SM  H17G12753   3.765   5.305  14.944  0.6790  0.5735  1.0030
   9423SM  C18F12754   3.982   5.301  14.951  0.8790  0.2866 -0.4720
   9423SM  H18F12755   3.988   5.368  15.039  2.9430 -1.2678  0.6697
   9423SM  H18G12756   4.065   5.340  14.889  0.2831  2.5144  0.0398
   9423SM  C19F12757   4.033   5.155  15.000  0.9672 -0.0450 -0.1331
   9423SM  H19F12758   3.944   5.088  15.001  1.4430 -0.6782  0.7984
   9423SM  H19G12759   4.080   5.164  15.100 -0.8038  0.9109  0.6597
   9423SM  C20F12760   4.127   5.079  14.899  0.4127  0.7893 -0.4440
   9423SM  H20F12761   4.075   5.040  14.809  1.7772 -0.8617 -0.5678
   9423SM  H20G12762   4.158   4.988  14.954  2.4916  1.5598 -0.2346
   9423SM  C21F12763   4.257   5.155  14.862 -0.3689 -0.0931 -0.0778
   9423SM  H21F12764   4.343   5.105  14.911 -0.0080  0.3640 -0.2451
   9423SM  H21G12765   4.261   5.259  14.901  3.1118 -0.1344 -0.0322
   9423SM  C22F12766   4.286   5.170  14.714  0.9203  0.3168  0.4198
   9423SM  H22F12767   4.211   5.234  14.664  1.8076  0.3051 -0.9926
   9423SM  H22G12768   4.286   5.074  14.657  1.1210  1.8347 -2.3040
   9423SM  C23F12769   4.425   5.230  14.692 -0.9241 -0.2389 -0.4675
   9423SM  H23F12770   4.447   5.240  14.583 -2.9015  2.3802 -0.7349
   9423SM  H23G12771   4.496   5.160  14.740 -3.0838 -2.3871 -0.2167
   9423SM  H23H12772   4.425   5.330  14.739 -1.6925 -0.6310  0.4181
   9523SM     N12773   7.594   0.002  13.121  0.1500  0.3172  0.2677
   9523SM   C1512774   7.458   0.031  13.064 -0.8777  0.1207 -0.3581
   9523SM  H15A12775   7.445   0.135  13.037 -1.2886  0.3506  0.7012
   9523SM  H15B12776   7.389   0.007  13.143 -0.6711 -0.2982 -0.3049
   9523SM  H15C12777   7.448  -0.032  12.977  1.2506 -0.2130 -0.4155
   9523SM   C1412778   7.611  -0.142  13.131  0.5338  0.2808 -0.1404
   9523SM  H14A12779   7.561  -0.184  13.216  2.6709  0.1510  1.1361
   9523SM  H14B12780   7.715  -0.158  13.157  0.4491 -0.6793 -0.3409
   9523SM  H14C12781   7.591  -0.200  13.042  1.2227 -0.7644  0.3629
   9523SM   C1312782   7.696   0.061  13.027  0.5021 -0.3320 -0.1388
   9523SM  H13A12783   7.699   0.023  12.926  3.3177 -0.4046 -0.1193
   9523SM  H13B12784   7.793   0.058  13.075  0.0506  1.0435  0.9306
   9523SM  H13C12785   7.670   0.163  13.004 -0.1381 -0.9217 -2.2085
   9523SM   C1212786   7.617   0.063  13.258 -0.3130  0.3459 -0.4149
   9523SM  H12A12787   7.526   0.047  13.315 -0.6569  0.1248 -1.0206
   9523SM  H12B12788   7.615   0.170  13.241  1.5428  0.6534  1.0469
   9523SM   C1112789   7.740   0.019  13.346  0.3785 -0.4399  0.1005
   9523SM  H11A12790   7.726  -0.082  13.390  0.8475 -0.9785 -0.9673
   9523SM  H11B12791   7.737   0.094  13.428 -0.1162 -1.0593  0.6658
   9523SM     P12792   7.989   0.092  13.331  0.0095  0.0957  0.1159
   9523SM   O1312793   8.092   0.089  13.228  0.0865 -0.1710  0.4307
   9523SM   O1412794   7.961   0.226  13.386 -0.2881 -0.3819  0.3324
   9523SM   O1112795   8.021  -0.004  13.442  0.4179  0.2503 -0.5071
   9523SM   O1212796   7.859   0.027  13.267  0.0036 -0.0016  0.2060
   9523SM   C1S12797   8.156  -0.002  13.498 -0.0020 -0.0236 -0.3214
   9523SM   H1S12798   8.193   0.102  13.489 -1.5106  0.6554  0.9080
   9523SM   H1T12799   8.219  -0.072  13.439 -2.9976 -2.0029 -1.4160
   9523SM    NF12800   8.295  -0.003  13.706 -0.1114  0.3596 -0.1592
   9523SM   HNF12801   8.358  -0.081  13.713 -2.2336 -1.4222  0.1696
   9523SM   C2S12802   8.159  -0.032  13.651 -0.3406  1.1285  0.0676
   9523SM   H2S12803   8.091   0.040  13.700 -1.1639  1.6410 -1.7419
   9523SM   C3S12804   8.112  -0.182  13.667  0.1469  0.6311  0.0986
   9523SM   H3S12805   8.190  -0.249  13.623 -0.4605 -0.1412  0.1739
   9523SM    O312806   7.992  -0.219  13.609  0.2836  0.4123 -0.7224
   9523SM   HO312807   7.976  -0.159  13.535  1.2177  0.1178 -1.1686
   9523SM   C4S12808   8.104  -0.218  13.809  0.4649  0.2876 -0.6314
   9523SM   H4S12809   8.071  -0.138  13.877  0.7782 -0.0050 -0.1305
   9523SM   C5S12810   8.149  -0.323  13.877 -0.1619 -0.5722  0.2576
   9523SM   H5S12811   8.180  -0.413  13.821  0.9287 -0.3219  0.4217
   9523SM   C6S12812   8.150  -0.353  14.025 -0.4033  0.4503  0.7398
   9523SM   H6S12813   8.245  -0.408  14.043 -0.3931 -0.9628 -2.9007
   9523SM   H6T12814   8.072  -0.428  14.049 -0.8266  0.6546  0.0464
   9523SM   C7S12815   8.129  -0.230  14.115 -0.4145  0.7279 -0.3427
   9523SM   H7S12816   8.026  -0.189  14.104 -0.7496 -0.0182 -0.0091
   9523SM   H7T12817   8.208  -0.151  14.116 -1.8812  2.2551  0.2245
   9523SM   C8S12818   8.127  -0.288  14.263  0.4989 -0.3021 -0.8949
   9523SM   H8S12819   8.232  -0.310  14.293  0.8501  1.2643 -0.9002
   9523SM   H8T12820   8.063  -0.378  14.270  1.2459 -0.8651 -1.1295
   9523SM   C9S12821   8.072  -0.182  14.358 -0.7794 -0.3246 -0.2779
   9523SM   H9S12822   7.967  -0.159  14.330 -0.0899 -0.7698 -3.5878
   9523SM   H9T12823   8.126  -0.087  14.343 -0.8811 -0.2156  0.0308
   9523SM  C10S12824   8.082  -0.205  14.514 -0.4628 -0.4676 -0.2962
   9523SM  H10S12825   8.011  -0.132  14.558  1.7699  0.2918  2.3397
   9523SM  H10T12826   8.184  -0.177  14.548  0.5111 -2.1573 -1.6882
   9523SM  C11S12827   8.039  -0.348  14.544 -0.0666 -0.3039  0.4729
   9523SM  H11S12828   8.104  -0.418  14.487 -1.0685  2.6962 -5.0574
   9523SM  H11T12829   7.935  -0.350  14.506 -0.1725  1.7909  0.5730
   9523SM  C12S12830   8.032  -0.385  14.691  0.2621  0.3930  0.0017
   9523SM  H12S12831   8.016  -0.302  14.762  0.1149 -0.9378  1.5854
   9523SM  H12T12832   8.136  -0.423  14.703 -0.3590 -1.3830  0.0609
   9523SM  C13S12833   7.922  -0.485  14.725 -0.0229  0.2851 -0.5110
   9523SM  H13S12834   7.951  -0.574  14.665  2.1822 -0.3799  1.3633
   9523SM  H13T12835   7.828  -0.434  14.696 -1.0731 -2.7372 -2.9267
   9523SM  C14S12836   7.926  -0.522  14.875  0.8456  0.5094 -0.3825
   9523SM  H14S12837   7.904  -0.426  14.926  1.7923 -1.3286  3.9060
   9523SM  H14T12838   8.032  -0.554  14.886  0.8712 -1.3593 -4.2428
   9523SM  C15S12839   7.821  -0.633  14.898  0.1857  0.1490 -1.0480
   9523SM  H15S12840   7.857  -0.729  14.855 -0.1674 -0.6399  0.3503
   9523SM  H15T12841   7.724  -0.596  14.859  0.7811  2.9877 -0.0476
   9523SM  C16S12842   7.787  -0.653  15.049  0.6588 -0.5270  0.7176
   9523SM  H16S12843   7.700  -0.722  15.053  0.7853 -0.6697  1.0814
   9523SM  H16T12844   7.757  -0.550  15.078 -1.1993 -1.4778  2.3258
   9523SM  C17S12845   7.899  -0.698  15.132 -0.3805  0.3076  0.7779
   9523SM  H17S12846   7.978  -0.620  15.133  0.1409 -0.2078  0.7323
   9523SM  H17T12847   7.947  -0.794  15.102  1.4264  1.2766  0.3752
   9523SM  C18S12848   7.866  -0.730  15.274  0.1316 -0.2922 -0.0510
   9523SM  H18S12849   7.846  -0.634  15.327 -2.5735  0.0539 -1.5514
   9523SM  H18T12850   7.935  -0.798  15.328  1.3515 -0.6802 -2.0160
   9523SM  H18U12851   7.773  -0.788  15.290  0.7806 -1.3084  0.1544
   9523SM   C1F12852   8.333   0.124  13.732  0.3771 -0.2388 -0.7416
   9523SM    OF12853   8.256   0.217  13.728  0.1515 -0.6834  0.4572
   9523SM   C2F12854   8.476   0.147  13.766  0.3254  0.1150  0.4730
   9523SM   H2F12855   8.540   0.146  13.675  0.7172 -1.8261  0.7256
   9523SM   H2G12856   8.510   0.061  13.827 -2.0001 -2.4433 -1.5447
   9523SM   C3F12857   8.506   0.267  13.858 -0.3033 -0.5408 -0.2258
   9523SM   H3F12858   8.504   0.366  13.808 -3.6969 -1.0400 -1.3085
   9523SM   H3G12859   8.612   0.251  13.888 -0.6596 -0.8697  0.9029
   9523SM   C4F12860   8.429   0.273  13.992  0.3124 -0.2320  0.7901
   9523SM   H4F12861   8.407   0.176  14.040 -0.6911 -0.4272 -0.0337
   9523SM   H4G12862   8.327   0.314  13.974  0.5199 -0.2068 -0.4550
   9523SM   C5F12863   8.492   0.362  14.100  0.2537 -0.2339  0.3000
   9523SM   H5F12864   8.493   0.467  14.063  0.2154  0.7638  2.9559
   9523SM   H5G12865   8.596   0.325  14.114 -0.5322 -2.2837  1.1539
   9523SM   C6F12866   8.418   0.352  14.232  0.2530  0.0491  0.5496
   9523SM   H6F12867   8.406   0.242  14.249  1.2348 -0.3317 -1.0323
   9523SM   H6G12868   8.315   0.390  14.216  0.5116  0.6260  0.2300
   9523SM   C7F12869   8.480   0.424  14.350  0.1876 -0.3058 -0.5027
   9523SM   H7F12870   8.586   0.389  14.353  0.6082  0.9519 -0.1394
   9523SM   H7G12871   8.428   0.411  14.447 -1.4875 -0.4231 -1.3940
   9523SM   C8F12872   8.476   0.570  14.325 -0.0761  0.3268  0.0008
   9523SM   H8F12873   8.526   0.603  14.231  0.8045  2.6941  1.2265
   9523SM   H8G12874   8.529   0.623  14.407 -1.0168  2.7193 -0.8689
   9523SM   C9F12875   8.333   0.641  14.316  0.3361 -0.7042 -0.3244
   9523SM   H9F12876   8.275   0.607  14.228  1.2251 -2.8909 -0.1266
   9523SM   H9G12877   8.366   0.747  14.304 -0.8725 -0.4322 -1.4469
   9523SM  C10F12878   8.247   0.629  14.447 -0.1553 -0.5939 -0.4879
   9523SM  H10F12879   8.220   0.522  14.459 -2.4111 -0.0004  0.1617
   9523SM  H10G12880   8.159   0.694  14.428 -0.4488 -1.4637 -2.3202
   9523SM  C11F12881   8.319   0.682  14.569  0.2252  0.5026 -0.9552
   9523SM  H11F12882   8.338   0.790  14.551  0.2249  0.6468 -0.1053
   9523SM  H11G12883   8.414   0.636  14.604  0.3047  0.9216 -0.6140
   9523SM  C12F12884   8.225   0.674  14.690 -0.1287 -0.1628  0.2094
   9523SM  H12F12885   8.197   0.569  14.713 -0.0244 -0.2842 -0.2075
   9523SM  H12G12886   8.131   0.730  14.668  0.6778  2.2507  2.3892
   9523SM  C13F12887   8.288   0.736  14.821  0.3718  0.4337 -0.6706
   9523SM  H13F12888   8.318   0.840  14.794  1.6175 -0.0359 -1.1247
   9523SM  H13G12889   8.380   0.681  14.847 -0.3476 -0.6285 -0.2754
   9523SM  C14F12890   8.192   0.744  14.943  0.1007  0.0297 -0.5473
   9523SM  H14F12891   8.149   0.644  14.962 -1.0757  0.9121  1.8185
   9523SM  H14G12892   8.104   0.808  14.917  0.9125  0.4706 -2.4116
   9523SM  C15F12893   8.271   0.799  15.067  0.4748  0.6196 -1.0356
   9523SM  H15F12894   8.304   0.903  15.050 -0.2496  1.0299 -0.0372
   9523SM  H15G12895   8.360   0.740  15.096  0.7348  1.2558 -0.5143
   9523SM  C16F12896   8.175   0.785  15.192  0.1495 -0.1163 -0.3006
   9523SM  H16F12897   8.178   0.678  15.220  2.0911  0.5218  2.2571
   9523SM  H16G12898   8.068   0.812  15.173  0.6815  1.8037 -0.8319
   9523SM  C17F12899   8.207   0.863  15.323 -0.4996 -0.2363 -0.1676
   9523SM  H17F12900   8.234   0.967  15.297  0.7719 -0.0107  1.8623
   9523SM  H17G12901   8.300   0.828  15.372 -0.5188 -0.8982 -0.5907
   9523SM  C18F12902   8.104   0.852  15.431  0.4607 -0.1344 -0.2022
   9523SM  H18F12903   8.003   0.888  15.401 -0.9139 -1.5401  2.3513
   9523SM  H18G12904   8.135   0.902  15.525  1.2038 -1.6485  0.3885
   9523SM  C19F12905   8.069   0.710  15.480 -0.7852  0.8172 -0.1448
   9523SM  H19F12906   8.160   0.648  15.466 -1.3625  0.1636 -1.1227
   9523SM  H19G12907   8.000   0.676  15.401 -0.8422  0.8021 -0.0883
   9523SM  C20F12908   8.024   0.700  15.616  0.5216  0.3874 -0.3615
   9523SM  H20F12909   8.095   0.758  15.678  1.8753 -1.6880  0.1295
   9523SM  H20G12910   8.019   0.596  15.657 -1.0824  0.9288  0.9607
   9523SM  C21F12911   7.886   0.767  15.632  0.7355  0.0032 -0.3887
   9523SM  H21F12912   7.819   0.738  15.548 -1.0917  0.1748  0.9481
   9523SM  H21G12913   7.908   0.875  15.620  1.1597 -0.0768 -0.3664
   9523SM  C22F12914   7.827   0.729  15.766  0.1404 -0.7294  1.0287
   9523SM  H22F12915   7.896   0.768  15.843  0.7748 -1.6103  0.9250
   9523SM  H22G12916   7.826   0.618  15.779  1.1651 -0.9311 -0.3688
   9523SM  C23F12917   7.699   0.808  15.800 -0.8088  0.2827  0.1476
   9523SM  H23F12918   7.725   0.915  15.812 -1.0091  0.1956  1.5098
   9523SM  H23G12919   7.658   0.764  15.893  1.2410  0.5568  1.2349
   9523SM  H23H12920   7.630   0.789  15.715  0.3710 -1.6356 -0.4596
   9623SM     N12921   3.752   0.787  13.053 -0.4608 -0.7646  0.0130
   9623SM   C1512922   3.658   0.754  12.944  0.3056  0.4352  0.0565
   9623SM  H15A12923   3.633   0.649  12.949  1.0118  0.3084  1.7964
   9623SM  H15B12924   3.696   0.777  12.846 -1.5447 -0.1696 -0.8433
   9623SM  H15C12925   3.565   0.808  12.951 -0.0100 -0.2631  1.5663
   9623SM   C1412926   3.880   0.728  13.032 -0.6867  0.3229 -0.2696
   9623SM  H14A12927   3.949   0.756  13.110 -1.7747 -2.0573  1.6978
   9623SM  H14B12928   3.920   0.767  12.939  1.3655  1.0929  0.8736
   9623SM  H14C12929   3.876   0.620  13.024  0.0243  0.2054  0.7452
   9623SM   C1312930   3.764   0.937  13.055 -0.6682 -0.2338 -0.1511
   9623SM  H13A12931   3.805   0.986  12.968 -0.6070 -0.0376 -0.0129
   9623SM  H13B12932   3.807   0.983  13.143  1.7241 -0.0705 -1.3235
   9623SM  H13C12933   3.664   0.979  13.063 -0.2243  0.6709  0.8965
   9623SM   C1212934   3.695   0.748  13.189 -0.3490 -0.0155 -0.0444
   9623SM  H12A12935   3.591   0.773  13.202 -0.6272 -0.8930 -0.4866
   9623SM  H12B12936   3.737   0.805  13.271 -0.4764  1.0426 -0.6948
   9623SM   C1112937   3.709   0.598  13.226 -0.0692 -0.0899 -0.6748
   9623SM  H11A12938   3.670   0.573  13.327  0.3372 -1.6990 -0.8756
   9623SM  H11B12939   3.810   0.558  13.249 -1.0796 -1.5772  1.6652
   9623SM     P12940   3.502   0.475  13.137  0.1837 -0.0597 -0.2016
   9623SM   O1312941   3.431   0.567  13.234 -0.3851 -0.6188 -0.3109
   9623SM   O1412942   3.460   0.478  12.997  0.0561 -0.5580 -0.0682
   9623SM   O1112943   3.483   0.324  13.174  0.3276 -0.8064 -0.1222
   9623SM   O1212944   3.657   0.502  13.140  0.3422  0.3500  0.1984
   9623SM   C1S12945   3.560   0.288  13.287  0.0966 -0.2590 -0.3344
   9623SM   H1S12946   3.658   0.338  13.301  0.0207 -0.6745  2.2248
   9623SM   H1T12947   3.603   0.186  13.274  3.0627  0.8532 -0.0166
   9623SM    NF12948   3.570   0.243  13.532  0.3672  0.3847 -0.2420
   9623SM   HNF12949   3.579   0.144  13.541 -2.2327  0.1663  0.9408
   9623SM   C2S12950   3.476   0.273  13.426  0.4023 -0.2528  0.4349
   9623SM   H2S12951   3.432   0.373  13.444 -2.1180 -1.4111  1.1719
   9623SM   C3S12952   3.361   0.172  13.399 -0.3377  0.5335  1.1147
   9623SM   H3S12953   3.399   0.076  13.358  0.0109  1.0822  0.1257
   9623SM    O312954   3.272   0.219  13.298 -0.1689 -0.3993 -0.0764
   9623SM   HO312955   3.328   0.275  13.244  0.0727 -0.6176 -0.0533
   9623SM   C4S12956   3.286   0.133  13.518  0.0978 -0.1601 -0.1122
   9623SM   H4S12957   3.340   0.056  13.575 -0.7234 -1.3718 -0.9283
   9623SM   C5S12958   3.174   0.176  13.576  0.1010 -0.5309 -0.5129
   9623SM   H5S12959   3.110   0.254  13.530  0.1405 -1.3641 -2.0460
   9623SM   C6S12960   3.100   0.102  13.688 -0.3833  0.1677  0.1586
   9623SM   H6S12961   3.094   0.161  13.781  0.1650  0.8281 -0.2246
   9623SM   H6T12962   3.148   0.008  13.723 -1.1168  0.4910  2.1442
   9623SM   C7S12963   2.955   0.068  13.637 -0.4969 -0.9781 -0.4162
   9623SM   H7S12964   2.973  -0.000  13.551  1.4666 -1.3223  0.2311
   9623SM   H7T12965   2.905   0.162  13.606  0.9470 -0.1286 -0.2492
   9623SM   C8S12966   2.886  -0.014  13.741  0.3913 -0.3055 -0.6021
   9623SM   H8S12967   2.959  -0.051  13.816 -0.5011  0.9352  0.9421
   9623SM   H8T12968   2.862  -0.113  13.698 -0.6460 -0.7265  0.8673
   9623SM   C9S12969   2.767   0.042  13.829  0.0689  0.5886 -0.0578
   9623SM   H9S12970   2.724  -0.038  13.893  0.0873 -0.9922 -1.9152
   9623SM   H9T12971   2.684   0.078  13.766 -1.7278 -1.0554  1.2493
   9623SM  C10S12972   2.816   0.141  13.929 -0.6004 -0.5142 -0.2666
   9623SM  H10S12973   2.850   0.226  13.866 -0.0741 -0.7802 -0.3481
   9623SM  H10T12974   2.910   0.112  13.980  0.3157  1.3972 -0.7669
   9623SM  C11S12975   2.699   0.192  14.013  0.6067  0.5475 -0.0774
   9623SM  H11S12976   2.652   0.106  14.064 -0.1076 -0.2592 -2.0069
   9623SM  H11T12977   2.614   0.229  13.952  0.7213  1.2497  0.1815
   9623SM  C12S12978   2.743   0.303  14.112 -0.1635 -0.0948  0.5099
   9623SM  H12S12979   2.756   0.390  14.044 -1.2096 -0.2770  0.0592
   9623SM  H12T12980   2.837   0.273  14.163  1.6676 -0.1769 -2.6415
   9623SM  C13S12981   2.639   0.347  14.217  0.0881  0.1509 -0.1533
   9623SM  H13S12982   2.631   0.270  14.296  0.6157  0.2681  0.0173
   9623SM  H13T12983   2.542   0.372  14.170  1.2512  2.8165 -1.4227
   9623SM  C14S12984   2.689   0.479  14.282  0.2606  0.1859 -0.0435
   9623SM  H14S12985   2.692   0.552  14.198 -1.2541  1.9848  1.3762
   9623SM  H14T12986   2.793   0.483  14.321  1.4035  0.9838 -2.8981
   9623SM  C15S12987   2.579   0.531  14.368  0.0037 -0.8325 -0.1624
   9623SM  H15S12988   2.482   0.528  14.313  0.9763  1.3139 -2.1339
   9623SM  H15T12989   2.593   0.637  14.395  0.7405 -0.4691 -1.8593
   9623SM  C16S12990   2.565   0.442  14.501  0.3363 -0.4645  0.0776
   9623SM  H16S12991   2.555   0.335  14.474 -3.8349 -0.0688 -0.6017
   9623SM  H16T12992   2.466   0.464  14.544  0.2828 -0.5250 -0.0141
   9623SM  C17S12993   2.688   0.478  14.590 -0.4271  0.1220 -0.3365
   9623SM  H17S12994   2.716   0.585  14.575  1.2515 -0.7360 -5.3204
   9623SM  H17T12995   2.773   0.415  14.557 -0.9595 -0.3909 -0.7619
   9623SM  C18S12996   2.665   0.446  14.735  0.7649  0.4886  0.0007
   9623SM  H18S12997   2.571   0.496  14.767 -0.2133 -0.7421 -0.8427
   9623SM  H18T12998   2.741   0.481  14.809  1.6511  0.0323 -0.6786
   9623SM  H18U12999   2.644   0.338  14.752 -3.0390  0.8963 -1.1161
   9623SM   C1F13000   3.651   0.330  13.582  0.5145  0.7368 -0.6762
   9623SM    OF13001   3.646   0.448  13.563 -0.1963 -0.3631 -1.1359
   9623SM   C2F13002   3.764   0.269  13.662  0.0648 -0.0331 -0.6233
   9623SM   H2F13003   3.805   0.183  13.606  0.5793  0.6417 -1.3067
   9623SM   H2G13004   3.719   0.221  13.752 -0.6819  0.3551 -0.7726
   9623SM   C3F13005   3.886   0.352  13.702 -0.1133  0.0795  0.2674
   9623SM   H3F13006   3.858   0.423  13.783  0.7407  0.1114  0.5522
   9623SM   H3G13007   3.908   0.412  13.611 -3.1695  1.0615  0.0647
   9623SM   C4F13008   3.997   0.267  13.762 -0.3179 -0.5048 -0.3751
   9623SM   H4F13009   4.071   0.339  13.802 -0.5251 -0.7067  0.4004
   9623SM   H4G13010   4.048   0.208  13.684 -0.4714 -0.4856 -0.4904
   9623SM   C5F13011   3.955   0.171  13.881 -0.2120 -0.0508  0.8797
   9623SM   H5F13012   3.894   0.090  13.836 -2.9428  1.0686  2.3687
   9623SM   H5G13013   3.894   0.226  13.955 -0.0147 -2.2872  2.8273
   9623SM   C6F13014   4.079   0.102  13.946 -0.0974 -0.8688 -0.0073
   9623SM   H6F13015   4.100   0.177  14.026 -0.7693 -0.4748 -0.1911
   9623SM   H6G13016   4.153   0.098  13.864  0.5028  0.6903  0.4169
   9623SM   C7F13017   4.063  -0.042  13.987  0.2796  0.7882 -0.0369
   9623SM   H7F13018   4.157  -0.076  14.036  1.0243  2.3537 -0.3422
   9623SM   H7G13019   4.045  -0.106  13.898 -2.7525 -0.5344  1.4013
   9623SM   C8F13020   3.935  -0.060  14.073 -0.4526  1.3053  0.0652
   9623SM   H8F13021   3.920  -0.166  14.103  0.4985  0.6621 -1.6228
   9623SM   H8G13022   3.843  -0.042  14.014 -1.3265 -1.7009  0.3534
   9623SM   C9F13023   3.935   0.013  14.212  0.1084 -0.2094 -0.0593
   9623SM   H9F13024   3.942   0.122  14.190 -4.6604  0.3052 -0.1484
   9623SM   H9G13025   4.033  -0.011  14.259 -1.0597 -3.2179  1.0923
   9623SM  C10F13026   3.818  -0.008  14.298  0.0011 -0.4723 -0.2459
   9623SM  H10F13027   3.722   0.019  14.250 -1.0096  0.0722  1.9617
   9623SM  H10G13028   3.826   0.068  14.379 -0.3321  0.4059 -1.0112
   9623SM  C11F13029   3.806  -0.151  14.351  0.3116  0.0147 -0.1650
   9623SM  H11F13030   3.907  -0.192  14.375  1.3259  1.0546 -2.3746
   9623SM  H11G13031   3.753  -0.208  14.271 -0.1760  2.3193 -1.5681
   9623SM  C12F13032   3.722  -0.159  14.483  0.4667 -0.9537  0.6861
   9623SM  H12F13033   3.620  -0.121  14.463  1.1853  1.6538  1.5552
   9623SM  H12G13034   3.775  -0.082  14.543 -0.1686  0.5911 -0.6564
   9623SM  C13F13035   3.737  -0.301  14.544  0.3262 -0.4749  0.0268
   9623SM  H13F13036   3.732  -0.378  14.464 -3.1215  0.7730 -1.1380
   9623SM  H13G13037   3.659  -0.313  14.622 -0.2148  0.3353 -0.3835
   9623SM  C14F13038   3.870  -0.315  14.618 -0.0534 -0.5713  0.2789
   9623SM  H14F13039   3.914  -0.218  14.647  0.8493 -0.8446 -0.1311
   9623SM  H14G13040   3.945  -0.348  14.543  0.8339  2.1191 -0.1221
   9623SM  C15F13041   3.878  -0.415  14.732  0.0590  0.0436 -0.3267
   9623SM  H15F13042   3.983  -0.420  14.767  0.7374  0.9283 -2.0931
   9623SM  H15G13043   3.837  -0.516  14.710 -2.2449  1.2564 -2.0465
   9623SM  C16F13044   3.787  -0.380  14.852  0.2382  0.1095 -0.5918
   9623SM  H16F13045   3.693  -0.325  14.832  0.2559 -0.2138 -1.6476
   9623SM  H16G13046   3.833  -0.310  14.925 -1.9727  0.7009  0.3335
   9623SM  C17F13047   3.768  -0.509  14.940 -0.8810 -0.4990 -0.1937
   9623SM  H17F13048   3.863  -0.564  14.951 -0.8626 -0.4053  0.1411
   9623SM  H17G13049   3.701  -0.587  14.898 -0.8210 -1.3621  1.2186
   9623SM  C18F13050   3.706  -0.472  15.071 -0.4212  0.3091  0.1272
   9623SM  H18F13051   3.608  -0.422  15.052  0.3740  2.3780  1.1031
   9623SM  H18G13052   3.765  -0.400  15.131 -2.6702  0.9950  1.6553
   9623SM  C19F13053   3.681  -0.592  15.169  0.8554 -0.1813  0.3817
   9623SM  H19F13054   3.777  -0.617  15.219  0.5074  0.5054  1.4191
   9623SM  H19G13055   3.649  -0.681  15.111  1.4049 -1.2198  1.6063
   9623SM  C20F13056   3.567  -0.561  15.273  0.0435  0.4613 -0.0841
   9623SM  H20F13057   3.471  -0.529  15.228 -0.5839 -2.4566 -0.9970
   9623SM  H20G13058   3.609  -0.473  15.327  1.1477 -0.9265  1.4127
   9623SM  C21F13059   3.548  -0.672  15.382 -0.4452  0.4018 -0.4251
   9623SM  H21F13060   3.644  -0.676  15.438 -0.2671  1.3097 -0.6445
   9623SM  H21G13061   3.534  -0.773  15.338  3.2544 -1.7635  2.7412
   9623SM  C22F13062   3.432  -0.637  15.480 -0.2533 -0.2130 -0.0372
   9623SM  H22F13063   3.408  -0.736  15.525  2.5942 -1.9567 -2.0089
   9623SM  H22G13064   3.352  -0.593  15.417  1.6062  0.6848 -1.9020
   9623SM  C23F13065   3.476  -0.533  15.586  0.4094 -0.2747 -0.3025
   9623SM  H23F13066   3.398  -0.522  15.665 -0.8151 -4.7148 -0.6308
   9623SM  H23G13067   3.508  -0.436  15.542 -0.3813  0.7806  1.3390
   9623SM  H23H13068   3.567  -0.562  15.644 -0.2882  0.1366  1.0607
   9723SM     N13069   4.595   7.113  12.308  0.0146  0.1413  0.2283
   9723SM   C1513070   4.487   7.002  12.290 -0.2761 -1.1888  0.0105
   9723SM  H15A13071   4.535   6.906  12.282  0.9335 -0.4769 -2.6927
   9723SM  H15B13072   4.435   7.013  12.195  1.1674 -1.3315 -0.8285
   9723SM  H15C13073   4.412   7.008  12.368  1.3835 -3.5410  1.9257
   9723SM   C1413074   4.708   7.089  12.214 -0.3631  0.6723 -0.2397
   9723SM  H14A13075   4.765   7.003  12.244  0.9364  0.2166 -3.5588
   9723SM  H14B13076   4.764   7.182  12.211  0.8450 -0.0185  0.2496
   9723SM  H14C13077   4.669   7.065  12.116  1.6986 -0.7350 -0.7758
   9723SM   C1313078   4.535   7.246  12.279 -0.4652  0.4424 -0.5913
   9723SM  H13A13079   4.473   7.242  12.191  1.0363 -1.8266 -1.6583
   9723SM  H13B13080   4.610   7.322  12.262 -1.4090  2.3998  3.0786
   9723SM  H13C13081   4.475   7.279  12.362  1.1912  0.9932  0.4435
   9723SM   C1213082   4.650   7.112  12.445 -0.1270 -0.2902 -0.3076
   9723SM  H12A13083   4.722   7.193  12.455 -0.9296  0.2196  1.8825
   9723SM  H12B13084   4.703   7.020  12.461  0.0221 -0.3330 -1.0099
   9723SM   C1113085   4.571   7.143  12.575 -0.9367  0.0047 -0.3507
   9723SM  H11A13086   4.544   7.250  12.562  0.8747  0.5161 -0.1951
   9723SM  H11B13087   4.647   7.144  12.656 -0.8510  2.2545 -0.3826
   9723SM     P13088   4.450   6.931  12.670 -0.1390  0.3609 -0.5288
   9723SM   O1313089   4.311   6.888  12.689  0.1564  0.3615  0.3815
   9723SM   O1413090   4.545   6.835  12.612  0.1990 -0.4375 -0.6955
   9723SM   O1113091   4.496   6.974  12.809 -0.1850  0.4416  0.3166
   9723SM   O1213092   4.453   7.064  12.589  0.2961 -0.0091 -0.4564
   9723SM   C1S13093   4.427   7.078  12.883  0.2125  1.0261 -0.0058
   9723SM   H1S13094   4.321   7.049  12.895 -0.0073  1.8722  0.0960
   9723SM   H1T13095   4.438   7.169  12.820  1.0974  0.8999 -0.0477
   9723SM    NF13096   4.398   7.179  13.109 -0.5868  0.3327 -0.1120
   9723SM   HNF13097   4.423   7.267  13.148 -1.2002  0.4625  0.0133
   9723SM   C2S13098   4.487   7.106  13.024  0.2777  0.0839  0.7292
   9723SM   H2S13099   4.509   7.008  13.071 -0.4885  0.4143  1.8071
   9723SM   C3S13100   4.624   7.179  13.007 -0.0070 -0.1297  0.2978
   9723SM   H3S13101   4.597   7.270  12.950  0.2321 -0.4691 -0.3725
   9723SM    O313102   4.716   7.104  12.928 -0.2644 -0.3730  0.2584
   9723SM   HO313103   4.657   7.036  12.894 -0.7849 -0.4920  1.3666
   9723SM   C4S13104   4.689   7.209  13.139 -0.0975  0.1784  0.7994
   9723SM   H4S13105   4.659   7.310  13.171  1.7878  1.3290 -0.8264
   9723SM   C5S13106   4.773   7.135  13.221 -0.8376  0.6111 -0.4426
   9723SM   H5S13107   4.824   7.044  13.187 -0.9558 -0.3773  1.8394
   9723SM   C6S13108   4.829   7.182  13.358 -0.2491 -0.0598  0.5942
   9723SM   H6S13109   4.934   7.158  13.383 -0.3061 -0.8484  0.1039
   9723SM   H6T13110   4.774   7.126  13.437 -0.4105 -0.2833  0.3267
   9723SM   C7S13111   4.798   7.330  13.386  0.7192  0.5161 -0.0875
   9723SM   H7S13112   4.687   7.338  13.387  0.6801  0.7858 -1.9304
   9723SM   H7T13113   4.831   7.390  13.298 -2.1133 -1.1958 -2.5162
   9723SM   C8S13114   4.851   7.387  13.522 -0.1304 -1.0784  0.0792
   9723SM   H8S13115   4.902   7.483  13.500  0.1609 -1.2047  0.1916
   9723SM   H8T13116   4.940   7.328  13.555  2.4618  1.4672 -1.8503
   9723SM   C9S13117   4.752   7.383  13.636 -0.5019 -0.5722 -0.7086
   9723SM   H9S13118   4.714   7.279  13.647 -0.7945 -0.3967 -0.0570
   9723SM   H9T13119   4.673   7.458  13.618 -1.1392 -0.8642  0.7537
   9723SM  C10S13120   4.826   7.407  13.771 -0.4232  0.9899  0.3032
   9723SM  H10S13121   4.890   7.320  13.798  0.7076  1.0299 -2.0335
   9723SM  H10T13122   4.747   7.416  13.849  0.5173  0.9552  1.2845
   9723SM  C11S13123   4.895   7.546  13.770  0.7727 -0.0142 -0.2132
   9723SM  H11S13124   4.813   7.615  13.742  0.5087 -0.2445 -0.0025
   9723SM  H11T13125   4.980   7.556  13.699  0.6139 -0.5635 -0.4853
   9723SM  C12S13126   4.941   7.591  13.912  0.3760  0.4825 -0.1983
   9723SM  H12S13127   5.000   7.504  13.950  1.2549  1.3104  0.3781
   9723SM  H12T13128   4.857   7.591  13.985 -0.0844 -0.9289 -0.6857
   9723SM  C13S13129   5.008   7.724  13.910  0.2635 -0.6496 -0.3376
   9723SM  H13S13130   5.095   7.728  13.842 -0.0041  1.2439 -0.6044
   9723SM  H13T13131   5.045   7.731  14.015 -0.6751  0.4411 -0.0599
   9723SM  C14S13132   4.905   7.833  13.883  0.3008  0.5376 -0.5312
   9723SM  H14S13133   4.847   7.835  13.978  0.7126 -0.4328 -0.2502
   9723SM  H14T13134   4.839   7.806  13.798  2.4719 -1.5046 -1.6952
   9723SM  C15S13135   4.957   7.968  13.868 -0.3109  0.1395  0.2529
   9723SM  H15S13136   4.871   8.037  13.882 -2.5818 -2.6232  0.8362
   9723SM  H15T13137   5.004   7.988  13.769 -0.8619  0.7922  0.1137
   9723SM  C16S13138   5.072   8.016  13.970  0.5986  0.2250 -0.2674
   9723SM  H16S13139   5.149   7.937  13.979 -2.5630 -2.9617  0.7448
   9723SM  H16T13140   5.018   8.017  14.066 -1.7717 -1.5493 -1.4983
   9723SM  C17S13141   5.126   8.155  13.913 -0.2331  0.0190  0.4604
   9723SM  H17S13142   5.040   8.219  13.885  0.7285  0.0481 -2.7450
   9723SM  H17T13143   5.173   8.129  13.816 -2.4248 -0.6739 -0.4859
   9723SM  C18S13144   5.217   8.221  14.015 -0.3115 -0.2156  0.4017
   9723SM  H18S13145   5.252   8.144  14.087  0.1087 -0.2577  0.1530
   9723SM  H18T13146   5.159   8.293  14.076 -2.1502 -0.9060 -0.4444
   9723SM  H18U13147   5.300   8.270  13.960  1.0466 -2.3852  0.3994
   9723SM   C1F13148   4.282   7.117  13.150 -0.0851 -0.6112  0.1133
   9723SM    OF13149   4.269   6.998  13.133  0.0786  0.1542 -0.1499
   9723SM   C2F13150   4.182   7.198  13.233 -0.4820  0.9114 -0.4850
   9723SM   H2F13151   4.118   7.259  13.166 -1.5544  0.0390 -0.2877
   9723SM   H2G13152   4.249   7.253  13.302  1.0080  1.4830 -2.3075
   9723SM   C3F13153   4.099   7.107  13.330 -0.1421 -0.2709 -0.1433
   9723SM   H3F13154   4.156   7.016  13.358 -2.7892 -1.0790  3.1811
   9723SM   H3G13155   4.011   7.070  13.274  1.3158 -0.8962 -2.1568
   9723SM   C4F13156   4.055   7.184  13.451 -0.5121  0.2577 -0.8514
   9723SM   H4F13157   4.051   7.294  13.440  1.6189  0.2260 -2.4492
   9723SM   H4G13158   4.146   7.171  13.513 -0.8047  0.0259 -0.4577
   9723SM   C5F13159   3.945   7.119  13.534 -0.0650  0.1240  0.2879
   9723SM   H5F13160   3.982   7.021  13.573  1.8037 -0.0554 -1.7714
   9723SM   H5G13161   3.860   7.079  13.474 -0.0894 -0.2581  0.5697
   9723SM   C6F13162   3.895   7.200  13.653 -0.2896 -0.3880 -0.0351
   9723SM   H6F13163   3.812   7.134  13.686 -1.1681 -0.9956 -3.1189
   9723SM   H6G13164   3.847   7.291  13.610  0.9703  0.7977  0.9594
   9723SM   C7F13165   4.005   7.209  13.748  0.0273 -0.0234  0.2244
   9723SM   H7F13166   4.079   7.283  13.710  1.3442 -0.7995  1.1764
   9723SM   H7G13167   4.063   7.116  13.766 -2.2215 -1.7127 -0.7634
   9723SM   C8F13168   3.956   7.255  13.886  0.1761 -1.0205 -0.2424
   9723SM   H8F13169   3.863   7.195  13.899  0.0025 -0.5569  0.7512
   9723SM   H8G13170   3.922   7.361  13.893 -1.9349 -1.7273  1.3073
   9723SM   C9F13171   4.064   7.219  13.993  1.1998  0.2860 -0.7154
   9723SM   H9F13172   4.153   7.282  13.973  2.0233 -0.4510  0.5156
   9723SM   H9G13173   4.077   7.111  13.973 -0.0907 -0.1961  0.7763
   9723SM  C10F13174   4.030   7.241  14.146 -0.2323  0.5037  0.3692
   9723SM  H10F13175   3.927   7.199  14.155 -0.6262  1.0084 -1.3553
   9723SM  H10G13176   4.031   7.348  14.175 -0.9104  0.3630  0.9521
   9723SM  C11F13177   4.135   7.180  14.235 -0.3013 -0.0413 -0.0112
   9723SM  H11F13178   4.233   7.230  14.225 -0.8935  1.2404  0.3534
   9723SM  H11G13179   4.151   7.074  14.206  0.7958  0.4937 -1.4883
   9723SM  C12F13180   4.103   7.169  14.379  0.2627  0.1264  0.1143
   9723SM  H12F13181   3.995   7.141  14.384  0.3026 -0.2835 -0.9862
   9723SM  H12G13182   4.114   7.265  14.434 -0.1089 -0.8865  2.0366
   9723SM  C13F13183   4.175   7.055  14.452 -0.8714 -0.2647 -0.1509
   9723SM  H13F13184   4.283   7.064  14.427 -1.1925  1.2876 -1.1741
   9723SM  H13G13185   4.127   6.967  14.405 -3.8596  0.9227  0.4191
   9723SM  C14F13186   4.180   7.054  14.609  0.2995  0.2701  0.5109
   9723SM  H14F13187   4.228   6.960  14.644 -1.5391 -1.4040 -1.2219
   9723SM  H14G13188   4.075   7.070  14.640 -0.3259 -0.1120 -1.3360
   9723SM  C15F13189   4.253   7.177  14.660  0.0594 -0.0549 -0.4502
   9723SM  H15F13190   4.197   7.262  14.616  2.1196  1.2078 -0.7532
   9723SM  H15G13191   4.358   7.180  14.623  0.4398  0.8193  0.6134
   9723SM  C16F13192   4.257   7.197  14.810  0.3728 -0.0525 -0.8091
   9723SM  H16F13193   4.156   7.194  14.858  0.1284 -0.4677 -1.3380
   9723SM  H16G13194   4.306   7.293  14.839  0.9269 -0.6419  0.2758
   9723SM  C17F13195   4.341   7.087  14.888 -0.1326  0.0103 -0.2483
   9723SM  H17F13196   4.291   6.991  14.865  0.4858 -0.3540 -0.0968
   9723SM  H17G13197   4.335   7.107  14.997  1.3072 -0.5835 -0.0392
   9723SM  C18F13198   4.487   7.082  14.854 -0.5156  0.0072  0.1886
   9723SM  H18F13199   4.522   7.185  14.831  0.2537 -0.5071 -1.0836
   9723SM  H18G13200   4.496   7.021  14.761  1.9759  1.0701 -0.3368
   9723SM  C19F13201   4.573   7.032  14.972  0.1228 -0.3235 -0.3494
   9723SM  H19F13202   4.538   6.937  15.017  3.0920 -0.7366  1.3651
   9723SM  H19G13203   4.544   7.099  15.055 -0.7777 -0.2151 -0.7362
   9723SM  C20F13204   4.721   7.042  14.931  0.5601  0.8778 -0.4919
   9723SM  H20F13205   4.748   7.137  14.880 -0.6091  1.1238 -0.6673
   9723SM  H20G13206   4.731   6.966  14.850  1.7531 -1.2255  1.4981
   9723SM  C21F13207   4.824   6.995  15.033  0.5181 -0.5948 -0.2527
   9723SM  H21F13208   4.920   7.004  14.977 -0.5408 -1.3429 -2.2943
   9723SM  H21G13209   4.798   6.889  15.051 -0.8074 -0.3632 -0.6582
   9723SM  C22F13210   4.808   7.072  15.169 -0.6439 -0.5030  0.7059
   9723SM  H22F13211   4.700   7.084  15.192 -0.7287  1.0970 -0.3273
   9723SM  H22G13212   4.864   7.167  15.156  1.5946 -1.9054 -0.5329
   9723SM  C23F13213   4.886   6.989  15.274  0.0103  0.7052  0.5902
   9723SM  H23F13214   4.915   7.057  15.356  0.6141  0.1709  0.8244
   9723SM  H23G13215   4.975   6.938  15.232 -2.5465 -2.7392 -1.1375
   9723SM  H23H13216   4.825   6.905  15.314 -0.2365  0.1913 -0.7936
   9823SM     N13217   7.021   7.449  13.236  0.2660 -0.7517  0.5172
   9823SM   C1513218   7.052   7.413  13.379 -0.2314 -0.8626  1.2226
   9823SM  H15A13219   7.098   7.493  13.435 -1.6499  0.3189  0.7552
   9823SM  H15B13220   7.121   7.330  13.373 -2.0496 -2.3561 -3.2319
   9823SM  H15C13221   6.964   7.375  13.428  0.1819 -0.5505  2.2434
   9823SM   C1413222   6.902   7.538  13.225  0.3453  0.1633 -0.8293
   9823SM  H14A13223   6.822   7.480  13.268 -0.1433 -0.1097 -2.0868
   9823SM  H14B13224   6.882   7.554  13.120  4.8516 -1.3357 -2.1626
   9823SM  H14C13225   6.915   7.634  13.273 -3.6968  0.2116  0.5778
   9823SM   C1313226   7.141   7.525  13.177 -0.0339 -0.3340 -0.0305
   9823SM  H13A13227   7.119   7.568  13.080  1.0960 -0.6341 -0.4249
   9823SM  H13B13228   7.224   7.457  13.170  1.7262  1.8774 -3.5685
   9823SM  H13C13229   7.158   7.618  13.230 -0.3727 -0.7372  0.8022
   9823SM   C1213230   6.983   7.327  13.157  0.1406  0.0691  0.1919
   9823SM  H12A13231   6.931   7.353  13.065  1.8161  1.1588 -0.4791
   9823SM  H12B13232   6.914   7.268  13.216 -2.1770 -0.7461 -2.9852
   9823SM   C1113233   7.096   7.234  13.112 -0.3481  1.1934  0.1423
   9823SM  H11A13234   7.184   7.287  13.067  1.2506 -1.7327 -0.4161
   9823SM  H11B13235   7.060   7.166  13.032 -0.3234 -0.3774  1.4261
   9823SM     P13236   7.080   7.017  13.257  0.2495 -0.2949 -0.1579
   9823SM   O1313237   6.934   7.045  13.253  0.1868 -0.2639 -0.5417
   9823SM   O1413238   7.140   6.923  13.157  0.3904 -0.4066  0.4412
   9823SM   O1113239   7.129   6.973  13.407  0.0185 -0.3862 -0.4048
   9823SM   O1213240   7.144   7.164  13.238  0.9916 -0.1374 -0.0295
   9823SM   C1S13241   7.198   7.081  13.482 -0.7223 -0.4751 -0.5585
   9823SM   H1S13242   7.133   7.167  13.510  0.4054 -0.0896  0.9751
   9823SM   H1T13243   7.288   7.110  13.424  0.8161  0.2505  2.0121
   9823SM    NF13244   7.299   7.143  13.697 -0.4109  0.5854  0.1710
   9823SM   HNF13245   7.396   7.170  13.699 -0.6110  1.2985  2.5293
   9823SM   C2S13246   7.257   7.030  13.616  0.3666  0.1559 -0.0586
   9823SM   H2S13247   7.173   6.978  13.668 -1.3061  1.5870 -1.2243
   9823SM   C3S13248   7.378   6.937  13.589  0.8579 -0.5034  0.0877
   9823SM   H3S13249   7.463   6.994  13.546 -0.3696  1.1182 -0.2846
   9823SM    O313250   7.364   6.835  13.487  0.2563  0.4507 -0.4639
   9823SM   HO313251   7.285   6.848  13.433  0.2699  0.7148 -0.4167
   9823SM   C4S13252   7.446   6.885  13.714 -0.4949 -0.2520  0.0939
   9823SM   H4S13253   7.509   6.960  13.763 -1.9690  2.3764 -1.7495
   9823SM   C5S13254   7.439   6.766  13.774  0.1170  0.2796 -0.7559
   9823SM   H5S13255   7.361   6.698  13.738  0.3803 -0.8986  0.8336
   9823SM   C6S13256   7.530   6.730  13.888 -0.0204  0.1187 -0.3521
   9823SM   H6S13257   7.588   6.811  13.937  0.2659  0.3554 -1.0660
   9823SM   H6T13258   7.615   6.672  13.845  0.0066  0.3674 -0.6345
   9823SM   C7S13259   7.467   6.634  13.999  0.1448 -0.1022  0.2862
   9823SM   H7S13260   7.538   6.568  14.054 -0.0212 -0.0027  0.6200
   9823SM   H7T13261   7.391   6.568  13.952 -0.9165  0.8951  0.5507
   9823SM   C8S13262   7.382   6.717  14.096 -0.1377 -0.0427 -0.0055
   9823SM   H8S13263   7.309   6.786  14.048 -2.1940 -1.5558  0.7816
   9823SM   H8T13264   7.457   6.785  14.142 -0.2483 -0.2217  0.4398
   9823SM   C9S13265   7.303   6.630  14.203 -0.2326  0.4083  0.5322
   9823SM   H9S13266   7.231   6.564  14.150  0.8226  0.6452 -1.2897
   9823SM   H9T13267   7.248   6.700  14.268  1.2364 -0.2275  2.5455
   9823SM  C10S13268   7.394   6.540  14.291 -0.2192 -0.3232 -0.1777
   9823SM  H10S13269   7.493   6.588  14.305 -0.6705  1.0187 -1.3795
   9823SM  H10T13270   7.421   6.452  14.230 -0.3078  0.3303 -1.1828
   9823SM  C11S13271   7.317   6.496  14.411 -0.6724 -0.7730  1.2416
   9823SM  H11S13272   7.212   6.464  14.396 -0.2648 -1.2507 -1.0586
   9823SM  H11T13273   7.313   6.595  14.461 -2.9569 -0.1852  0.0163
   9823SM  C12S13274   7.380   6.385  14.491 -0.3279  0.4807  0.7204
   9823SM  H12S13275   7.488   6.405  14.508  0.0131 -0.1083 -0.6308
   9823SM  H12T13276   7.364   6.301  14.421 -1.8230  2.7350 -1.8393
   9823SM  C13S13277   7.320   6.359  14.629 -0.2669 -0.2340 -0.1432
   9823SM  H13S13278   7.210   6.346  14.629 -0.5111  1.5339 -0.8844
   9823SM  H13T13279   7.329   6.451  14.692 -0.5822 -1.0966  1.1972
   9823SM  C14S13280   7.400   6.236  14.709 -0.1742 -0.4551  0.2876
   9823SM  H14S13281   7.367   6.233  14.814  1.5127  2.0273  0.9984
   9823SM  H14T13282   7.511   6.251  14.706 -0.1985 -0.4171 -1.0641
   9823SM  C15S13283   7.372   6.101  14.648 -0.0374 -0.1933 -0.8263
   9823SM  H15S13284   7.344   6.109  14.541  0.9524  1.6641 -0.9811
   9823SM  H15T13285   7.297   6.046  14.710 -1.1483  1.2488 -0.8357
   9823SM  C16S13286   7.490   6.008  14.635 -0.2834  0.2782 -0.3532
   9823SM  H16S13287   7.553   6.008  14.726 -0.2296 -0.1910 -0.3867
   9823SM  H16T13288   7.562   6.048  14.560  0.8472  0.0752  0.5917
   9823SM  C17S13289   7.452   5.867  14.604  0.2117  0.4461 -0.3852
   9823SM  H17S13290   7.422   5.862  14.497 -0.3640  0.3897 -0.2265
   9823SM  H17T13291   7.362   5.839  14.664  0.1799  0.7866 -0.2734
   9823SM  C18S13292   7.570   5.765  14.626  0.3644  0.0837  0.3056
   9823SM  H18S13293   7.604   5.770  14.731 -0.0399  1.3093  0.3966
   9823SM  H18T13294   7.662   5.789  14.567  0.0386 -0.7320 -0.5517
   9823SM  H18U13295   7.548   5.661  14.595 -0.2079  0.3483 -0.1871
   9823SM   C1F13296   7.210   7.213  13.761 -0.3151  0.9014 -0.2741
   9823SM    OF13297   7.090   7.210  13.735  0.0958 -0.2590  0.0401
   9823SM   C2F13298   7.268   7.298  13.868  0.2776  0.3366  0.1665
   9823SM   H2F13299   7.228   7.402  13.860 -0.1532  0.1347 -0.3475
   9823SM   H2G13300   7.379   7.297  13.861  0.4232 -0.8010  1.8545
   9823SM   C3F13301   7.225   7.241  14.004 -0.1831  0.4526 -0.8876
   9823SM   H3F13302   7.114   7.243  14.010 -0.0965  1.5214  1.7779
   9823SM   H3G13303   7.259   7.321  14.073  0.2051 -0.3592 -0.1197
   9823SM   C4F13304   7.283   7.106  14.052  0.3748  0.5405  0.1629
   9823SM   H4F13305   7.394   7.116  14.045  0.4769 -1.4283 -4.4463
   9823SM   H4G13306   7.245   7.029  13.982 -0.5605  0.8781  0.2917
   9823SM   C5F13307   7.239   7.060  14.197 -0.4949  0.2727 -0.0715
   9823SM   H5F13308   7.279   6.957  14.213 -2.3588 -0.6147 -0.8658
   9823SM   H5G13309   7.129   7.050  14.202 -0.4896 -0.3952 -1.0006
   9823SM   C6F13310   7.287   7.156  14.305 -0.1407  0.1834 -0.4744
   9823SM   H6F13311   7.252   7.260  14.283  2.0527  1.2903  0.9388
   9823SM   H6G13312   7.396   7.173  14.300 -0.0566  2.1513  3.6919
   9823SM   C7F13313   7.249   7.125  14.448  0.2071 -0.4395  0.3063
   9823SM   H7F13314   7.303   7.031  14.475 -0.6230 -0.3999  2.2829
   9823SM   H7G13315   7.140   7.123  14.465  0.2286 -1.3689  0.4228
   9823SM   C8F13316   7.297   7.232  14.554  0.1264  0.2968  0.3532
   9823SM   H8F13317   7.219   7.310  14.540  0.1953  0.0353 -1.8920
   9823SM   H8G13318   7.389   7.292  14.542 -1.9055  4.1733  2.1964
   9823SM   C9F13319   7.298   7.178  14.699  0.2756 -0.5889 -0.0602
   9823SM   H9F13320   7.249   7.078  14.695 -0.5093 -0.1668 -2.2479
   9823SM   H9G13321   7.231   7.241  14.762  0.6846 -1.4503  1.2798
   9823SM  C10F13322   7.440   7.177  14.770 -0.4596 -0.2101 -0.0650
   9823SM  H10F13323   7.478   7.281  14.757  0.1127 -0.4438 -0.3408
   9823SM  H10G13324   7.498   7.102  14.712  1.1424 -0.8396  2.2131
   9823SM  C11F13325   7.426   7.134  14.912 -0.1254 -0.4942 -0.0098
   9823SM  H11F13326   7.351   7.200  14.962  1.0417  0.3747  0.6705
   9823SM  H11G13327   7.528   7.148  14.954 -0.6362 -0.4376  1.2618
   9823SM  C12F13328   7.365   6.995  14.935  0.0513 -0.3615  0.0706
   9823SM  H12F13329   7.406   6.926  14.858  2.7700  0.9755  0.2080
   9823SM  H12G13330   7.254   7.003  14.933 -0.0714 -1.4338  1.1753
   9823SM  C13F13331   7.392   6.931  15.075 -0.5122 -0.1757  0.5398
   9823SM  H13F13332   7.392   7.012  15.151  0.6580  0.5716 -0.2116
   9823SM  H13G13333   7.490   6.881  15.089  1.1711  3.1770  1.9202
   9823SM  C14F13334   7.281   6.830  15.114 -0.0214  0.4933  0.1176
   9823SM  H14F13335   7.285   6.735  15.056  1.3730 -0.1211  1.1416
   9823SM  H14G13336   7.178   6.870  15.103 -0.7813 -1.0916  1.0117
   9823SM  C15F13337   7.288   6.789  15.262 -0.1343  0.2855 -0.2316
   9823SM  H15F13338   7.205   6.716  15.278 -1.4832  0.8817 -3.6008
   9823SM  H15G13339   7.257   6.880  15.318  0.4642 -0.1839  0.9006
   9823SM  C16F13340   7.429   6.740  15.319 -0.1063 -0.3223 -0.1829
   9823SM  H16F13341   7.486   6.829  15.284 -2.0367  0.4106 -1.6396
   9823SM  H16G13342   7.469   6.649  15.268 -2.4151 -0.9094 -1.0725
   9823SM  C17F13343   7.433   6.731  15.475 -0.1605 -0.0449 -0.5809
   9823SM  H17F13344   7.401   6.822  15.530  1.3730  0.2769 -0.1765
   9823SM  H17G13345   7.543   6.743  15.484 -0.1756 -0.5017  0.2588
   9823SM  C18F13346   7.396   6.604  15.542  0.3789  0.3199  0.0155
   9823SM  H18F13347   7.460   6.590  15.631  0.5677 -3.1015 -0.5342
   9823SM  H18G13348   7.414   6.516  15.477 -0.1736 -0.4169  0.8405
   9823SM  C19F13349   7.251   6.594  15.595  0.1252  0.0806 -0.3953
   9823SM  H19F13350   7.217   6.699  15.603 -1.7986 -0.4812 -0.7226
   9823SM  H19G13351   7.265   6.564  15.701  0.9805 -1.1657 -0.8330
   9823SM  C20F13352   7.156   6.500  15.512 -0.2455 -0.5357 -0.0134
   9823SM  H20F13353   7.177   6.395  15.540  1.8429  0.0920  0.9536
   9823SM  H20G13354   7.184   6.499  15.404 -2.7340 -1.6980 -0.7157
   9823SM  C21F13355   7.008   6.533  15.537  0.9672  1.1071  0.0251
   9823SM  H21F13356   6.985   6.537  15.645  3.4086 -1.1086  0.7239
   9823SM  H21G13357   6.942   6.451  15.503  1.3379  0.4482  0.8781
   9823SM  C22F13358   6.957   6.672  15.487  0.0119  0.1050 -0.3157
   9823SM  H22F13359   6.962   6.671  15.376  1.1140 -1.7461 -0.2831
   9823SM  H22G13360   7.030   6.755  15.501 -0.7575  1.1750 -2.2748
   9823SM  C23F13361   6.811   6.703  15.523 -0.7942  0.8432  0.2014
   9823SM  H23F13362   6.755   6.616  15.483  0.8354  0.6382 -1.8392
   9823SM  H23G13363   6.781   6.796  15.471  1.0019  0.1670 -2.2940
   9823SM  H23H13364   6.800   6.709  15.633  0.3553  1.5881  0.2955
   9923SM     N13365   1.478   6.663  13.163 -0.4890  0.4023 -0.5437
   9923SM   C1513366   1.594   6.587  13.093  0.5257 -0.0295 -0.1944
   9923SM  H15A13367   1.681   6.605  13.154 -0.2055  2.1505  0.2984
   9923SM  H15B13368   1.617   6.632  12.998  2.7263 -0.7723 -0.0694
   9923SM  H15C13369   1.567   6.484  13.077  1.5941  0.0785 -3.3024
   9923SM   C1413370   1.443   6.595  13.300  0.5991  0.0180 -0.0608
   9923SM  H14A13371   1.526   6.585  13.368  1.5615 -1.0546 -1.3262
   9923SM  H14B13372   1.408   6.494  13.283 -1.8982  0.8975 -0.6466
   9923SM  H14C13373   1.366   6.657  13.344 -0.6763 -0.3662 -1.6300
   9923SM   C1313374   1.513   6.809  13.191 -0.0243 -0.3386 -0.2480
   9923SM  H13A13375   1.550   6.855  13.101  0.1994 -0.9744 -0.4899
   9923SM  H13B13376   1.587   6.828  13.267 -1.0428  2.4279  0.1611
   9923SM  H13C13377   1.423   6.860  13.223 -1.1784 -1.7496 -1.1178
   9923SM   C1213378   1.355   6.653  13.068 -0.5361  0.0524 -0.3500
   9923SM  H12A13379   1.367   6.717  12.981 -0.4776  0.1186 -0.2926
   9923SM  H12B13380   1.271   6.689  13.125  0.4348  1.1725  0.4264
   9923SM   C1113381   1.324   6.516  13.010  0.1151 -0.0295 -0.2845
   9923SM  H11A13382   1.400   6.478  12.938  0.7515  1.2838 -0.3400
   9923SM  H11B13383   1.230   6.544  12.957  0.0517  0.0216 -0.1444
   9923SM     P13384   1.162   6.390  13.162  0.2784  0.1101 -0.0909
   9923SM   O1313385   1.094   6.519  13.180  0.9358 -0.0979  0.0826
   9923SM   O1413386   1.106   6.292  13.066  0.1241  0.5142 -0.2360
   9923SM   O1113387   1.186   6.325  13.304 -0.0605 -0.2046  0.3817
   9923SM   O1213388   1.309   6.406  13.102  0.0231  0.0682 -0.0518
   9923SM   C1S13389   1.147   6.389  13.431  0.3236  0.4388  0.9304
   9923SM   H1S13390   1.039   6.411  13.445  0.3514  0.5776  0.9199
   9923SM   H1T13391   1.205   6.483  13.439  0.3422  0.5093  0.1253
   9923SM    NF13392   1.115   6.341  13.675 -0.3770  0.2853  0.5080
   9923SM   HNF13393   1.166   6.397  13.739  3.3521 -2.8457  0.6254
   9923SM   C2S13394   1.187   6.306  13.557 -0.0849 -0.0792 -0.3942
   9923SM   H2S13395   1.157   6.203  13.528  0.6933  0.2046 -2.3774
   9923SM   C3S13396   1.343   6.305  13.577  0.0069  0.1193  0.3332
   9923SM   H3S13397   1.373   6.408  13.605  0.3952  0.2898 -0.6790
   9923SM    O313398   1.403   6.269  13.453 -0.1982 -0.9936 -0.2907
   9923SM   HO313399   1.332   6.276  13.389 -0.6740 -0.5851  0.2722
   9923SM   C4S13400   1.387   6.201  13.684 -0.2143 -0.3571  0.2040
   9923SM   H4S13401   1.403   6.099  13.645  0.0149 -0.0979 -0.3811
   9923SM   C5S13402   1.415   6.220  13.814 -0.3800 -0.3428 -0.1831
   9923SM   H5S13403   1.394   6.321  13.853  0.0199 -0.9745  1.8166
   9923SM   C6S13404   1.459   6.119  13.917  0.1155  0.1804 -0.4386
   9923SM   H6S13405   1.567   6.126  13.944 -0.0483 -0.6049  0.4532
   9923SM   H6T13406   1.437   6.019  13.875  1.1261 -0.0564 -0.4371
   9923SM   C7S13407   1.386   6.124  14.054 -0.5803  0.7347  0.2842
   9923SM   H7S13408   1.424   6.210  14.112  0.7343 -0.1152  0.7459
   9923SM   H7T13409   1.417   6.038  14.118 -0.2130  0.5923 -0.0770
   9923SM   C8S13410   1.234   6.118  14.042 -0.0371  0.0820 -0.4805
   9923SM   H8S13411   1.215   6.045  13.960 -1.0745  0.8627 -0.9440
   9923SM   H8T13412   1.201   6.219  14.011 -1.6091 -0.3593 -0.3401
   9923SM   C9S13413   1.162   6.068  14.164  0.8742  0.1286 -0.1712
   9923SM   H9S13414   1.200   6.133  14.246  1.8636 -0.8279  0.1614
   9923SM   H9T13415   1.178   5.961  14.193 -0.7726  0.1281  0.8465
   9923SM  C10S13416   1.006   6.076  14.158 -0.1199 -0.1256 -0.0942
   9923SM  H10S13417   0.981   6.054  14.052  3.9837  0.0035 -1.2454
   9923SM  H10T13418   0.982   6.183  14.178  0.5987 -0.3968  2.6301
   9923SM  C11S13419   0.938   6.001  14.273 -0.5136 -0.7025  0.0033
   9923SM  H11S13420   1.000   6.023  14.362  0.0271 -0.1469 -0.4964
   9923SM  H11T13421   0.931   5.891  14.258 -0.8478 -0.8915  1.4145
   9923SM  C12S13422   0.797   6.051  14.296 -0.0799  0.3498  0.1367
   9923SM  H12S13423   0.737   6.053  14.202  0.5309  2.0798 -0.2619
   9923SM  H12T13424   0.791   6.157  14.329  2.1188  1.1029 -1.6473
   9923SM  C13S13425   0.724   5.978  14.410 -0.7015 -0.2932  0.8540
   9923SM  H13S13426   0.778   5.994  14.506  3.2439 -1.6351 -0.9497
   9923SM  H13T13427   0.726   5.870  14.385  0.9935 -0.5258  1.8366
   9923SM  C14S13428   0.577   6.025  14.430 -0.2009 -0.4208 -0.6161
   9923SM  H14S13429   0.568   6.130  14.465 -1.1279 -1.3095  2.0337
   9923SM  H14T13430   0.539   5.960  14.512  2.4590  0.1331  1.1644
   9923SM  C15S13431   0.481   6.005  14.311 -0.1721 -0.0081 -0.1286
   9923SM  H15S13432   0.493   6.084  14.235 -3.0970 -0.1786 -0.9025
   9923SM  H15T13433   0.378   6.027  14.347  0.0369  0.0874  0.4269
   9923SM  C16S13434   0.482   5.872  14.243 -0.3353  0.0198  0.4763
   9923SM  H16S13435   0.430   5.804  14.315 -1.6639  0.5799  0.0652
   9923SM  H16T13436   0.587   5.835  14.232 -0.8302 -1.2197 -0.2751
   9923SM  C17S13437   0.403   5.870  14.104 -0.4596  0.3199  0.5586
   9923SM  H17S13438   0.426   5.769  14.064 -1.9697  1.1069 -2.6644
   9923SM  H17T13439   0.444   5.939  14.027 -0.3896  0.9068  1.1149
   9923SM  C18S13440   0.257   5.891  14.117  0.0438  0.0474 -0.6602
   9923SM  H18S13441   0.242   5.987  14.171  1.5811  0.7039 -1.3382
   9923SM  H18T13442   0.225   5.806  14.181  1.7362 -0.4050 -0.3769
   9923SM  H18U13443   0.204   5.884  14.019 -1.8408  0.2393  0.3060
   9923SM   C1F13444   0.989   6.313  13.684  0.3662  0.2669  0.3954
   9923SM    OF13445   0.937   6.241  13.601  0.1345 -0.0547 -0.4829
   9923SM   C2F13446   0.908   6.384  13.793 -0.3374  0.0210 -0.0873
   9923SM   H2F13447   0.846   6.456  13.736  0.4637  1.9619  1.3858
   9923SM   H2G13448   0.978   6.439  13.859 -0.6259  1.8854 -1.2699
   9923SM   C3F13449   0.834   6.277  13.870 -0.0013 -0.2398  0.2013
   9923SM   H3F13450   0.908   6.229  13.936 -2.3970 -1.8422  1.9091
   9923SM   H3G13451   0.778   6.202  13.809 -1.8685 -0.5701  2.1929
   9923SM   C4F13452   0.722   6.335  13.959  0.5560 -0.3144  0.0052
   9923SM   H4F13453   0.681   6.249  14.016 -2.1578  0.2119 -0.9959
   9923SM   H4G13454   0.642   6.370  13.890  0.7959  2.0920  0.8598
   9923SM   C5F13455   0.785   6.429  14.062 -0.0240  0.2148 -0.5587
   9923SM   H5F13456   0.801   6.530  14.020 -1.0503  1.6323  2.1683
   9923SM   H5G13457   0.878   6.389  14.107  0.7184  0.7234 -1.6128
   9923SM   C6F13458   0.693   6.462  14.175  0.1311 -0.4878 -0.3779
   9923SM   H6F13459   0.665   6.365  14.222  1.3976 -0.5729  0.2268
   9923SM   H6G13460   0.605   6.519  14.138  0.2136 -0.8152 -1.1016
   9923SM   C7F13461   0.758   6.541  14.292 -0.4055  0.4255  0.0886
   9923SM   H7F13462   0.841   6.479  14.334 -0.3359 -0.3606 -1.1682
   9923SM   H7G13463   0.685   6.545  14.376  0.3050  1.0322  0.6919
   9923SM   C8F13464   0.804   6.680  14.247  0.6646  0.1487  0.9793
   9923SM   H8F13465   0.713   6.735  14.215 -0.6075 -2.0940  0.5572
   9923SM   H8G13466   0.881   6.673  14.168  1.0076 -0.0002  1.3204
   9923SM   C9F13467   0.886   6.748  14.362  0.0773 -0.2475  0.8828
   9923SM   H9F13468   0.931   6.662  14.416 -0.4097 -1.0216  0.0856
   9923SM   H9G13469   0.814   6.804  14.426 -2.1457 -1.9693  0.0026
   9923SM  C10F13470   0.990   6.848  14.299 -0.6894 -0.1175 -0.1319
   9923SM  H10F13471   0.938   6.927  14.240 -1.0137  0.3861  0.8100
   9923SM  H10G13472   1.051   6.785  14.230  1.1605  0.2006  1.1485
   9923SM  C11F13473   1.099   6.906  14.401  0.1120  0.2251 -0.0923
   9923SM  H11F13474   1.054   6.998  14.444 -0.1498 -0.1493  0.4566
   9923SM  H11G13475   1.177   6.944  14.333  1.4079 -3.8111 -1.1597
   9923SM  C12F13476   1.157   6.806  14.510 -0.1125 -0.2091  0.4399
   9923SM  H12F13477   1.206   6.721  14.456  1.9031 -1.0976  3.4496
   9923SM  H12G13478   1.073   6.766  14.571 -0.6535 -0.9688 -0.7616
   9923SM  C13F13479   1.252   6.884  14.595  0.1214  0.0926 -0.9241
   9923SM  H13F13480   1.193   6.962  14.647  1.5786 -0.3527  1.5540
   9923SM  H13G13481   1.328   6.927  14.526 -0.0323 -1.1794 -1.9310
   9923SM  C14F13482   1.308   6.800  14.712  0.0595 -0.3989 -0.4362
   9923SM  H14F13483   1.400   6.745  14.682 -0.8550 -2.5132  0.4342
   9923SM  H14G13484   1.231   6.733  14.756  0.4118 -0.9382 -0.6276
   9923SM  C15F13485   1.351   6.892  14.826 -0.2400  0.2639 -0.5773
   9923SM  H15F13486   1.261   6.920  14.884 -0.5383 -0.5759 -0.6188
   9923SM  H15G13487   1.402   6.980  14.781 -0.5925 -0.5498 -2.6879
   9923SM  C16F13488   1.450   6.820  14.916 -0.0342 -0.0989 -0.7557
   9923SM  H16F13489   1.551   6.815  14.869 -0.0966 -2.9305 -0.7330
   9923SM  H16G13490   1.415   6.715  14.919  0.0556 -0.1140  2.3138
   9923SM  C17F13491   1.455   6.875  15.059 -0.0635 -0.7306 -0.1470
   9923SM  H17F13492   1.502   6.801  15.127 -1.3372 -1.2606  0.1864
   9923SM  H17G13493   1.351   6.902  15.090  0.7606  3.0105 -0.1538
   9923SM  C18F13494   1.534   7.000  15.056 -0.1935 -0.1300 -0.6706
   9923SM  H18F13495   1.494   7.076  14.985 -0.8124  0.1838  0.0067
   9923SM  H18G13496   1.635   6.987  15.011 -0.1927 -0.8973 -0.4524
   9923SM  C19F13497   1.554   7.079  15.184  0.7122  0.1778 -0.7543
   9923SM  H19F13498   1.456   7.114  15.220 -0.2051 -0.4013 -2.5608
   9923SM  H19G13499   1.619   7.167  15.164  1.3493 -0.0761  0.1116
   9923SM  C20F13500   1.628   6.996  15.291  0.1591 -0.4400  0.3987
   9923SM  H20F13501   1.719   6.959  15.239  0.1455 -0.3411  0.3035
   9923SM  H20G13502   1.572   6.912  15.338 -0.8186  0.5229  0.9968
   9923SM  C21F13503   1.677   7.091  15.410  0.2324  0.1421 -0.3852
   9923SM  H21F13504   1.601   7.127  15.482  0.0411  0.4869 -0.7608
   9923SM  H21G13505   1.728   7.176  15.361 -0.7162  1.0678  0.2066
   9923SM  C22F13506   1.781   7.007  15.491  0.0283  0.0884  0.3611
   9923SM  H22F13507   1.879   7.032  15.446  0.1834  1.5655  1.4665
   9923SM  H22G13508   1.773   6.897  15.475  1.7929 -0.1806  1.1971
   9923SM  C23F13509   1.772   7.010  15.644  0.3228 -0.2929 -0.2235
   9923SM  H23F13510   1.666   7.002  15.675  0.8678  2.6127  2.9834
   9923SM  H23G13511   1.803   7.102  15.699  1.8756 -1.3698  0.7903
   9923SM  H23H13512   1.820   6.918  15.685  0.8078  0.6709  1.5062
  10023SM     N13513   0.639   6.895  13.287 -0.2952  0.1595  0.7537
  10023SM   C1513514   0.549   6.816  13.368 -0.4228  0.0191 -0.3042
  10023SM  H15A13515   0.607   6.788  13.455  1.8946 -0.6969 -1.9723
  10023SM  H15B13516   0.519   6.739  13.299  0.3270  2.3140 -3.3822
  10023SM  H15C13517   0.463   6.869  13.404  1.3376  0.4541  3.8503
  10023SM   C1413518   0.747   6.813  13.220 -0.0851  1.0018 -0.7423
  10023SM  H14A13519   0.798   6.738  13.278  0.8720  0.5387 -2.1308
  10023SM  H14B13520   0.822   6.884  13.189  0.1499  0.7958 -0.6408
  10023SM  H14C13521   0.719   6.761  13.129  0.8875 -0.8707 -0.0201
  10023SM   C1313522   0.564   6.961  13.174 -0.1445  0.0605 -0.0302
  10023SM  H13A13523   0.630   7.019  13.112 -0.7700  0.8248 -0.0005
  10023SM  H13B13524   0.490   7.022  13.224 -1.2294 -3.0140  2.4933
  10023SM  H13C13525   0.518   6.893  13.103 -2.9310  0.5427  1.1850
  10023SM   C1213526   0.706   6.998  13.379 -0.6753  0.2912  0.6246
  10023SM  H12A13527   0.629   7.049  13.435 -3.1648 -3.5182  1.0390
  10023SM  H12B13528   0.762   7.073  13.324 -2.6135  0.7712 -0.7764
  10023SM   C1113529   0.811   6.946  13.483 -0.6869  0.1263  0.0590
  10023SM  H11A13530   0.871   7.027  13.530  2.7029 -2.4490  0.5244
  10023SM  H11B13531   0.887   6.892  13.423 -0.0498  1.5376 -0.4658
  10023SM     P13532   0.821   6.746  13.642 -0.1147  0.4378 -0.0850
  10023SM   O1313533   0.759   6.721  13.772 -0.0554 -0.2136 -0.2109
  10023SM   O1413534   0.812   6.633  13.548  0.4664 -0.7254  0.4887
  10023SM   O1113535   0.973   6.784  13.640 -0.0168 -0.0072 -0.2163
  10023SM   O1213536   0.748   6.868  13.583  0.0665 -0.1734 -0.5399
  10023SM   C1S13537   1.022   6.892  13.716  0.8475  0.3513 -0.0427
  10023SM   H1S13538   0.955   6.980  13.716 -0.6088 -0.7302  0.0897
  10023SM   H1T13539   1.113   6.932  13.666 -0.5207  0.6961 -2.3824
  10023SM    NF13540   1.105   6.965  13.929 -0.1621  0.4487  0.4853
  10023SM   HNF13541   1.200   6.992  13.935 -0.0228 -0.2884  2.6188
  10023SM   C2S13542   1.071   6.849  13.859 -0.4790  0.7486  0.8692
  10023SM   H2S13543   0.992   6.803  13.922 -1.0821  0.9882  0.3028
  10023SM   C3S13544   1.184   6.742  13.839 -0.2278  0.7394 -0.1915
  10023SM   H3S13545   1.266   6.800  13.790  0.4754 -0.0023  0.0823
  10023SM    O313546   1.154   6.633  13.748  0.2574 -0.2133 -0.6994
  10023SM   HO313547   1.087   6.671  13.691 -1.2972  3.5657  3.0889
  10023SM   C4S13548   1.234   6.690  13.982  0.3571 -0.1427  0.0358
  10023SM   H4S13549   1.308   6.757  14.029  0.6320 -1.4526  1.5504
  10023SM   C5S13550   1.199   6.575  14.050 -0.2246  0.3457  0.7116
  10023SM   H5S13551   1.132   6.505  13.999 -0.1298  0.6649  0.1438
  10023SM   C6S13552   1.252   6.534  14.183  0.2561  0.3166  0.0005
  10023SM   H6S13553   1.278   6.428  14.165 -2.6199 -0.3935 -0.5696
  10023SM   H6T13554   1.173   6.527  14.261 -0.5443 -0.4206 -0.8556
  10023SM   C7S13555   1.378   6.605  14.243  0.1135 -0.2245 -0.2852
  10023SM   H7S13556   1.347   6.708  14.269 -0.5893 -0.8876  1.7493
  10023SM   H7T13557   1.462   6.619  14.172 -0.6696 -0.8356 -1.3730
  10023SM   C8S13558   1.414   6.538  14.372 -0.6881  0.1162 -0.4340
  10023SM   H8S13559   1.409   6.428  14.369  0.2059  0.0880 -1.5170
  10023SM   H8T13560   1.343   6.570  14.451  1.4592  0.2792  1.5488
  10023SM   C9S13561   1.555   6.573  14.421 -0.2528  0.0271  0.0250
  10023SM   H9S13562   1.568   6.683  14.420 -0.5586  0.0788  0.8515
  10023SM   H9T13563   1.627   6.548  14.340 -0.0333  0.1686  0.1764
  10023SM  C10S13564   1.603   6.510  14.559 -0.7212  0.7691  0.0357
  10023SM  H10S13565   1.643   6.410  14.531  3.4511  1.6468  2.1542
  10023SM  H10T13566   1.520   6.494  14.631  0.8031 -0.5328  1.5848
  10023SM  C11S13567   1.712   6.596  14.626  0.6694  0.1617  0.0332
  10023SM  H11S13568   1.676   6.701  14.621  0.4773  0.0396 -1.8479
  10023SM  H11T13569   1.806   6.590  14.568  1.9482 -0.7278  2.1031
  10023SM  C12S13570   1.742   6.547  14.769 -0.7300  0.2019  0.1065
  10023SM  H12S13571   1.657   6.585  14.829  0.2073  2.6425  0.0156
  10023SM  H12T13572   1.834   6.603  14.799  0.6569 -1.8154 -0.1667
  10023SM  C13S13573   1.769   6.400  14.791 -0.3103  0.7608 -0.0689
  10023SM  H13S13574   1.684   6.337  14.756 -0.3801  0.1996  1.0611
  10023SM  H13T13575   1.771   6.378  14.900  0.4382 -0.3963 -0.2962
  10023SM  C14S13576   1.901   6.348  14.722  0.6099  0.5774  0.0309
  10023SM  H14S13577   1.987   6.410  14.756  0.9049 -0.9377  2.1870
  10023SM  H14T13578   1.877   6.376  14.617  0.3897  1.7120  0.3713
  10023SM  C15S13579   1.923   6.196  14.733  0.2386 -0.1004  0.0999
  10023SM  H15S13580   1.846   6.146  14.671 -0.7304  0.8595  0.5015
  10023SM  H15T13581   1.911   6.170  14.841  2.0183 -0.1774  0.3189
  10023SM  C16S13582   2.065   6.160  14.679  0.1009  0.2004 -0.0755
  10023SM  H16S13583   2.141   6.195  14.752  0.8586 -0.3954 -0.5538
  10023SM  H16T13584   2.087   6.205  14.580  1.4762 -0.0042  0.1187
  10023SM  C17S13585   2.072   6.008  14.670  0.0873  0.7125  0.1069
  10023SM  H17S13586   2.078   5.972  14.565  1.8729  1.2836 -0.0116
  10023SM  H17T13587   1.993   5.952  14.725  1.5141 -2.4840 -0.8457
  10023SM  C18S13588   2.210   5.960  14.722 -0.3114 -0.0123  0.7878
  10023SM  H18S13589   2.234   5.995  14.825  1.6531  1.8122 -0.2089
  10023SM  H18T13590   2.298   5.993  14.662 -1.2835  1.0079 -0.1290
  10023SM  H18U13591   2.213   5.850  14.728 -0.0305 -0.0587 -0.1325
  10023SM   C1F13592   1.022   7.056  13.981  0.4077  0.3861  0.4536
  10023SM    OF13593   0.902   7.048  13.959 -0.3059  0.6150  0.0748
  10023SM   C2F13594   1.082   7.174  14.051 -0.2928  0.3327 -0.8358
  10023SM   H2F13595   1.179   7.204  14.006 -0.2758  0.0147 -1.0074
  10023SM   H2G13596   1.113   7.153  14.156  0.9331 -0.0814 -1.2739
  10023SM   C3F13597   0.988   7.301  14.040 -0.3829 -0.9461  0.0090
  10023SM   H3F13598   0.888   7.285  14.086 -0.6773 -0.1202 -0.3193
  10023SM   H3G13599   0.974   7.328  13.933 -3.1479 -0.9036  0.3115
  10023SM   C4F13600   1.052   7.420  14.115 -0.4845 -0.4763  0.0598
  10023SM   H4F13601   1.154   7.434  14.073 -0.5014 -0.3509  0.0611
  10023SM   H4G13602   1.068   7.414  14.225 -0.4438 -1.0050  0.0272
  10023SM   C5F13603   0.977   7.552  14.095 -0.2040  0.1961 -0.1532
  10023SM   H5F13604   0.935   7.554  13.992 -0.9373  1.0065  0.1484
  10023SM   H5G13605   1.049   7.633  14.116  1.4306 -1.5805  1.4981
  10023SM   C6F13606   0.858   7.571  14.189 -0.0180  0.5747  0.3289
  10023SM   H6F13607   0.810   7.471  14.187  1.5065 -0.1721 -0.3143
  10023SM   H6G13608   0.784   7.646  14.155  0.2140  0.3586 -0.6741
  10023SM   C7F13609   0.905   7.606  14.326  0.0014  0.9387 -0.1765
  10023SM   H7F13610   0.986   7.681  14.319 -0.9040  1.8788 -0.9669
  10023SM   H7G13611   0.948   7.517  14.376  0.4755  0.0219 -2.1231
  10023SM   C8F13612   0.802   7.664  14.423 -0.5468 -0.1809 -0.6052
  10023SM   H8F13613   0.719   7.592  14.439 -1.7038  1.2276 -0.1120
  10023SM   H8G13614   0.752   7.757  14.389 -2.1143 -0.8225 -0.1235
  10023SM   C9F13615   0.855   7.701  14.564 -1.1918 -0.6384  0.8531
  10023SM   H9F13616   0.955   7.748  14.552 -1.0690 -0.5050  2.2240
  10023SM   H9G13617   0.878   7.610  14.624  2.3998 -0.5620 -0.2074
  10023SM  C10F13618   0.775   7.794  14.648  0.0934 -0.5204  0.0270
  10023SM  H10F13619   0.670   7.772  14.622 -0.6434  0.9667  1.5768
  10023SM  H10G13620   0.802   7.901  14.637  0.5859 -0.7931 -1.6796
  10023SM  C11F13621   0.787   7.759  14.798  0.5501  0.0563 -0.7061
  10023SM  H11F13622   0.886   7.778  14.844 -0.2655 -0.5372  1.4319
  10023SM  H11G13623   0.771   7.650  14.813 -0.0344  0.1630 -0.5388
  10023SM  C12F13624   0.695   7.844  14.892 -0.2320  0.1460 -0.8389
  10023SM  H12F13625   0.614   7.781  14.935 -0.4569  0.9883 -0.0187
  10023SM  H12G13626   0.641   7.928  14.844  1.5364  1.2974 -0.9044
  10023SM  C13F13627   0.782   7.896  15.009  0.4719  0.3081 -0.0676
  10023SM  H13F13628   0.880   7.924  14.964  1.3979 -2.2136  0.2532
  10023SM  H13G13629   0.798   7.803  15.067 -0.3974 -0.8297 -1.5814
  10023SM  C14F13630   0.723   8.001  15.095  1.2485  0.2784 -0.2075
  10023SM  H14F13631   0.673   8.080  15.035 -0.5478 -0.8116 -0.2125
  10023SM  H14G13632   0.806   8.056  15.145  1.5381 -0.1838 -0.1699
  10023SM  C15F13633   0.628   7.944  15.208  0.1735 -0.2504 -0.3768
  10023SM  H15F13634   0.692   7.880  15.273  1.1245  1.6323  0.6109
  10023SM  H15G13635   0.549   7.876  15.168  0.4736 -1.2393  0.6490
  10023SM  C16F13636   0.563   8.054  15.298  0.2369 -0.0168 -0.0949
  10023SM  H16F13637   0.511   8.122  15.227  0.7699  0.3000 -0.1870
  10023SM  H16G13638   0.633   8.108  15.366 -0.9847  0.6987  0.6389
  10023SM  C17F13639   0.456   8.000  15.391  0.8119 -0.5226  0.5665
  10023SM  H17F13640   0.372   7.950  15.338 -1.2643  0.9174  2.3077
  10023SM  H17G13641   0.409   8.082  15.449  3.5976  0.9632  0.8708
  10023SM  C18F13642   0.510   7.899  15.503  0.3530 -0.2160 -0.7206
  10023SM  H18F13643   0.579   7.959  15.566  0.0555 -0.7763  0.1631
  10023SM  H18G13644   0.568   7.824  15.445  1.4032 -0.1450  0.2098
  10023SM  C19F13645   0.409   7.833  15.599 -0.3768 -0.4034  0.2149
  10023SM  H19F13646   0.458   7.759  15.666 -0.6964 -1.1790 -0.3837
  10023SM  H19G13647   0.335   7.770  15.545 -0.3831  0.3393 -0.6758
  10023SM  C20F13648   0.328   7.932  15.682 -0.6744  0.3322  0.1313
  10023SM  H20F13649   0.237   7.957  15.624 -0.4708  1.1417  0.1520
  10023SM  H20G13650   0.394   8.019  15.702 -1.5983  1.2105 -0.5791
  10023SM  C21F13651   0.287   7.891  15.827 -0.2487 -0.5470  0.0492
  10023SM  H21F13652   0.222   7.978  15.852  2.3754  1.5892 -0.1093
  10023SM  H21G13653   0.378   7.883  15.890 -0.3189  1.4957  0.4869
  10023SM  C22F13654   0.203   7.767  15.839 -0.5676 -0.8575 -0.0021
  10023SM  H22F13655   0.254   7.676  15.802 -0.0264  0.6746 -3.3960
  10023SM  H22G13656   0.119   7.763  15.766 -0.2393 -2.3937 -0.3498
  10023SM  C23F13657   0.147   7.753  15.977 -0.3671  0.8696  0.1294
  10023SM  H23F13658   0.088   7.659  15.983  1.0417 -0.0180  0.5947
  10023SM  H23G13659   0.088   7.839  16.013 -0.1502  1.4748 -0.9241
  10023SM  H23H13660   0.224   7.731  16.054 -1.2226 -0.2860  0.6856
  101CHL1    C313661   2.233   2.912  16.646  0.4531  0.0507  0.0616
  101CHL1    H313662   2.296   2.840  16.702 -0.7259 -0.3653  0.8927
  101CHL1    O313663   2.137   2.957  16.741 -0.2807  0.0124 -0.0254
  101CHL1   H3'13664   2.089   3.025  16.694  1.4981  1.4481  0.1099
  101CHL1    C413665   2.308   3.033  16.600  0.3137  0.1869 -0.1739
  101CHL1   H4A13666   2.234   3.112  16.579 -1.9985 -1.3973  1.5165
  101CHL1   H4B13667   2.354   3.063  16.697 -0.8042 -2.0622  1.1364
  101CHL1    C513668   2.408   3.005  16.492  0.1289  0.0515  0.1320
  101CHL1    C613669   2.541   3.035  16.512  0.0248  0.3938 -0.2165
  101CHL1    H613670   2.577   3.075  16.608  3.3851 -1.6703 -0.4801
  101CHL1    C713671   2.643   3.026  16.398 -0.2355  0.3787 -0.2814
  101CHL1   H7A13672   2.707   3.117  16.404  2.0825 -1.2172  1.2244
  101CHL1   H7B13673   2.707   2.935  16.404 -0.8714 -0.2178 -2.1217
  101CHL1    C813674   2.573   3.022  16.261  0.0261  0.5769  0.5420
  101CHL1    H813675   2.531   3.125  16.254 -0.4936  0.4081  1.0217
  101CHL1   C1413676   2.675   2.997  16.158  0.6030  0.1566 -0.1860
  101CHL1   H1413677   2.724   2.901  16.185  0.2723 -0.4202 -1.5342
  101CHL1   C1513678   2.790   3.099  16.143 -0.0580 -1.5206 -0.4729
  101CHL1  H15A13679   2.738   3.197  16.141 -2.4785 -2.7345 -0.3352
  101CHL1  H15B13680   2.875   3.098  16.216 -0.6296  2.0111  0.4519
  101CHL1   C1613681   2.844   3.070  15.999 -0.0708  0.1253 -0.1143
  101CHL1  H16A13682   2.819   3.165  15.946 -1.9536 -0.1574  0.1903
  101CHL1  H16B13683   2.951   3.041  15.989  0.0709  0.5469  0.1577
  101CHL1   C1713684   2.747   2.977  15.936 -0.0631 -0.5774  0.0279
  101CHL1   H1713685   2.780   2.872  15.954  0.0938 -0.6191 -0.4836
  101CHL1   C1313686   2.612   2.988  16.016 -0.6327 -0.3652 -0.9795
  101CHL1   C1813687   2.530   3.115  15.982  0.2648 -0.4114  0.6709
  101CHL1  H18A13688   2.437   3.120  16.042 -1.1421 -0.2278 -1.4216
  101CHL1  H18B13689   2.581   3.211  16.006 -0.0400 -0.0341 -0.1673
  101CHL1  H18C13690   2.513   3.126  15.873  1.0329  0.8143  0.6497
  101CHL1   C1213691   2.522   2.863  16.014  0.0860  0.1900 -0.9337
  101CHL1  H12A13692   2.469   2.852  15.917 -0.1319  1.8143 -1.0399
  101CHL1  H12B13693   2.579   2.768  16.025  0.7178 -0.1273 -5.2612
  101CHL1   C1113694   2.409   2.872  16.116 -0.0985 -0.0075 -0.0541
  101CHL1  H11A13695   2.329   2.937  16.076 -1.4306 -2.2383 -1.2229
  101CHL1  H11B13696   2.351   2.777  16.118 -1.8149  0.9971  1.1333
  101CHL1    C913697   2.464   2.912  16.261 -0.0231  0.1455  0.6303
  101CHL1    H913698   2.507   2.818  16.302 -0.3886 -0.2909  0.0194
  101CHL1   C1013699   2.347   2.948  16.364 -0.1598  0.3771  0.4368
  101CHL1   C1913700   2.255   3.059  16.297  0.1685  0.6505 -0.2647
  101CHL1  H19A13701   2.313   3.137  16.244 -2.3475  2.9545  0.1764
  101CHL1  H19B13702   2.195   3.015  16.214  0.3742  0.6501 -0.4123
  101CHL1  H19C13703   2.191   3.110  16.372  0.8158  2.3942 -0.8462
  101CHL1    C113704   2.252   2.824  16.404 -0.2969  0.3796  0.1291
  101CHL1   H1A13705   2.186   2.785  16.323  0.1629 -0.7796  0.2822
  101CHL1   H1B13706   2.317   2.738  16.432  1.4662  1.7585  0.4219
  101CHL1    C213707   2.159   2.861  16.523 -0.4998 -0.8943  0.4138
  101CHL1   H2A13708   2.095   2.774  16.548 -1.8057 -0.6088 -1.6482
  101CHL1   H2B13709   2.097   2.946  16.485  0.8308  1.1914  2.6334
  101CHL1   C2013710   2.741   2.993  15.786 -0.2236  0.0766  0.0014
  101CHL1   H2013711   2.699   3.093  15.762 -0.1518  0.1199  0.0580
  101CHL1   C2113712   2.656   2.878  15.721  0.1848 -0.5237 -1.2094
  101CHL1  H21A13713   2.659   2.896  15.612  0.2987  3.7007 -0.6856
  101CHL1  H21B13714   2.551   2.892  15.754  0.3909 -0.2690 -0.6441
  101CHL1  H21C13715   2.685   2.778  15.760  1.5587  0.9809  2.0710
  101CHL1   C2213716   2.884   2.980  15.727 -0.1375 -0.4770 -0.1363
  101CHL1  H22A13717   2.947   3.061  15.769 -2.0097  2.1187 -1.9824
  101CHL1  H22B13718   2.922   2.880  15.757  0.6250 -0.1968 -0.1299
  101CHL1   C2313719   2.897   2.999  15.579  0.0257 -0.0044 -0.2990
  101CHL1  H23A13720   2.840   2.911  15.542 -1.4346 -0.4703  2.8030
  101CHL1  H23B13721   2.833   3.087  15.556 -0.7321 -0.5500 -0.3290
  101CHL1   C2413722   3.041   3.010  15.535 -1.1094 -0.1559 -0.4425
  101CHL1  H24A13723   3.084   3.098  15.588 -1.5990 -1.2413  1.8758
  101CHL1  H24B13724   3.107   2.928  15.568 -0.6865  0.5967  0.6453
  101CHL1   C2513725   3.059   3.013  15.379  0.9591  0.0501 -0.3591
  101CHL1   H2513726   3.168   3.032  15.366  1.3212  0.0637  2.1540
  101CHL1   C2613727   3.024   2.880  15.314  0.0768 -0.4466  0.2896
  101CHL1  H26A13728   3.062   2.884  15.210  0.5129  1.4583  0.4785
  101CHL1  H26B13729   3.072   2.795  15.367  3.0254  0.6598 -0.4189
  101CHL1  H26C13730   2.915   2.862  15.322 -0.1536  0.1579 -1.1941
  101CHL1   C2713731   2.983   3.130  15.309  0.6190 -0.1050  0.9690
  101CHL1  H27A13732   2.873   3.114  15.312  0.7522 -2.6069 -2.0476
  101CHL1  H27B13733   3.014   3.228  15.351 -2.0490  0.3677  2.1007
  101CHL1  H27C13734   3.008   3.124  15.201 -0.3807 -1.2566  0.7714
  102CHL1    C313735   2.348   4.186  16.667 -0.2694  0.0266 -0.1818
  102CHL1    H313736   2.269   4.120  16.625 -2.4762  0.6142  2.6879
  102CHL1    O313737   2.362   4.163  16.808  0.4252 -0.2440  0.2600
  102CHL1   H3'13738   2.442   4.207  16.838  0.6512  0.2336 -0.9564
  102CHL1    C413739   2.486   4.153  16.607  0.7366 -0.2203 -0.0236
  102CHL1   H4A13740   2.568   4.218  16.645  0.9739 -0.6985  0.3071
  102CHL1   H4B13741   2.506   4.048  16.639 -0.3061 -0.6782 -0.8188
  102CHL1    C513742   2.484   4.177  16.457  0.1348 -0.5578 -0.5425
  102CHL1    C613743   2.504   4.080  16.372  0.3030  0.0993  0.9321
  102CHL1    H613744   2.544   3.984  16.407  2.1574 -0.7712 -3.0932
  102CHL1    C713745   2.501   4.101  16.221 -0.5085 -0.6963 -0.0785
  102CHL1   H7A13746   2.584   4.052  16.166  0.4112 -0.9638  1.4806
  102CHL1   H7B13747   2.402   4.072  16.179 -0.3223  0.6051 -1.5043
  102CHL1    C813748   2.517   4.254  16.180 -0.3518  0.2743 -0.2146
  102CHL1    H813749   2.619   4.289  16.207 -1.0132  1.8018  0.4209
  102CHL1   C1413750   2.487   4.267  16.035  0.3134 -0.0338  0.9040
  102CHL1   H1413751   2.380   4.243  16.018  0.5969  0.2920 -1.7463
  102CHL1   C1513752   2.576   4.179  15.942 -0.4167  0.5733 -0.5766
  102CHL1  H15A13753   2.677   4.154  15.980 -0.8646 -1.5649 -0.6316
  102CHL1  H15B13754   2.518   4.085  15.928  1.5083 -0.5791 -1.2481
  102CHL1   C1613755   2.585   4.255  15.816  0.3025 -0.1917  0.1412
  102CHL1  H16A13756   2.690   4.266  15.782  0.2744  0.0957  0.1473
  102CHL1  H16B13757   2.529   4.212  15.729  2.4598  2.6973 -2.9003
  102CHL1   C1713758   2.514   4.391  15.842 -0.6057  0.1332 -0.1443
  102CHL1   H1713759   2.408   4.381  15.809 -0.2677 -1.1440 -0.9383
  102CHL1   C1313760   2.515   4.413  15.999 -0.2323  0.4255  0.4408
  102CHL1   C1813761   2.657   4.464  16.035  0.5593 -0.2813 -0.0229
  102CHL1  H18A13762   2.668   4.565  15.990  0.6958 -1.1247 -1.9678
  102CHL1  H18B13763   2.670   4.481  16.144 -0.0930 -2.4364  0.4408
  102CHL1  H18C13764   2.736   4.404  15.986 -0.4576 -1.3775 -0.3569
  102CHL1   C1213765   2.407   4.504  16.058 -0.8699 -0.0617 -0.0915
  102CHL1  H12A13766   2.430   4.611  16.038  0.1158 -0.7304 -2.9165
  102CHL1  H12B13767   2.307   4.473  16.019  0.2037 -2.0133 -1.4376
  102CHL1   C1113768   2.416   4.482  16.207  0.1480 -0.5588  0.0830
  102CHL1  H11A13769   2.505   4.544  16.228 -0.4274  1.4890 -2.8519
  102CHL1  H11B13770   2.332   4.539  16.251 -0.0492  1.2976 -2.4404
  102CHL1    C913771   2.419   4.339  16.266  0.1501 -0.7040 -0.1020
  102CHL1    H913772   2.323   4.289  16.239 -0.5851  0.2374  0.6535
  102CHL1   C1013773   2.448   4.329  16.419 -0.0103  0.4592  0.8502
  102CHL1   C1913774   2.559   4.430  16.471 -0.1663  0.1366  0.0908
  102CHL1  H19A13775   2.654   4.411  16.417 -0.9540 -0.5465 -1.0870
  102CHL1  H19B13776   2.529   4.537  16.459  3.1003  1.3432  1.6485
  102CHL1  H19C13777   2.579   4.417  16.580 -2.1134 -2.2835  0.2379
  102CHL1    C113778   2.321   4.376  16.492 -0.5473  0.1571 -0.3663
  102CHL1   H1A13779   2.310   4.485  16.474 -0.8778 -0.1891 -2.5434
  102CHL1   H1B13780   2.240   4.316  16.445 -0.9187  0.0865  0.3571
  102CHL1    C213781   2.316   4.337  16.645 -0.1712  0.4775  0.6133
  102CHL1   H2A13782   2.229   4.362  16.710  0.8519  0.5354  2.0078
  102CHL1   H2B13783   2.396   4.394  16.697 -0.2280  1.1049  0.0300
  102CHL1   C2013784   2.566   4.489  15.746  0.0147 -0.1223  0.0831
  102CHL1   H2013785   2.669   4.522  15.770  0.5489 -1.6343  0.0026
  102CHL1   C2113786   2.474   4.616  15.754  0.2746  0.1238 -0.0144
  102CHL1  H21A13787   2.490   4.673  15.848 -1.8640  1.5269 -0.4097
  102CHL1  H21B13788   2.367   4.584  15.756  0.4257 -0.3607  1.3619
  102CHL1  H21C13789   2.492   4.674  15.661  0.5444 -1.7572 -1.1860
  102CHL1   C2213790   2.578   4.449  15.592  0.8285  0.5582 -0.0188
  102CHL1  H22A13791   2.573   4.339  15.575  0.1132  0.6714 -0.6000
  102CHL1  H22B13792   2.481   4.487  15.553 -0.0424 -0.1260  1.4228
  102CHL1   C2313793   2.701   4.497  15.519  0.6034  0.3978  0.9224
  102CHL1  H23A13794   2.703   4.604  15.546 -1.9690  1.0020 -0.9465
  102CHL1  H23B13795   2.795   4.450  15.554  0.2683  0.7976  2.4531
  102CHL1   C2413796   2.692   4.467  15.365 -0.1789  0.0618 -0.7922
  102CHL1  H24A13797   2.645   4.368  15.343  1.4063 -1.3674  1.7089
  102CHL1  H24B13798   2.639   4.555  15.324  0.7053  0.7385 -0.4981
  102CHL1   C2513799   2.837   4.475  15.314  0.4183  0.4003  0.1286
  102CHL1   H2513800   2.903   4.549  15.363  2.5539 -0.8303 -0.7639
  102CHL1   C2613801   2.915   4.338  15.346 -0.6695  0.2435  0.0712
  102CHL1  H26A13802   3.003   4.334  15.278 -0.8171 -1.3213 -0.0734
  102CHL1  H26B13803   2.959   4.324  15.447 -0.0683 -0.3188 -0.2561
  102CHL1  H26C13804   2.852   4.251  15.318  0.3321  0.6029 -4.0813
  102CHL1   C2713805   2.840   4.492  15.163  0.4188  0.1681 -0.1322
  102CHL1  H27A13806   2.796   4.583  15.118 -0.5717 -0.9183 -1.4318
  102CHL1  H27B13807   2.945   4.501  15.129  0.3939 -0.9132 -0.5362
  102CHL1  H27C13808   2.791   4.411  15.105 -0.0508  1.0057 -0.9204
  103CHL1    C313809   1.077   3.831  15.961  0.0992 -0.1210 -0.2398
  103CHL1    H313810   1.171   3.850  15.904 -1.2343  2.5840 -1.7385
  103CHL1    O313811   1.120   3.799  16.089 -0.0743 -0.0282  0.2345
  103CHL1   H3'13812   1.111   3.703  16.086  1.8089 -0.2479  0.6620
  103CHL1    C413813   0.996   3.961  15.966 -0.0817 -0.0301  0.0765
  103CHL1   H4A13814   0.918   3.948  16.044 -0.9053 -1.0134 -0.8809
  103CHL1   H4B13815   1.059   4.043  16.007 -0.2161  0.7260 -1.1848
  103CHL1    C513816   0.925   3.994  15.836  0.6096  0.3575 -0.5550
  103CHL1    C613817   0.926   4.115  15.776  0.0547  0.3715  0.6695
  103CHL1    H613818   0.992   4.196  15.813  2.1206 -0.2883 -1.3064
  103CHL1    C713819   0.867   4.148  15.643 -0.4768 -0.6343  0.3199
  103CHL1   H7A13820   0.817   4.247  15.639 -0.1286 -0.4982 -1.7344
  103CHL1   H7B13821   0.952   4.151  15.572  0.2022 -0.2811  1.1316
  103CHL1    C813822   0.763   4.041  15.597 -0.0199  0.2811 -0.2917
  103CHL1    H813823   0.667   4.069  15.646  0.3899  0.0297  0.6794
  103CHL1   C1413824   0.739   4.051  15.448  0.1567 -0.1493 -0.0076
  103CHL1   H1413825   0.832   4.009  15.403  0.1999 -0.3154  0.2389
  103CHL1   C1513826   0.715   4.182  15.386  0.1874 -0.9196 -0.6005
  103CHL1  H15A13827   0.652   4.246  15.452  0.7290  0.2094 -1.1603
  103CHL1  H15B13828   0.809   4.239  15.368  0.3426 -1.7045 -2.4150
  103CHL1   C1613829   0.639   4.149  15.253 -0.5634  0.2775  0.0686
  103CHL1  H16A13830   0.546   4.208  15.250 -1.0367 -0.4423  0.3582
  103CHL1  H16B13831   0.697   4.187  15.165  2.3969  1.7283  2.4448
  103CHL1   C1713832   0.610   4.004  15.244 -0.1714  0.8834 -0.0525
  103CHL1   H1713833   0.697   3.957  15.194  0.7394  1.3281  1.0778
  103CHL1   C1313834   0.625   3.958  15.390 -0.2833  0.1377 -0.3946
  103CHL1   C1813835   0.492   3.999  15.470  0.6985  0.5436  0.2595
  103CHL1  H18A13836   0.473   4.109  15.474  0.0097  0.4724 -0.7250
  103CHL1  H18B13837   0.409   3.937  15.430  3.5249 -2.3990 -1.4831
  103CHL1  H18C13838   0.512   3.958  15.571 -0.4070 -0.5763  0.0562
  103CHL1   C1213839   0.672   3.812  15.412  0.5440 -0.7173 -0.8096
  103CHL1  H12A13840   0.596   3.738  15.380 -1.9794  1.5126 -0.4044
  103CHL1  H12B13841   0.769   3.792  15.363  0.7637 -1.4348 -0.1070
  103CHL1   C1113842   0.715   3.784  15.556  0.0106 -0.0248 -0.6230
  103CHL1  H11A13843   0.621   3.780  15.615  0.2410  2.4127  0.0170
  103CHL1  H11B13844   0.769   3.687  15.556  0.8443  0.4220 -1.0458
  103CHL1    C913845   0.808   3.898  15.625 -0.9793 -0.2529 -0.3469
  103CHL1    H913846   0.903   3.882  15.569 -0.6501  0.1813  0.0870
  103CHL1   C1013847   0.845   3.875  15.775 -0.2194  0.1288 -0.3893
  103CHL1   C1913848   0.701   3.861  15.843 -0.8098  0.2062  0.0993
  103CHL1  H19A13849   0.660   3.760  15.822 -1.7964  0.9582 -1.8668
  103CHL1  H19B13850   0.704   3.873  15.954  1.3127 -0.2375  0.1361
  103CHL1  H19C13851   0.630   3.942  15.815  1.9747  3.0936  0.7553
  103CHL1    C113852   0.931   3.746  15.775  0.5263 -0.3310  0.3937
  103CHL1   H1A13853   0.862   3.665  15.742 -2.2860  1.6249  1.0674
  103CHL1   H1B13854   1.009   3.760  15.698 -1.2306 -0.1216 -1.4294
  103CHL1    C213855   0.995   3.710  15.908  0.2267  0.2366  0.3193
  103CHL1   H2A13856   1.059   3.622  15.887  0.2407  0.2362  0.3625
  103CHL1   H2B13857   0.919   3.666  15.975 -0.2100 -2.4656 -1.7937
  103CHL1   C2013858   0.477   3.966  15.159  0.3308 -0.2698  0.5399
  103CHL1   H2013859   0.387   4.010  15.207 -0.5045 -0.2270 -0.9774
  103CHL1   C2113860   0.453   3.818  15.157 -0.4987 -0.8121 -0.0703
  103CHL1  H21A13861   0.391   3.779  15.073  2.0007  1.0420 -2.9661
  103CHL1  H21B13862   0.406   3.788  15.253  2.4271 -0.6666  1.5320
  103CHL1  H21C13863   0.555   3.773  15.160  0.5386  1.2960 -1.3111
  103CHL1   C2213864   0.490   4.032  15.016  0.5596 -0.9315 -0.3334
  103CHL1  H22A13865   0.480   4.142  15.026 -3.1315 -1.1261 -0.4639
  103CHL1  H22B13866   0.582   4.008  14.960  1.4188 -0.0600  0.6718
  103CHL1   C2313867   0.378   4.002  14.912  0.2046  0.3262 -0.4109
  103CHL1  H23A13868   0.394   3.897  14.879  1.1787  0.5371 -0.6208
  103CHL1  H23B13869   0.285   4.008  14.974 -1.0665  0.0652 -2.2172
  103CHL1   C2413870   0.376   4.094  14.794  0.3929  0.2474  0.5660
  103CHL1  H24A13871   0.361   4.201  14.819 -1.9964 -0.1436  1.0855
  103CHL1  H24B13872   0.473   4.086  14.741  0.5074 -0.5814  0.8896
  103CHL1   C2513873   0.261   4.056  14.691  0.0200 -0.0299  0.0040
  103CHL1   H2513874   0.286   3.950  14.667  0.0169 -0.0059 -0.1094
  103CHL1   C2613875   0.115   4.053  14.737  0.0994 -0.0561  0.4946
  103CHL1  H26A13876   0.063   4.149  14.720  1.2979  0.6799  0.8676
  103CHL1  H26B13877   0.054   3.980  14.680  2.5817 -2.5056  0.7196
  103CHL1  H26C13878   0.113   4.025  14.845 -1.3444  0.2769  0.5752
  103CHL1   C2713879   0.282   4.148  14.571 -0.1861 -0.6495 -0.9853
  103CHL1  H27A13880   0.229   4.133  14.474  1.2683 -0.1102 -1.9154
  103CHL1  H27B13881   0.243   4.249  14.597 -0.6719 -0.9399 -0.5660
  103CHL1  H27C13882   0.392   4.151  14.553  0.4590 -0.2354  2.3957
  104CHL1    C313883   5.622   3.634  16.468  0.2059 -0.4058 -0.6317
  104CHL1    H313884   5.538   3.701  16.498  1.2052  0.1277  1.1460
  104CHL1    O313885   5.715   3.626  16.579  0.1167 -0.2001  0.3276
  104CHL1   H3'13886   5.748   3.716  16.582  3.0606 -1.1587 -0.3069
  104CHL1    C413887   5.576   3.493  16.431 -0.0812 -0.1585  0.3539
  104CHL1   H4A13888   5.656   3.417  16.434 -0.0170 -0.1719 -1.0348
  104CHL1   H4B13889   5.494   3.473  16.503  0.7305 -1.7079  0.8846
  104CHL1    C513890   5.509   3.472  16.295 -0.3479  0.1083 -0.7638
  104CHL1    C613891   5.400   3.407  16.280 -0.3194  0.0834  0.7746
  104CHL1    H613892   5.337   3.382  16.366  0.5898  0.2774  1.5224
  104CHL1    C713893   5.326   3.380  16.160 -0.4262  0.1367  0.4930
  104CHL1   H7A13894   5.287   3.278  16.178 -2.7528  0.9971  0.7216
  104CHL1   H7B13895   5.246   3.456  16.144 -1.2726 -1.2531 -2.4805
  104CHL1    C813896   5.427   3.395  16.036  0.3343  0.4024  1.1491
  104CHL1    H813897   5.495   3.308  16.038 -0.2998 -0.1645 -0.1922
  104CHL1   C1413898   5.348   3.384  15.908 -0.0400 -0.8098  0.2790
  104CHL1   H1413899   5.282   3.474  15.909 -0.7144 -1.2900  2.0187
  104CHL1   C1513900   5.252   3.266  15.892  0.0363  1.0474 -0.0441
  104CHL1  H15A13901   5.308   3.181  15.936  0.1458  1.5552  0.8271
  104CHL1  H15B13902   5.156   3.272  15.948 -0.2601 -1.4014 -0.1847
  104CHL1   C1613903   5.226   3.255  15.747  0.0696  0.1332  0.3346
  104CHL1  H16A13904   5.247   3.151  15.713 -0.6384  0.0812  0.0496
  104CHL1  H16B13905   5.121   3.287  15.734  0.5086  1.1623 -0.9255
  104CHL1   C1713906   5.323   3.361  15.674 -0.2610  0.2600  0.3986
  104CHL1   H1713907   5.267   3.455  15.654 -1.6450 -0.4939  0.5685
  104CHL1   C1313908   5.434   3.386  15.783 -0.4032  0.6343 -0.1460
  104CHL1   C1813909   5.531   3.269  15.785 -0.1403 -0.4920 -0.1884
  104CHL1  H18A13910   5.591   3.265  15.879 -1.1070 -0.2428  0.4468
  104CHL1  H18B13911   5.470   3.178  15.768 -1.3745  0.2563  0.1343
  104CHL1  H18C13912   5.607   3.273  15.704 -0.7953  0.7711 -0.7680
  104CHL1   C1213913   5.500   3.529  15.782 -0.1581 -0.0673  0.7021
  104CHL1  H12A13914   5.550   3.552  15.685 -1.8464  0.9838  0.0263
  104CHL1  H12B13915   5.426   3.612  15.776 -1.2846 -1.1074 -0.1183
  104CHL1   C1113916   5.585   3.560  15.907  0.0708  0.3987 -0.2514
  104CHL1  H11A13917   5.671   3.490  15.900  0.6344  0.9075  1.2124
  104CHL1  H11B13918   5.636   3.658  15.912  1.8568 -0.5719  2.2037
  104CHL1    C913919   5.511   3.525  16.041  0.5647 -0.1580  0.3646
  104CHL1    H913920   5.436   3.605  16.055  0.4375 -0.3225  0.6323
  104CHL1   C1013921   5.587   3.537  16.182  0.1484  0.5284  0.8076
  104CHL1   C1913922   5.707   3.448  16.152 -0.6516 -0.1879 -0.0744
  104CHL1  H19A13923   5.675   3.348  16.114  2.2394 -0.9121 -0.8611
  104CHL1  H19B13924   5.779   3.488  16.077 -1.0735 -1.5894 -1.2927
  104CHL1  H19C13925   5.764   3.435  16.246  0.2575  0.1802 -0.5618
  104CHL1    C113926   5.623   3.679  16.219  0.5372  0.6102  0.5972
  104CHL1   H1A13927   5.681   3.730  16.139 -1.0187  1.5957  0.0515
  104CHL1   H1B13928   5.532   3.743  16.225  1.3598  2.0950 -1.4798
  104CHL1    C213929   5.697   3.686  16.349  0.4246 -0.5535 -0.2210
  104CHL1   H2A13930   5.717   3.794  16.364  1.5688 -0.6991 -0.6280
  104CHL1   H2B13931   5.796   3.636  16.350  0.8975  0.3715  0.5589
  104CHL1   C2013932   5.377   3.315  15.535  0.1817  0.1144 -0.0213
  104CHL1   H2013933   5.438   3.225  15.555 -0.0058 -0.3994 -1.6551
  104CHL1   C2113934   5.468   3.420  15.468  0.4398 -0.3729 -0.2474
  104CHL1  H21A13935   5.565   3.418  15.522  1.0073 -1.5904 -1.2419
  104CHL1  H21B13936   5.422   3.521  15.460  1.6230  0.0981 -1.5883
  104CHL1  H21C13937   5.487   3.393  15.362  1.4646  1.2946 -0.5155
  104CHL1   C2213938   5.261   3.271  15.438 -0.1515  0.7134 -0.1611
  104CHL1  H22A13939   5.195   3.208  15.502  0.4316 -0.7932 -0.9826
  104CHL1  H22B13940   5.194   3.355  15.409 -2.3956 -1.1909 -0.8627
  104CHL1   C2313941   5.301   3.197  15.306 -0.0508 -0.6047 -0.0977
  104CHL1  H23A13942   5.364   3.267  15.248 -0.3396 -1.7776 -1.8871
  104CHL1  H23B13943   5.367   3.117  15.345 -0.4338  0.3358  2.6846
  104CHL1   C2413944   5.172   3.159  15.230  0.1007 -0.2858 -0.6532
  104CHL1  H24A13945   5.089   3.128  15.297 -0.9263 -0.9266 -2.1737
  104CHL1  H24B13946   5.142   3.252  15.177 -1.1029 -1.0780 -1.3970
  104CHL1   C2513947   5.183   3.048  15.120 -0.6351 -0.1370  0.6572
  104CHL1   H2513948   5.164   2.953  15.174 -0.0954 -0.6639 -0.0702
  104CHL1   C2613949   5.060   3.047  15.025 -0.1548  0.0136  0.2313
  104CHL1  H26A13950   4.975   3.073  15.091  0.6564  0.3820  1.1601
  104CHL1  H26B13951   5.064   3.130  14.950  2.1889  0.4113  0.6971
  104CHL1  H26C13952   5.038   2.956  14.965 -1.9101  1.0330 -0.7386
  104CHL1   C2713953   5.320   3.041  15.053 -0.2898 -0.0618  0.0975
  104CHL1  H27A13954   5.305   2.965  14.973 -1.0260  1.8077 -1.6535
  104CHL1  H27B13955   5.352   3.134  15.001 -0.3374 -0.8494 -1.3893
  104CHL1  H27C13956   5.394   3.005  15.127 -0.1658  0.5553  0.2818
  105CHL1    C313957   5.047   2.937  16.638 -0.0110  0.2544 -0.6354
  105CHL1    H313958   4.981   2.849  16.645 -0.9810  0.8659 -1.7984
  105CHL1    O313959   5.113   2.949  16.763  0.1154  0.2885 -0.6810
  105CHL1   H3'13960   5.177   3.019  16.749  0.2352  0.0630 -1.2756
  105CHL1    C413961   5.150   2.920  16.524 -0.0192 -0.5778  0.4456
  105CHL1   H4A13962   5.220   3.006  16.520 -2.4522  1.5584  1.1822
  105CHL1   H4B13963   5.210   2.833  16.558  0.9064  0.0093  0.3511
  105CHL1    C513964   5.084   2.904  16.388  0.0129 -0.2675 -0.0304
  105CHL1    C613965   5.108   2.795  16.312  0.5013  0.0574  0.0556
  105CHL1    H613966   5.191   2.728  16.342  0.9676  0.7430  0.3334
  105CHL1    C713967   5.055   2.778  16.174 -0.1447  0.3978  0.2156
  105CHL1   H7A13968   5.133   2.743  16.102 -2.0017 -1.9223 -0.8143
  105CHL1   H7B13969   4.981   2.695  16.184  0.5989 -0.2518  0.4534
  105CHL1    C813970   4.982   2.897  16.117 -1.1048 -0.1060 -0.5642
  105CHL1    H813971   5.059   2.971  16.085  2.1552 -3.2219 -0.5463
  105CHL1   C1413972   4.890   2.854  15.999  0.4437  0.4049  0.6359
  105CHL1   H1413973   4.821   2.785  16.053  1.9341 -1.5024  0.2279
  105CHL1   C1513974   4.955   2.771  15.887  0.2605  0.1975 -0.3785
  105CHL1  H15A13975   5.060   2.806  15.877  1.0579 -0.2373  4.2736
  105CHL1  H15B13976   4.962   2.664  15.916  0.3770  0.2615 -0.1699
  105CHL1   C1613977   4.860   2.800  15.769  0.1488 -0.0572 -0.8250
  105CHL1  H16A13978   4.913   2.851  15.685 -0.8840  2.4359 -0.0741
  105CHL1  H16B13979   4.819   2.709  15.721  0.4218 -1.8506  2.1315
  105CHL1   C1713980   4.748   2.902  15.816 -0.8115  0.6356 -0.5642
  105CHL1   H1713981   4.669   2.842  15.865  0.5662 -0.4589  0.4160
  105CHL1   C1313982   4.814   2.969  15.938 -0.0084 -0.5542  0.5147
  105CHL1   C1813983   4.904   3.088  15.880  0.1176  0.7170  0.2293
  105CHL1  H18A13984   4.980   3.112  15.958  2.6304 -2.4283 -1.0265
  105CHL1  H18B13985   4.965   3.058  15.793 -0.6568  0.2691 -0.1721
  105CHL1  H18C13986   4.836   3.172  15.856 -0.2799  0.2161 -0.4286
  105CHL1   C1213987   4.723   3.033  16.052 -0.4000  0.4612  0.6342
  105CHL1  H12A13988   4.666   3.120  16.012 -0.0269  0.8576  0.9512
  105CHL1  H12B13989   4.650   2.952  16.075 -0.9694  0.9007  0.4163
  105CHL1   C1113990   4.805   3.077  16.169  0.0597 -0.3145 -0.4616
  105CHL1  H11A13991   4.863   3.169  16.144 -0.5840 -0.3908 -2.3643
  105CHL1  H11B13992   4.746   3.103  16.260 -2.4028  0.3901 -2.1678
  105CHL1    C913993   4.895   2.959  16.223 -0.1961 -0.6582  0.1438
  105CHL1    H913994   4.833   2.874  16.257 -0.2908 -0.4296  0.5479
  105CHL1   C1013995   4.980   3.014  16.348 -0.7148  0.5830  0.1206
  105CHL1   C1913996   5.054   3.146  16.310 -0.5180  0.0076 -0.3241
  105CHL1  H19A13997   4.993   3.239  16.318  1.5569  1.5191 -0.9775
  105CHL1  H19B13998   5.139   3.153  16.381  0.9923 -3.7593 -1.5049
  105CHL1  H19C13999   5.099   3.147  16.208 -0.2198  1.9865 -0.2201
  105CHL1    C114000   4.886   3.035  16.474  0.7123 -0.7018 -0.4130
  105CHL1   H1A14001   4.821   3.122  16.450  1.9322  0.1298 -0.7666
  105CHL1   H1B14002   4.819   2.947  16.464 -1.7512  1.1073 -0.8767
  105CHL1    C214003   4.952   3.052  16.615  0.7335 -0.2389  0.5188
  105CHL1   H2A14004   4.879   3.047  16.698  0.7713 -2.1182  0.4729
  105CHL1   H2B14005   4.998   3.153  16.610  2.3320 -0.9153  0.7302
  105CHL1   C2014006   4.685   2.987  15.705 -0.2054  0.2038 -0.3188
  105CHL1   H2014007   4.766   3.036  15.647 -0.9346  1.2653 -0.4600
  105CHL1   C2114008   4.584   3.092  15.752  0.6018 -0.8484 -0.2819
  105CHL1  H21A14009   4.521   3.056  15.836  3.6954  0.7433  2.9573
  105CHL1  H21B14010   4.526   3.133  15.666  2.8145  1.4745 -0.7852
  105CHL1  H21C14011   4.638   3.181  15.790  1.3444 -1.6074  0.4759
  105CHL1   C2214012   4.611   2.895  15.605 -0.0769 -0.0597 -0.0715
  105CHL1  H22A14013   4.693   2.826  15.576  1.1418  1.0491  0.5712
  105CHL1  H22B14014   4.535   2.831  15.654  1.2737 -0.8094  1.1180
  105CHL1   C2314015   4.569   2.969  15.481 -0.0278 -0.9340  0.0802
  105CHL1  H23A14016   4.478   3.028  15.504  0.0973 -1.2728  1.5641
  105CHL1  H23B14017   4.646   3.046  15.457  0.9770 -1.5359  1.2717
  105CHL1   C2414018   4.545   2.880  15.354  1.0036 -0.4677  0.3906
  105CHL1  H24A14019   4.633   2.815  15.335  0.8195 -0.7142  0.3682
  105CHL1  H24B14020   4.456   2.816  15.374  0.8484 -0.2410  0.4282
  105CHL1   C2514021   4.523   2.972  15.232 -0.1044  0.9157  0.5248
  105CHL1   H2514022   4.461   3.054  15.273  0.5933  2.0049 -0.5547
  105CHL1   C2614023   4.646   3.012  15.157 -0.6901 -0.3093 -0.5335
  105CHL1  H26A14024   4.675   2.945  15.073  1.8162  1.4468 -1.1978
  105CHL1  H26B14025   4.631   3.109  15.104  1.0338  0.7727  0.8634
  105CHL1  H26C14026   4.730   3.022  15.229 -0.6242 -1.7296 -0.3753
  105CHL1   C2714027   4.425   2.896  15.136 -0.5090 -0.1446 -0.0245
  105CHL1  H27A14028   4.474   2.840  15.054 -3.1932 -1.3723 -0.9081
  105CHL1  H27B14029   4.361   2.816  15.180  0.4171 -1.3313 -0.7384
  105CHL1  H27C14030   4.362   2.963  15.074  0.0924 -0.2210 -0.7382
  106CHL1    C314031   1.517   1.960  16.620  0.1793  0.4670  0.2708
  106CHL1    H314032   1.613   1.980  16.569 -0.2361 -0.1482 -0.8030
  106CHL1    O314033   1.519   2.035  16.736  0.0550 -0.7463 -0.1718
  106CHL1   H3'14034   1.431   2.027  16.772 -1.0931  1.3765 -2.1940
  106CHL1    C414035   1.402   1.993  16.525  0.4516 -0.4201 -0.1204
  106CHL1   H4A14036   1.301   1.985  16.571  0.5290 -1.4252 -0.0947
  106CHL1   H4B14037   1.420   2.101  16.510  2.2864 -0.7744 -0.7622
  106CHL1    C514038   1.421   1.908  16.401  0.5657  0.1227  0.2768
  106CHL1    C614039   1.442   1.963  16.280  0.3272 -0.9482  0.4788
  106CHL1    H614040   1.461   2.071  16.270 -0.2404 -1.0064 -1.7861
  106CHL1    C714041   1.452   1.883  16.156  0.0426  0.6552 -0.1592
  106CHL1   H7A14042   1.400   1.932  16.071  1.2305  1.2320 -0.5731
  106CHL1   H7B14043   1.561   1.872  16.140  0.0660 -0.4801  0.6220
  106CHL1    C814044   1.402   1.733  16.171  0.5070 -0.1910 -0.4112
  106CHL1    H814045   1.293   1.723  16.192  0.1068 -0.0736 -2.2759
  106CHL1   C1414046   1.450   1.642  16.054 -0.2619 -0.5937 -0.1142
  106CHL1   H1414047   1.561   1.639  16.063 -0.0780 -2.7970 -1.9801
  106CHL1   C1514048   1.420   1.695  15.913 -0.4014  0.2061 -0.6353
  106CHL1  H15A14049   1.328   1.758  15.908 -1.3146 -1.0759 -0.4575
  106CHL1  H15B14050   1.511   1.753  15.885 -0.3570  1.2999  1.5674
  106CHL1   C1614051   1.406   1.565  15.827 -0.3504  0.0280  0.0367
  106CHL1  H16A14052   1.299   1.555  15.798 -0.0956  0.1333 -0.9871
  106CHL1  H16B14053   1.471   1.557  15.737 -2.2843 -0.6644 -1.3543
  106CHL1   C1714054   1.439   1.451  15.920  0.2958 -0.2023  1.2883
  106CHL1   H1714055   1.549   1.438  15.920  0.4355  0.5941 -0.9941
  106CHL1   C1314056   1.399   1.502  16.055 -0.4636 -0.4963  0.5807
  106CHL1   C1814057   1.251   1.490  16.076  1.3926 -0.5839  0.3010
  106CHL1  H18A14058   1.214   1.519  16.177  3.6397 -1.7211  1.5367
  106CHL1  H18B14059   1.204   1.557  16.001 -0.6549 -1.1805  0.9767
  106CHL1  H18C14060   1.220   1.384  16.068  0.0554 -0.3763  1.9858
  106CHL1   C1214061   1.476   1.440  16.168  0.2637  0.7573 -0.4760
  106CHL1  H12A14062   1.446   1.333  16.175 -1.3638  1.1110 -1.3718
  106CHL1  H12B14063   1.584   1.452  16.144  0.6432  0.5059  1.0318
  106CHL1   C1114064   1.436   1.512  16.304 -0.1221 -0.1228  0.3353
  106CHL1  H11A14065   1.329   1.491  16.327 -0.4118  1.0017  0.0973
  106CHL1  H11B14066   1.503   1.468  16.380 -0.3128  0.0285  0.5941
  106CHL1    C914067   1.456   1.670  16.306  0.2513  0.6544  0.9713
  106CHL1    H914068   1.564   1.693  16.296  1.0134 -1.6576  2.9305
  106CHL1   C1014069   1.407   1.754  16.423  0.6022 -0.2728  0.0183
  106CHL1   C1914070   1.264   1.710  16.449  0.2976  0.3473 -0.0890
  106CHL1  H19A14071   1.258   1.603  16.475  2.8642  0.0678 -0.4013
  106CHL1  H19B14072   1.230   1.771  16.535 -0.2158 -0.5838  0.3811
  106CHL1  H19C14073   1.198   1.732  16.363  0.3675  1.6288  0.1648
  106CHL1    C114074   1.503   1.715  16.545 -0.2872 -0.3359 -0.2449
  106CHL1   H1A14075   1.486   1.610  16.578  1.5372 -0.6773 -0.2754
  106CHL1   H1B14076   1.607   1.722  16.504 -0.3650  1.5601 -0.2062
  106CHL1    C214077   1.503   1.812  16.663  0.3073  0.2702  0.0639
  106CHL1   H2A14078   1.586   1.784  16.732  0.7253 -1.2401 -1.0048
  106CHL1   H2B14079   1.412   1.807  16.726  0.0532 -1.7660 -0.4104
  106CHL1   C2014080   1.377   1.322  15.866  0.0467 -0.0456  0.6568
  106CHL1   H2014081   1.269   1.348  15.865  0.2317  0.8296  1.5135
  106CHL1   C2114082   1.398   1.202  15.960  0.1338 -0.2725  0.1579
  106CHL1  H21A14083   1.326   1.199  16.044 -0.5952 -2.1672 -0.4941
  106CHL1  H21B14084   1.501   1.203  16.000 -0.3561 -0.9568  1.4597
  106CHL1  H21C14085   1.388   1.111  15.897 -0.6425  0.9217 -1.5376
  106CHL1   C2214086   1.418   1.287  15.723 -0.0147 -0.0531 -0.4094
  106CHL1  H22A14087   1.367   1.192  15.698  0.3998 -0.1650 -0.8458
  106CHL1  H22B14088   1.371   1.362  15.656  1.9383 -0.6561 -2.6270
  106CHL1   C2314089   1.574   1.267  15.706 -0.1524  0.3229 -0.1584
  106CHL1  H23A14090   1.634   1.352  15.746  0.6765 -1.0316  1.6751
  106CHL1  H23B14091   1.595   1.176  15.766 -1.0015 -0.0312 -0.3888
  106CHL1   C2414092   1.624   1.225  15.571 -0.3645 -0.3696 -0.4610
  106CHL1  H24A14093   1.732   1.200  15.578  0.2742  1.6176 -2.1516
  106CHL1  H24B14094   1.562   1.135  15.549 -0.5912 -0.2003 -0.5127
  106CHL1   C2514095   1.587   1.312  15.449 -0.0131  0.7387 -0.0174
  106CHL1   H2514096   1.482   1.346  15.455 -0.7298 -1.3374 -0.0503
  106CHL1   C2614097   1.680   1.430  15.428 -0.4654 -0.1399  0.2162
  106CHL1  H26A14098   1.782   1.395  15.452 -1.5286 -1.3665  3.4225
  106CHL1  H26B14099   1.667   1.469  15.325  0.8810 -0.2051  0.0057
  106CHL1  H26C14100   1.659   1.521  15.489 -1.1964 -0.4723  0.4808
  106CHL1   C2714101   1.594   1.218  15.323  0.2842  0.0208 -0.5654
  106CHL1  H27A14102   1.508   1.148  15.333 -1.9254  2.4868 -1.1928
  106CHL1  H27B14103   1.577   1.281  15.233 -2.0414  1.3010  0.6896
  106CHL1  H27C14104   1.686   1.157  15.309 -0.9116 -2.4319  1.4666
  107CHL1    C314105   3.016   5.711  16.584 -0.6420 -0.5589  0.2212
  107CHL1    H314106   3.062   5.799  16.536 -0.5862  0.3271  1.8133
  107CHL1    O314107   3.032   5.722  16.727 -0.5573  0.1016  0.3298
  107CHL1   H3'14108   3.017   5.817  16.734  0.9483  0.3484  0.6539
  107CHL1    C414109   2.863   5.704  16.557  0.6449 -0.0424  0.0675
  107CHL1   H4A14110   2.825   5.615  16.611  2.0442  0.4293  1.9647
  107CHL1   H4B14111   2.810   5.793  16.597  2.0545 -0.1277  2.3241
  107CHL1    C514112   2.837   5.689  16.410 -0.1747 -0.1232 -0.0891
  107CHL1    C614113   2.761   5.786  16.351  0.7173  0.4223  0.3628
  107CHL1    H614114   2.726   5.877  16.402  2.5859  0.0135  2.5222
  107CHL1    C714115   2.725   5.779  16.200  0.3017 -0.3463 -0.2263
  107CHL1   H7A14116   2.618   5.807  16.185  0.4951  0.4728 -0.1079
  107CHL1   H7B14117   2.762   5.874  16.155 -2.3895  0.6266 -0.5884
  107CHL1    C814118   2.759   5.633  16.142  0.6797 -0.0129 -0.0046
  107CHL1    H814119   2.681   5.561  16.175 -1.8206  1.5289 -2.1835
  107CHL1   C1414120   2.745   5.642  15.997 -0.2890 -0.8368 -0.0093
  107CHL1   H1414121   2.812   5.727  15.971 -1.6012  1.3551  3.0360
  107CHL1   C1514122   2.609   5.693  15.937  0.1889  0.1964 -0.3719
  107CHL1  H15A14123   2.522   5.651  15.992  0.7750  1.1891  1.3850
  107CHL1  H15B14124   2.601   5.802  15.956  0.0101  0.4417 -1.7144
  107CHL1   C1614125   2.624   5.660  15.786 -0.4704  0.5754 -0.6837
  107CHL1  H16A14126   2.546   5.584  15.764 -0.1947  0.1730 -0.2916
  107CHL1  H16B14127   2.617   5.748  15.718  3.0614 -0.6976 -3.0318
  107CHL1   C1714128   2.766   5.591  15.768 -0.3974  0.5457  0.2614
  107CHL1   H1714129   2.836   5.673  15.739 -1.4956  0.3436 -3.5287
  107CHL1   C1314130   2.797   5.536  15.907 -0.6237  0.3945 -0.7706
  107CHL1   C1814131   2.709   5.409  15.942 -0.1937  0.0417  0.0072
  107CHL1  H18A14132   2.609   5.423  15.897  1.0497  1.0842 -2.6561
  107CHL1  H18B14133   2.744   5.323  15.879 -1.4627 -1.4857  1.2962
  107CHL1  H18C14134   2.696   5.376  16.047 -2.5218  0.0196 -0.2442
  107CHL1   C1214135   2.940   5.504  15.943 -0.6065 -0.5130  0.1254
  107CHL1  H12A14136   2.977   5.417  15.884  0.4100  0.6023 -0.9593
  107CHL1  H12B14137   2.990   5.596  15.905 -2.7463 -0.2343 -2.3089
  107CHL1   C1114138   2.959   5.471  16.094  0.2937  1.1580  0.2464
  107CHL1  H11A14139   2.914   5.372  16.117  2.6826 -0.3370 -1.1073
  107CHL1  H11B14140   3.064   5.454  16.125  0.6077  0.4535 -1.1698
  107CHL1    C914141   2.904   5.584  16.180  0.9588 -0.6234 -0.1152
  107CHL1    H914142   2.974   5.667  16.154  0.3779  0.1685  0.7974
  107CHL1   C1014143   2.913   5.581  16.333 -0.8108  0.3750  0.1428
  107CHL1   C1914144   2.854   5.448  16.380  0.0273  0.5590 -0.8438
  107CHL1  H19A14145   2.752   5.436  16.338  1.6383  0.6643 -5.3248
  107CHL1  H19B14146   2.913   5.360  16.348  0.3948  0.4363  0.1461
  107CHL1  H19C14147   2.846   5.451  16.491 -0.9589 -2.5117 -0.7322
  107CHL1    C114148   3.067   5.574  16.377  0.6278  0.4403  0.0448
  107CHL1   H1A14149   3.105   5.473  16.351 -1.0195  0.5532 -3.4610
  107CHL1   H1B14150   3.119   5.647  16.311 -1.4460 -0.3578 -2.6671
  107CHL1    C214151   3.096   5.586  16.527 -0.5274 -0.4315 -0.4403
  107CHL1   H2A14152   3.202   5.619  16.531  0.1507 -2.5448  0.4723
  107CHL1   H2B14153   3.075   5.496  16.589  3.8786 -0.6636  1.0322
  107CHL1   C2014154   2.774   5.490  15.654 -0.8702  0.1599 -0.7362
  107CHL1   H2014155   2.755   5.391  15.700  2.1305  1.0379  2.8725
  107CHL1   C2114156   2.926   5.487  15.608 -0.5003 -0.5362 -0.0953
  107CHL1  H21A14157   2.951   5.588  15.571 -1.6486 -0.0080  0.5195
  107CHL1  H21B14158   2.939   5.409  15.530  2.5331  0.3119 -0.5539
  107CHL1  H21C14159   3.000   5.454  15.685 -1.3740 -1.9657  0.1579
  107CHL1   C2214160   2.688   5.515  15.534 -0.3448  0.3112  0.9231
  107CHL1  H22A14161   2.586   5.549  15.562 -0.5049 -0.0684  0.8076
  107CHL1  H22B14162   2.741   5.591  15.473  1.1275  0.0200  1.8069
  107CHL1   C2314163   2.652   5.390  15.441 -0.2633  0.3654  0.8988
  107CHL1  H23A14164   2.752   5.353  15.410  0.0882  2.1188 -0.1586
  107CHL1  H23B14165   2.604   5.310  15.501 -2.4803  2.4630  2.0705
  107CHL1   C2414166   2.562   5.419  15.311  0.0564  0.0722 -0.0624
  107CHL1  H24A14167   2.558   5.329  15.247 -1.1489  1.0417 -1.4131
  107CHL1  H24B14168   2.464   5.452  15.352 -0.3264 -1.6863  0.5371
  107CHL1   C2514169   2.617   5.539  15.230 -0.1952 -0.0780 -0.5802
  107CHL1   H2514170   2.610   5.634  15.287 -0.9162  0.2348 -1.1689
  107CHL1   C2614171   2.768   5.522  15.183 -0.0680 -0.1325 -0.6140
  107CHL1  H26A14172   2.829   5.507  15.274  1.1297  3.1152 -0.7572
  107CHL1  H26B14173   2.777   5.435  15.114  0.6533 -0.6698  0.1343
  107CHL1  H26C14174   2.798   5.616  15.131  1.7516 -1.1217 -1.4567
  107CHL1   C2714175   2.527   5.552  15.108  0.1127  0.7428 -0.0824
  107CHL1  H27A14176   2.538   5.455  15.055 -1.3139  0.0625  0.7972
  107CHL1  H27B14177   2.421   5.578  15.130  0.7191  1.9008  1.6939
  107CHL1  H27C14178   2.569   5.619  15.030  0.6899 -0.1005 -0.5109
  108CHL1    C314179   3.872   1.290  16.468 -0.2301  0.7697  0.4588
  108CHL1    H314180   3.963   1.281  16.406 -0.5557 -1.9832  0.2320
  108CHL1    O314181   3.916   1.313  16.605 -0.1124  0.1656  0.5811
  108CHL1   H3'14182   3.836   1.295  16.655  1.6751  0.7997  3.9799
  108CHL1    C414183   3.789   1.402  16.421 -0.2741 -0.2043 -0.3494
  108CHL1   H4A14184   3.709   1.411  16.497  2.2580  0.9590  2.3416
  108CHL1   H4B14185   3.850   1.494  16.429  0.3069 -0.7109  1.4397
  108CHL1    C514186   3.736   1.384  16.279 -0.0364  0.6330  0.3238
  108CHL1    C614187   3.763   1.463  16.173  0.0539 -0.4679  0.0763
  108CHL1    H614188   3.832   1.549  16.182 -0.2856 -0.2517  0.6616
  108CHL1    C714189   3.701   1.442  16.035  0.0940  0.8388 -0.2458
  108CHL1   H7A14190   3.659   1.539  16.001 -0.2064  0.2391 -1.6295
  108CHL1   H7B14191   3.772   1.396  15.963  0.3844  1.6986 -0.5291
  108CHL1    C814192   3.590   1.337  16.031  0.1029  0.5888  0.2201
  108CHL1    H814193   3.500   1.389  16.069 -1.8445  0.1792 -3.4705
  108CHL1   C1414194   3.569   1.287  15.883 -0.5970  0.1326  0.4911
  108CHL1   H1414195   3.659   1.222  15.873  1.1934  2.2808  1.8428
  108CHL1   C1514196   3.576   1.387  15.767 -0.2114  0.1615 -0.4510
  108CHL1  H15A14197   3.523   1.478  15.800 -0.2492  0.2293 -0.7017
  108CHL1  H15B14198   3.682   1.407  15.739 -0.0197  0.8902  0.7328
  108CHL1   C1614199   3.505   1.322  15.652 -0.5019  0.1174  0.4614
  108CHL1  H16A14200   3.422   1.390  15.621  0.5960  1.2669 -0.0086
  108CHL1  H16B14201   3.563   1.294  15.563 -0.2661 -0.8003  0.8905
  108CHL1   C1714202   3.448   1.183  15.705 -0.4000 -0.0667  0.2602
  108CHL1   H1714203   3.518   1.101  15.682  0.1771 -0.0551  1.8770
  108CHL1   C1314204   3.446   1.196  15.860 -0.5662 -0.4928 -0.0184
  108CHL1   C1814205   3.323   1.276  15.900 -1.0385 -0.3143  0.6036
  108CHL1  H18A14206   3.309   1.367  15.838  0.7486 -0.6016 -0.2907
  108CHL1  H18B14207   3.239   1.204  15.900  0.4300 -2.1073  0.4862
  108CHL1  H18C14208   3.331   1.318  16.002 -1.7433  1.1359  0.0896
  108CHL1   C1214209   3.471   1.074  15.949  0.2110 -0.2621 -0.0469
  108CHL1  H12A14210   3.380   1.011  15.943 -0.2321  0.5092 -3.1138
  108CHL1  H12B14211   3.549   1.018  15.893  0.8710  0.8560 -0.2914
  108CHL1   C1114212   3.506   1.106  16.097 -0.4318  0.1032  0.0489
  108CHL1  H11A14213   3.415   1.145  16.148  0.0920  1.0695  0.2626
  108CHL1  H11B14214   3.533   1.009  16.143  1.5697  0.6951  0.1977
  108CHL1    C914215   3.619   1.207  16.110  0.7909  0.9039 -0.5797
  108CHL1    H914216   3.703   1.155  16.059 -0.1343  0.6269 -1.8687
  108CHL1   C1014217   3.657   1.252  16.256  0.2118 -0.0458 -0.8114
  108CHL1   C1914218   3.522   1.266  16.335  0.1032 -0.2805 -0.1350
  108CHL1  H19A14219   3.458   1.326  16.266 -1.0347 -0.2950  0.8805
  108CHL1  H19B14220   3.471   1.170  16.355 -0.4449 -0.0205 -0.2427
  108CHL1  H19C14221   3.539   1.318  16.432 -2.3968 -0.9023  0.7237
  108CHL1    C114222   3.755   1.144  16.309  0.1443 -0.1428  0.5710
  108CHL1   H1A14223   3.706   1.045  16.294 -0.1662  0.0931 -0.0246
  108CHL1   H1B14224   3.845   1.145  16.244 -1.3651 -0.4371 -1.6639
  108CHL1    C214225   3.803   1.158  16.457 -0.0546 -0.1517 -0.5079
  108CHL1   H2A14226   3.877   1.079  16.481  0.7096  0.0133 -2.1547
  108CHL1   H2B14227   3.716   1.151  16.526  0.5270  0.4186  0.3026
  108CHL1   C2014228   3.314   1.142  15.636 -0.3838  0.1711 -0.1446
  108CHL1   H2014229   3.236   1.217  15.661  0.4226  0.2879  2.1947
  108CHL1   C2114230   3.254   1.006  15.691 -0.1069 -0.6572  0.1539
  108CHL1  H21A14231   3.332   0.927  15.683 -0.2039 -0.6912 -0.4866
  108CHL1  H21B14232   3.165   0.979  15.631  0.2763  1.0166 -1.2458
  108CHL1  H21C14233   3.214   1.014  15.795 -2.8904 -0.1008 -0.8736
  108CHL1   C2214234   3.319   1.140  15.480  0.5537 -1.4466  0.0911
  108CHL1  H22A14235   3.213   1.144  15.448  0.4605 -1.0200  0.4500
  108CHL1  H22B14236   3.354   1.240  15.447 -0.6435 -1.5283 -1.5762
  108CHL1   C2314237   3.388   1.028  15.413  0.0640  0.1170  0.5482
  108CHL1  H23A14238   3.495   1.036  15.444  0.2477 -1.3466  0.3361
  108CHL1  H23B14239   3.337   0.937  15.452 -0.5807  0.0469 -0.4398
  108CHL1   C2414240   3.384   1.024  15.261  0.4278 -0.1088 -0.5119
  108CHL1  H24A14241   3.276   1.013  15.240 -0.2698  1.2624  1.9643
  108CHL1  H24B14242   3.416   1.124  15.225 -0.5955  0.6528  0.6217
  108CHL1   C2514243   3.441   0.895  15.196 -0.3491 -0.0150  0.8792
  108CHL1   H2514244   3.534   0.868  15.248 -1.2641 -0.7921  2.1652
  108CHL1   C2614245   3.365   0.767  15.211  0.9601 -0.6140 -0.1181
  108CHL1  H26A14246   3.328   0.744  15.313  1.0138 -1.3772 -0.2612
  108CHL1  H26B14247   3.280   0.772  15.139  2.2369 -1.7268 -1.7723
  108CHL1  H26C14248   3.420   0.677  15.176  1.1823 -0.2555 -0.7066
  108CHL1   C2714249   3.466   0.926  15.045  0.2240 -0.2666 -0.3989
  108CHL1  H27A14250   3.547   1.001  15.037 -0.7233  0.8203  0.0708
  108CHL1  H27B14251   3.492   0.835  14.986 -0.5255 -0.8410  0.1337
  108CHL1  H27C14252   3.384   0.981  14.995  0.3621 -0.1389 -0.4860
  109CHL1    C314253   1.750   5.758  16.577  0.6085 -0.8848  0.4234
  109CHL1    H314254   1.741   5.647  16.580  0.8260 -0.9353 -0.6252
  109CHL1    O314255   1.760   5.808  16.707  0.0219 -0.2162 -0.1879
  109CHL1   H3'14256   1.835   5.761  16.745  0.2454  0.0543 -0.2934
  109CHL1    C414257   1.879   5.795  16.494  0.5302 -0.2231  0.0116
  109CHL1   H4A14258   1.884   5.905  16.507 -4.9922  0.2218  1.0473
  109CHL1   H4B14259   1.958   5.744  16.554  0.3358 -0.4574  0.0720
  109CHL1    C514260   1.871   5.758  16.348 -0.5757 -0.7934 -0.6494
  109CHL1    C614261   1.963   5.681  16.287  0.3542 -0.6744 -0.6317
  109CHL1    H614262   2.052   5.643  16.338 -0.4189  1.4218  2.5347
  109CHL1    C714263   1.962   5.653  16.144  0.1051  0.1193  0.2047
  109CHL1   H7A14264   2.067   5.666  16.110  0.6946 -0.7237  1.6252
  109CHL1   H7B14265   1.945   5.544  16.126 -1.7185  0.1794  1.2865
  109CHL1    C814266   1.859   5.731  16.061 -0.0928 -0.5516 -0.2916
  109CHL1    H814267   1.893   5.837  16.062  1.1563 -0.9265 -0.8828
  109CHL1   C1414268   1.853   5.679  15.923  0.2767 -0.4441 -0.9440
  109CHL1   H1414269   1.829   5.570  15.923 -0.7927 -0.2301  0.0658
  109CHL1   C1514270   1.986   5.696  15.847  0.4349  0.2666 -0.8478
  109CHL1  H15A14271   2.046   5.785  15.878  1.0592 -0.0961 -0.9945
  109CHL1  H15B14272   2.045   5.603  15.860 -0.6523 -0.5480 -1.6962
  109CHL1   C1614273   1.942   5.698  15.702  0.6834 -0.6179 -0.1723
  109CHL1  H16A14274   1.967   5.798  15.661  1.1976 -0.0070  1.5549
  109CHL1  H16B14275   1.980   5.612  15.642  0.7454 -0.9962  0.4080
  109CHL1   C1714276   1.778   5.690  15.702 -0.8807  0.1967  0.3003
  109CHL1   H1714277   1.743   5.584  15.695 -0.2161  0.0802 -2.1903
  109CHL1   C1314278   1.740   5.745  15.841 -0.3970 -0.7135  0.3761
  109CHL1   C1814279   1.755   5.904  15.827 -0.2018  1.1453  0.5274
  109CHL1  H18A14280   1.663   5.942  15.779  0.7238  1.0237 -1.4232
  109CHL1  H18B14281   1.771   5.956  15.924 -3.0388  1.1513  1.0504
  109CHL1  H18C14282   1.845   5.930  15.768  0.1369 -0.2312  0.3865
  109CHL1   C1214283   1.610   5.709  15.901  0.2721  0.2448 -0.1235
  109CHL1  H12A14284   1.525   5.754  15.846  1.5179 -0.5066 -2.8944
  109CHL1  H12B14285   1.589   5.600  15.895 -0.0254  0.2645  0.5761
  109CHL1   C1114286   1.602   5.765  16.046 -0.6704  0.0836 -0.0749
  109CHL1  H11A14287   1.606   5.876  16.040 -0.4281  0.1259  0.7096
  109CHL1  H11B14288   1.512   5.740  16.105  0.8621 -1.1131  1.8592
  109CHL1    C914289   1.728   5.724  16.131  0.6563 -0.4945 -0.0107
  109CHL1    H914290   1.710   5.619  16.162 -0.9484 -0.5186 -0.9065
  109CHL1   C1014291   1.746   5.802  16.271  0.9848  0.0952 -0.3700
  109CHL1   C1914292   1.743   5.961  16.255 -0.1149 -0.1127  0.2838
  109CHL1  H19A14293   1.838   5.991  16.205 -1.8411  1.3711 -2.3626
  109CHL1  H19B14294   1.656   5.990  16.193  1.0751 -2.0756 -2.5324
  109CHL1  H19C14295   1.738   6.021  16.348  1.8682  2.5630 -1.1458
  109CHL1    C114296   1.613   5.767  16.360  0.5956 -0.7575  0.4451
  109CHL1   H1A14297   1.534   5.820  16.302  0.3673  1.1730  2.3790
  109CHL1   H1B14298   1.594   5.658  16.367 -0.6118 -0.5104  1.4344
  109CHL1    C214299   1.628   5.824  16.501  0.0965  0.4776 -0.0513
  109CHL1   H2A14300   1.543   5.800  16.569 -0.0513  0.1963 -0.3348
  109CHL1   H2B14301   1.633   5.935  16.502 -0.5817  0.5170 -0.4785
  109CHL1   C2014302   1.722   5.748  15.565 -0.0623  0.1543  0.1992
  109CHL1   H2014303   1.749   5.856  15.560 -0.2577  0.4576  3.5763
  109CHL1   C2114304   1.564   5.730  15.577 -0.1284  0.5037 -0.1240
  109CHL1  H21A14305   1.541   5.626  15.610  1.7086  0.5346  1.4529
  109CHL1  H21B14306   1.511   5.765  15.486  0.0762 -1.0324 -0.8655
  109CHL1  H21C14307   1.526   5.800  15.655 -5.3247 -1.2865 -0.6976
  109CHL1   C2214308   1.782   5.681  15.439  0.0148  0.5513 -0.2002
  109CHL1  H22A14309   1.893   5.688  15.446  0.0539 -1.2370  2.1223
  109CHL1  H22B14310   1.775   5.570  15.440  1.4427  0.4235 -0.8856
  109CHL1   C2314311   1.736   5.748  15.305  0.0885  0.0505  0.0276
  109CHL1  H23A14312   1.629   5.723  15.286  0.3383 -2.4826  1.5210
  109CHL1  H23B14313   1.743   5.858  15.320 -1.9749  0.0053  1.8141
  109CHL1   C2414314   1.807   5.713  15.176  0.1229 -0.2988  0.1955
  109CHL1  H24A14315   1.917   5.711  15.190  0.3508 -1.5529 -1.5177
  109CHL1  H24B14316   1.774   5.611  15.146  1.0344 -0.8467  0.9850
  109CHL1   C2514317   1.757   5.805  15.057  0.1411  0.3746 -0.4051
  109CHL1   H2514318   1.797   5.754  14.967  0.3681 -2.1821  1.0544
  109CHL1   C2614319   1.604   5.810  15.052  0.0514 -0.5632 -0.0593
  109CHL1  H26A14320   1.564   5.708  15.033 -1.3479  0.2332 -1.7194
  109CHL1  H26B14321   1.557   5.862  15.138  1.1059  1.5787 -0.7289
  109CHL1  H26C14322   1.569   5.868  14.964  0.5380  0.9430  0.7203
  109CHL1   C2714323   1.806   5.950  15.065 -0.3893  0.0777  0.0703
  109CHL1  H27A14324   1.917   5.956  15.067 -0.4082  0.4446  1.6418
  109CHL1  H27B14325   1.760   6.011  14.985  0.8529  2.4809  1.1014
  109CHL1  H27C14326   1.778   5.997  15.162  1.6233 -0.2164  0.8288
  110CHL1    C314327   0.501   5.075  16.378  0.1103 -0.6526  0.3100
  110CHL1    H314328   0.552   4.978  16.365  1.9017  0.5723 -2.7815
  110CHL1    O314329   0.450   5.085  16.510 -0.0505 -0.1341  0.7827
  110CHL1   H3'14330   0.423   5.176  16.522  0.4144 -0.1085  1.7462
  110CHL1    C414331   0.592   5.203  16.359  0.0179  0.2310 -0.5188
  110CHL1   H4A14332   0.543   5.296  16.396  1.5341 -0.0995  2.6620
  110CHL1   H4B14333   0.670   5.196  16.437 -0.7514 -2.2683  0.1115
  110CHL1    C514334   0.648   5.229  16.219  0.3513  0.6713 -0.2099
  110CHL1    C614335   0.782   5.235  16.189 -0.2432  0.0428  0.0963
  110CHL1    H614336   0.864   5.238  16.262  0.5747  3.1753 -0.8179
  110CHL1    C714337   0.830   5.251  16.048  0.3900 -0.1097  0.0417
  110CHL1   H7A14338   0.907   5.331  16.048  0.9683 -0.6610 -0.5589
  110CHL1   H7B14339   0.874   5.156  16.010 -0.1947 -0.5112  0.3588
  110CHL1    C814340   0.710   5.288  15.942 -0.1438  0.5592 -0.3854
  110CHL1    H814341   0.690   5.397  15.949  0.1532  0.6998 -1.4909
  110CHL1   C1414342   0.759   5.255  15.802  0.3496 -0.0772  0.7662
  110CHL1   H1414343   0.778   5.146  15.805 -1.7638 -0.4885  3.2038
  110CHL1   C1514344   0.886   5.322  15.746  0.2652 -0.5046  0.0609
  110CHL1  H15A14345   0.899   5.427  15.778  0.0724  0.3668 -2.5007
  110CHL1  H15B14346   0.978   5.272  15.785  0.2825 -2.2067 -1.9339
  110CHL1   C1614347   0.880   5.292  15.593 -0.5438 -0.1489 -0.7249
  110CHL1  H16A14348   0.880   5.396  15.552 -0.5774  1.2132  2.4326
  110CHL1  H16B14349   0.952   5.223  15.546  0.9188  2.2828 -2.2954
  110CHL1   C1714350   0.730   5.245  15.568  0.7784  0.4995  0.3209
  110CHL1   H1714351   0.751   5.137  15.580 -1.8174 -0.0815  0.2107
  110CHL1   C1314352   0.650   5.281  15.693 -0.5808  0.7804 -0.5327
  110CHL1   C1814353   0.620   5.430  15.689 -0.0624 -0.5116  0.3801
  110CHL1  H18A14354   0.584   5.474  15.593  0.2282  1.4253  1.1047
  110CHL1  H18B14355   0.550   5.463  15.769  1.6952  0.1103  1.7229
  110CHL1  H18C14356   0.708   5.490  15.721 -1.4189  2.1298 -0.4799
  110CHL1   C1214357   0.532   5.182  15.723 -0.5427  0.2300 -0.3517
  110CHL1  H12A14358   0.441   5.186  15.659 -1.0508 -0.7340  0.2821
  110CHL1  H12B14359   0.571   5.078  15.724 -0.2187  0.3551  0.2661
  110CHL1   C1114360   0.483   5.207  15.865  0.7909  0.3571  0.2927
  110CHL1  H11A14361   0.414   5.294  15.860 -2.1471 -1.8061  0.7066
  110CHL1  H11B14362   0.403   5.132  15.882  1.6465 -0.8193 -0.6634
  110CHL1    C914363   0.586   5.204  15.976 -0.3289 -0.0327  0.6037
  110CHL1    H914364   0.634   5.104  15.983 -1.4704 -0.7225 -0.7488
  110CHL1   C1014365   0.540   5.223  16.113  0.1160 -0.6642 -0.2439
  110CHL1   C1914366   0.471   5.364  16.122 -0.0568 -0.1805  0.4830
  110CHL1  H19A14367   0.378   5.362  16.061  0.4285 -0.8678 -0.2601
  110CHL1  H19B14368   0.448   5.392  16.227  2.0671  1.4494  0.5836
  110CHL1  H19C14369   0.529   5.454  16.091 -1.6849  0.4845 -0.7440
  110CHL1    C114370   0.435   5.110  16.141 -0.2032  0.6798 -0.0557
  110CHL1   H1A14371   0.342   5.134  16.084 -1.1437 -0.4716  0.9357
  110CHL1   H1B14372   0.474   5.016  16.096 -0.7389  1.1262 -1.5304
  110CHL1    C214373   0.385   5.091  16.283  0.4512 -0.6606 -0.5328
  110CHL1   H2A14374   0.305   5.014  16.285  1.0685 -1.3100 -0.5912
  110CHL1   H2B14375   0.335   5.187  16.309 -0.9014 -0.6304 -2.9727
  110CHL1   C2014376   0.668   5.269  15.432  0.5096 -0.8712 -0.0718
  110CHL1   H2014377   0.590   5.348  15.439  0.5708 -0.6559 -1.5576
  110CHL1   C2114378   0.608   5.132  15.391  0.0824  0.0940  1.0013
  110CHL1  H21A14379   0.680   5.049  15.374 -2.6717 -2.2208 -0.2009
  110CHL1  H21B14380   0.565   5.143  15.289 -1.1004 -1.0936  1.3498
  110CHL1  H21C14381   0.530   5.095  15.460  0.2735  1.0981  1.7782
  110CHL1   C2214382   0.763   5.306  15.312 -0.1801  0.3721  0.5129
  110CHL1  H22A14383   0.817   5.398  15.343  0.6905 -0.3929  1.3388
  110CHL1  H22B14384   0.831   5.219  15.297 -1.6599 -1.1801  2.2590
  110CHL1   C2314385   0.684   5.338  15.189  0.3600  0.2587  0.1169
  110CHL1  H23A14386   0.645   5.241  15.149  0.7503 -1.0174  2.6637
  110CHL1  H23B14387   0.596   5.402  15.210 -0.4304 -0.5796 -0.5330
  110CHL1   C2414388   0.769   5.411  15.079  0.1946 -0.1166 -0.2936
  110CHL1  H24A14389   0.690   5.442  15.007  0.8158 -0.9469 -1.3572
  110CHL1  H24B14390   0.812   5.500  15.131 -1.1247 -1.1935  2.8748
  110CHL1   C2514391   0.887   5.331  15.019  0.7583  0.6509  0.6326
  110CHL1   H2514392   0.950   5.294  15.103  2.0307  0.7673 -0.2429
  110CHL1   C2614393   0.842   5.207  14.946  0.7168 -0.4889  0.3043
  110CHL1  H26A14394   0.928   5.149  14.905 -1.2063 -2.7383 -0.7662
  110CHL1  H26B14395   0.784   5.136  15.008 -0.5692  0.0128 -0.2862
  110CHL1  H26C14396   0.781   5.231  14.857 -1.4467 -1.9005  1.3237
  110CHL1   C2714397   0.982   5.406  14.926 -0.1048 -0.4528 -0.4430
  110CHL1  H27A14398   0.928   5.438  14.835 -2.0761  3.0254  1.7646
  110CHL1  H27B14399   1.025   5.500  14.966  0.9132 -0.2914 -1.8364
  110CHL1  H27C14400   1.073   5.352  14.890  1.2309  1.1965  0.3198
  111CHL1    C314401   2.584   6.975  16.837  0.6802 -0.1854 -0.2460
  111CHL1    H314402   2.662   6.904  16.874  0.9916  0.7480  0.9784
  111CHL1    O314403   2.555   7.063  16.946 -0.0188 -0.0092 -0.4376
  111CHL1   H3'14404   2.466   7.095  16.931  0.1993  0.3800 -0.9258
  111CHL1    C414405   2.620   7.053  16.712  0.2511  0.3992 -0.2278
  111CHL1   H4A14406   2.536   7.125  16.700 -1.6230 -1.7807 -0.7270
  111CHL1   H4B14407   2.716   7.108  16.727  0.7295 -0.3592 -0.4228
  111CHL1    C514408   2.639   6.973  16.587  0.2500 -0.5891  0.3672
  111CHL1    C614409   2.755   6.984  16.515  0.2723 -0.2667  0.2492
  111CHL1    H614410   2.842   7.031  16.565 -0.0058 -0.5852  1.0447
  111CHL1    C714411   2.764   6.915  16.384 -0.3274 -0.3115  0.2587
  111CHL1   H7A14412   2.796   6.981  16.301  0.5858  0.1328  0.9476
  111CHL1   H7B14413   2.847   6.840  16.388  0.0434  0.1298  0.9596
  111CHL1    C814414   2.632   6.854  16.328  0.4901  0.2177  0.0702
  111CHL1    H814415   2.585   6.933  16.266  1.2952 -0.9275 -2.0748
  111CHL1   C1414416   2.665   6.738  16.227  0.1192  0.2031  0.0706
  111CHL1   H1414417   2.719   6.654  16.277  1.0754 -0.3248 -1.7820
  111CHL1   C1514418   2.752   6.761  16.098 -0.4583 -0.6753 -0.0462
  111CHL1  H15A14419   2.719   6.860  16.061  1.3633 -0.7631 -2.1185
  111CHL1  H15B14420   2.862   6.770  16.108 -0.3879 -0.4868 -0.8777
  111CHL1   C1614421   2.708   6.652  16.008 -0.3680  0.6098 -0.3673
  111CHL1  H16A14422   2.674   6.687  15.907 -0.5226  2.8500  0.4021
  111CHL1  H16B14423   2.791   6.585  15.977  0.1496  1.4178 -0.7689
  111CHL1   C1714424   2.602   6.566  16.077 -0.7370 -0.5786  0.2918
  111CHL1   H1714425   2.660   6.487  16.130  0.9109  0.5909  0.2935
  111CHL1   C1314426   2.536   6.660  16.182 -0.2012 -0.6631 -0.0719
  111CHL1   C1814427   2.444   6.756  16.101 -0.6795 -0.2617  0.2408
  111CHL1  H18A14428   2.337   6.725  16.095 -1.2477  1.6865 -0.5612
  111CHL1  H18B14429   2.446   6.861  16.139 -2.0523 -0.0758 -0.1155
  111CHL1  H18C14430   2.461   6.768  15.992 -0.9565  1.3494  0.3363
  111CHL1   C1214431   2.474   6.591  16.308 -0.6167 -0.1838  0.0704
  111CHL1  H12A14432   2.389   6.525  16.281 -0.9635  0.2117  0.1886
  111CHL1  H12B14433   2.551   6.532  16.363 -0.1973  0.9694  0.7662
  111CHL1   C1114434   2.421   6.711  16.397 -0.2064 -0.0986  0.0343
  111CHL1  H11A14435   2.348   6.770  16.339  1.6806 -1.3539 -3.9779
  111CHL1  H11B14436   2.366   6.666  16.483 -0.2854 -0.5866 -0.2691
  111CHL1    C914437   2.546   6.797  16.439  0.2810  1.2140  0.0909
  111CHL1    H914438   2.618   6.727  16.486  0.2420  2.8555  2.7608
  111CHL1   C1014439   2.508   6.891  16.555  0.2370 -0.7128  0.0916
  111CHL1   C1914440   2.388   6.974  16.496 -0.1052  0.5564 -0.3646
  111CHL1  H19A14441   2.293   6.917  16.486  1.0787 -1.8564  1.2703
  111CHL1  H19B14442   2.357   7.056  16.565  0.4775 -0.5344  1.2596
  111CHL1  H19C14443   2.413   7.019  16.397 -1.1923  3.7458  0.6741
  111CHL1    C114444   2.473   6.812  16.687 -0.2937  0.0677  0.0383
  111CHL1   H1A14445   2.376   6.759  16.682 -1.2088  1.7005 -0.1434
  111CHL1   H1B14446   2.550   6.734  16.705 -0.2998  0.2746  1.0661
  111CHL1    C214447   2.455   6.892  16.816 -0.1824 -1.0018  0.3421
  111CHL1   H2A14448   2.424   6.831  16.903 -0.4094  0.4417  1.3076
  111CHL1   H2B14449   2.381   6.972  16.796  0.5428 -0.2420  0.6227
  111CHL1   C2014450   2.515   6.504  15.968  0.5679 -0.0796 -0.1430
  111CHL1   H2014451   2.471   6.586  15.906 -0.7606 -0.7155 -0.0792
  111CHL1   C2114452   2.398   6.428  16.036 -0.0458  0.2301 -0.5658
  111CHL1  H21A14453   2.431   6.383  16.133  1.1072 -1.0752 -1.5259
  111CHL1  H21B14454   2.344   6.355  15.973  2.9577  0.2354 -3.4199
  111CHL1  H21C14455   2.325   6.504  16.072  0.0621  0.0359  0.0826
  111CHL1   C2214456   2.600   6.394  15.880  1.0570 -0.2971 -1.1091
  111CHL1  H22A14457   2.699   6.440  15.857  1.0694 -0.5118 -1.4930
  111CHL1  H22B14458   2.605   6.305  15.946 -1.5887  1.4791  1.7927
  111CHL1   C2314459   2.538   6.375  15.743  0.5807 -0.5145  0.3649
  111CHL1  H23A14460   2.486   6.277  15.746  0.2156 -0.3120  1.5100
  111CHL1  H23B14461   2.455   6.448  15.732  0.1580 -1.0072  0.2289
  111CHL1   C2414462   2.636   6.385  15.626 -0.2679 -0.2864 -0.2803
  111CHL1  H24A14463   2.698   6.475  15.646  0.7687 -0.8283 -0.9611
  111CHL1  H24B14464   2.705   6.299  15.623 -1.3704 -1.1722 -1.4688
  111CHL1   C2514465   2.564   6.424  15.490 -0.3790  0.3821 -0.6807
  111CHL1   H2514466   2.505   6.515  15.514 -1.1565 -0.4807  0.8189
  111CHL1   C2614467   2.654   6.460  15.376 -0.4247 -0.0641 -0.3114
  111CHL1  H26A14468   2.712   6.548  15.410  0.3098 -1.1913  1.5326
  111CHL1  H26B14469   2.730   6.379  15.367 -0.3461  0.0605 -0.7973
  111CHL1  H26C14470   2.592   6.484  15.288 -1.7021  0.5207  0.7161
  111CHL1   C2714471   2.473   6.313  15.453  0.4697  0.2309  0.6847
  111CHL1  H27A14472   2.428   6.341  15.355 -1.3105  0.2773  1.4791
  111CHL1  H27B14473   2.521   6.213  15.443 -0.1072  0.1553 -2.3588
  111CHL1  H27C14474   2.385   6.307  15.521 -0.4807  1.6026 -0.3655
  112CHL1    C314475   4.112   6.828  16.912 -0.4611  0.8294  0.3286
  112CHL1    H314476   4.159   6.928  16.924  2.7537 -0.6655  1.1252
  112CHL1    O314477   4.101   6.777  17.040 -0.2820  0.4988  0.2941
  112CHL1   H3'14478   4.070   6.687  17.031  1.2379 -0.0076 -0.0778
  112CHL1    C414479   3.981   6.839  16.832 -0.5078  0.5940 -0.6136
  112CHL1   H4A14480   3.944   6.734  16.835 -1.0088  0.7848 -0.0047
  112CHL1   H4B14481   3.914   6.901  16.895 -0.5775  0.9622 -1.0383
  112CHL1    C514482   3.981   6.885  16.687  0.7336 -0.3849  0.1458
  112CHL1    C614483   3.908   6.991  16.649  1.0502  0.4850  0.2706
  112CHL1    H614484   3.828   7.030  16.713 -0.5052 -3.1404  0.7790
  112CHL1    C714485   3.911   7.039  16.505  0.2402  0.3380 -0.3082
  112CHL1   H7A14486   3.808   7.047  16.464  0.8003  0.8741 -1.6869
  112CHL1   H7B14487   3.952   7.142  16.495  0.6102  0.0710 -1.8193
  112CHL1    C814488   3.995   6.950  16.411 -0.1342  0.7331  0.8119
  112CHL1    H814489   3.928   6.863  16.392 -0.4986  0.7689  1.8412
  112CHL1   C1414490   4.021   7.020  16.282 -0.0006 -0.3134 -0.0373
  112CHL1   H1414491   4.096   7.095  16.313 -0.1561 -0.3819  0.5097
  112CHL1   C1514492   3.915   7.101  16.209 -0.0266 -0.1672 -0.2421
  112CHL1  H15A14493   3.823   7.040  16.196 -0.0864 -0.3626  0.9701
  112CHL1  H15B14494   3.878   7.187  16.269 -0.5888  0.8697 -1.9744
  112CHL1   C1614495   3.969   7.130  16.071  0.1054 -0.8507  0.6857
  112CHL1  H16A14496   3.895   7.097  15.995  1.3991 -0.9887 -0.5466
  112CHL1  H16B14497   3.983   7.240  16.074  0.0845 -0.7558 -1.3204
  112CHL1   C1714498   4.109   7.060  16.063 -0.8056  0.2818 -0.9924
  112CHL1   H1714499   4.179   7.129  16.114 -0.8593  0.1616 -0.7490
  112CHL1   C1314500   4.101   6.947  16.174  0.3849 -0.6874 -0.4541
  112CHL1   C1814501   4.012   6.823  16.126 -0.2330 -0.4866 -0.2775
  112CHL1  H18A14502   3.976   6.757  16.208 -1.6075 -0.2182 -0.6506
  112CHL1  H18B14503   3.915   6.855  16.083 -0.7414  2.6957  2.8026
  112CHL1  H18C14504   4.070   6.766  16.050  1.6887 -0.5926  1.2003
  112CHL1   C1214505   4.232   6.890  16.234 -0.2699 -0.0816 -0.0124
  112CHL1  H12A14506   4.290   6.833  16.158 -0.2521  0.6056 -0.5307
  112CHL1  H12B14507   4.298   6.975  16.262  0.0069 -0.8368  1.7981
  112CHL1   C1114508   4.210   6.814  16.366  0.4448 -0.0321 -0.6059
  112CHL1  H11A14509   4.158   6.719  16.345  0.5192  0.1603 -1.7295
  112CHL1  H11B14510   4.306   6.800  16.420 -1.0460  0.6810  2.4540
  112CHL1    C914511   4.122   6.888  16.472  0.7563  0.1314 -0.1061
  112CHL1    H914512   4.176   6.980  16.503  0.9792  0.5785 -1.7235
  112CHL1   C1014513   4.090   6.811  16.601  0.3943  0.4334  0.4284
  112CHL1   C1914514   4.033   6.668  16.566 -0.3490 -0.1982  0.3170
  112CHL1  H19A14515   3.951   6.677  16.491 -0.5123  0.9349  0.6190
  112CHL1  H19B14516   4.102   6.591  16.524 -0.0538 -0.1810  0.7650
  112CHL1  H19C14517   3.988   6.625  16.658  0.7964 -0.1090  0.9320
  112CHL1    C114518   4.223   6.799  16.687  0.1062 -0.2323  0.4447
  112CHL1   H1A14519   4.299   6.735  16.637  0.5271 -0.2119  1.0446
  112CHL1   H1B14520   4.277   6.894  16.706  0.9767 -1.1654  3.2149
  112CHL1    C214521   4.208   6.745  16.832 -0.6396 -0.3807 -0.3823
  112CHL1   H2A14522   4.310   6.754  16.876 -0.7354  2.1585 -0.5177
  112CHL1   H2B14523   4.184   6.637  16.820 -1.1615 -0.3260  0.1477
  112CHL1   C2014524   4.168   7.014  15.931  0.0472 -0.6998  0.5856
  112CHL1   H2014525   4.228   6.923  15.953 -1.7185 -2.4679 -1.4015
  112CHL1   C2114526   4.245   7.131  15.868  0.2423 -0.2654 -0.1976
  112CHL1  H21A14527   4.189   7.226  15.872 -2.1978 -1.6899  1.4726
  112CHL1  H21B14528   4.277   7.107  15.764  1.9887  0.8216  0.0320
  112CHL1  H21C14529   4.339   7.146  15.925  0.8238  0.1227 -1.2154
  112CHL1   C2214530   4.055   6.979  15.833 -0.5359 -0.1452 -0.3111
  112CHL1  H22A14531   3.981   6.918  15.888  0.4817 -0.5966  0.5818
  112CHL1  H22B14532   4.002   7.071  15.798 -0.9757 -0.8529 -1.5786
  112CHL1   C2314533   4.097   6.901  15.707  0.2016  0.3818 -0.2260
  112CHL1  H23A14534   4.179   6.958  15.657  1.7882  1.4978  3.3456
  112CHL1  H23B14535   4.130   6.802  15.743 -2.9780 -0.1719  1.5875
  112CHL1   C2414536   3.977   6.882  15.609 -0.0353 -0.6452 -0.2914
  112CHL1  H24A14537   3.912   6.801  15.649 -0.5045  0.5450  1.4854
  112CHL1  H24B14538   3.923   6.978  15.598 -1.6715 -1.4890  0.1065
  112CHL1   C2514539   4.009   6.836  15.466  0.1964  0.3791 -0.8050
  112CHL1   H2514540   4.103   6.888  15.438 -0.4289  0.8913 -2.0526
  112CHL1   C2614541   4.041   6.679  15.464  0.2652 -0.3779 -0.1354
  112CHL1  H26A14542   4.018   6.637  15.363 -2.6560 -3.3944  1.5660
  112CHL1  H26B14543   4.146   6.651  15.487  0.8747  0.6897 -1.4891
  112CHL1  H26C14544   3.982   6.626  15.542 -1.0431 -1.0848 -1.5177
  112CHL1   C2714545   3.892   6.882  15.373 -0.2241 -0.4419 -0.3643
  112CHL1  H27A14546   3.806   6.814  15.396  0.8100 -1.2442  1.3300
  112CHL1  H27B14547   3.861   6.987  15.389  2.2650  0.1683  0.8521
  112CHL1  H27C14548   3.917   6.857  15.267  0.3576  0.2613 -0.3987
  113CHL1    C314549   7.564   4.163  15.935 -0.2487 -0.1960  0.4401
  113CHL1    H314550   7.673   4.182  15.924 -0.3100  0.2565  0.5705
  113CHL1    O314551   7.556   4.082  16.049  0.1394  0.2328 -0.2638
  113CHL1   H3'14552   7.462   4.062  16.059 -0.0868  1.5823  0.5928
  113CHL1    C414553   7.485   4.295  15.955 -0.2562  0.2550 -0.3222
  113CHL1   H4A14554   7.379   4.277  15.982 -0.2660  0.6697 -0.0820
  113CHL1   H4B14555   7.526   4.346  16.045 -0.2501 -0.9766  0.3962
  113CHL1    C514556   7.481   4.376  15.828 -0.0382 -0.1944 -0.1764
  113CHL1    C614557   7.522   4.502  15.828  0.3622 -0.1251  0.0304
  113CHL1    H614558   7.546   4.549  15.924 -3.3253 -2.7459  2.4823
  113CHL1    C714559   7.540   4.581  15.702 -0.7846 -0.6519  0.7608
  113CHL1   H7A14560   7.493   4.682  15.710 -0.0341  0.0279 -2.1537
  113CHL1   H7B14561   7.647   4.594  15.673 -0.4660  1.6040  2.6116
  113CHL1    C814562   7.463   4.525  15.587  0.2591 -0.0710  0.5434
  113CHL1    H814563   7.354   4.536  15.606 -0.5884 -0.7593 -3.0745
  113CHL1   C1414564   7.498   4.596  15.460  0.4041  0.4124  0.1209
  113CHL1   H1414565   7.603   4.573  15.433 -0.2026 -0.6333 -1.4372
  113CHL1   C1514566   7.491   4.749  15.464  0.2500  0.7915  0.1752
  113CHL1  H15A14567   7.413   4.792  15.530  0.2872  0.5553  0.3765
  113CHL1  H15B14568   7.590   4.780  15.506 -0.2146  0.7086  1.3678
  113CHL1   C1614569   7.484   4.782  15.312 -0.5726  0.0184  0.0562
  113CHL1  H16A14570   7.401   4.855  15.311 -1.2037 -0.6590  1.4374
  113CHL1  H16B14571   7.574   4.837  15.277 -1.1962  0.9996 -0.0286
  113CHL1   C1714572   7.456   4.653  15.233 -0.4483  0.6619 -0.3875
  113CHL1   H1714573   7.557   4.616  15.205 -1.9609 -2.3173 -2.3623
  113CHL1   C1314574   7.407   4.557  15.341 -0.7524 -0.4935 -0.0285
  113CHL1   C1814575   7.257   4.588  15.376 -0.3190  1.1978  0.4192
  113CHL1  H18A14576   7.235   4.697  15.384  0.8369  1.2850  4.0034
  113CHL1  H18B14577   7.189   4.547  15.298  0.9598  0.5181 -0.3555
  113CHL1  H18C14578   7.226   4.545  15.474 -0.9439 -1.6767 -0.9401
  113CHL1   C1214579   7.428   4.412  15.315  0.0931  0.2441 -0.1101
  113CHL1  H12A14580   7.369   4.373  15.230  3.5643 -1.3857 -2.0150
  113CHL1  H12B14581   7.533   4.391  15.284 -0.0074  0.2204 -0.4384
  113CHL1   C1114582   7.400   4.322  15.443 -0.0709  0.1858  0.0711
  113CHL1  H11A14583   7.291   4.334  15.459 -0.2296 -1.2527  0.1445
  113CHL1  H11B14584   7.412   4.213  15.425 -2.1958 -0.1697  0.5802
  113CHL1    C914585   7.478   4.373  15.565 -0.0745 -0.3315 -0.5931
  113CHL1    H914586   7.586   4.353  15.551  0.1210 -0.5346  0.9835
  113CHL1   C1014587   7.449   4.305  15.697  0.4605  0.1127 -0.4491
  113CHL1   C1914588   7.294   4.294  15.713 -0.8811 -0.3329 -0.2370
  113CHL1  H19A14589   7.252   4.257  15.808 -0.2612 -0.1117  0.1286
  113CHL1  H19B14590   7.238   4.387  15.688 -1.9898 -1.3558 -1.7316
  113CHL1  H19C14591   7.266   4.214  15.641 -1.3275 -1.6480  1.3582
  113CHL1    C114592   7.524   4.172  15.689  1.6178 -0.6005  0.3393
  113CHL1   H1A14593   7.481   4.114  15.604  0.4859 -1.6359  1.5757
  113CHL1   H1B14594   7.629   4.196  15.663  1.0059  1.9313 -0.0276
  113CHL1    C214595   7.504   4.090  15.812 -0.4587  0.0301 -0.7174
  113CHL1   H2A14596   7.542   3.987  15.806  2.4733  0.8685  1.2739
  113CHL1   H2B14597   7.396   4.074  15.834  0.2738 -0.5962  3.2410
  113CHL1   C2014598   7.370   4.675  15.106 -0.0069 -0.6738 -0.3805
  113CHL1   H2014599   7.264   4.686  15.139  0.4625  0.6636  0.7737
  113CHL1   C2114600   7.378   4.554  15.013 -0.4876 -0.3330 -0.0641
  113CHL1  H21A14601   7.338   4.569  14.910 -0.4101 -0.3845 -0.1013
  113CHL1  H21B14602   7.328   4.474  15.071  1.5563  0.3062  2.8202
  113CHL1  H21C14603   7.486   4.531  15.001 -0.9600 -2.8501 -0.0770
  113CHL1   C2214604   7.411   4.806  15.028  0.4259  0.0441  0.3533
  113CHL1  H22A14605   7.421   4.895  15.094  1.6534  1.0919 -1.1514
  113CHL1  H22B14606   7.500   4.785  14.965  0.4720  4.0710 -1.2518
  113CHL1   C2314607   7.302   4.859  14.920 -0.1509 -0.5562 -0.1429
  113CHL1  H23A14608   7.350   4.955  14.894  0.1346 -1.3061 -2.5604
  113CHL1  H23B14609   7.311   4.791  14.833 -0.2596 -0.0202 -0.5694
  113CHL1   C2414610   7.156   4.859  14.964 -0.6481  0.3050 -0.0565
  113CHL1  H24A14611   7.129   4.755  14.992 -0.5172 -0.0619 -1.2510
  113CHL1  H24B14612   7.135   4.912  15.060 -0.9590 -0.7806  0.4889
  113CHL1   C2514613   7.061   4.905  14.852  0.7223  0.7030  0.3870
  113CHL1   H2514614   7.094   5.005  14.818  0.2025  0.7696  0.0728
  113CHL1   C2614615   7.065   4.809  14.728  0.6282  0.0229 -0.4662
  113CHL1  H26A14616   7.163   4.811  14.676  0.2989  0.1248 -1.0914
  113CHL1  H26B14617   7.037   4.705  14.755 -0.9373  0.6114  0.2815
  113CHL1  H26C14618   6.991   4.852  14.657  0.1075  0.0351  0.0795
  113CHL1   C2714619   6.925   4.915  14.913  0.2908  0.9212  0.3880
  113CHL1  H27A14620   6.891   4.820  14.958  1.3599  0.4320  0.1916
  113CHL1  H27B14621   6.934   4.991  14.993  1.0121  1.1421  0.1107
  113CHL1  H27C14622   6.843   4.940  14.842  0.8594 -1.7140 -1.3167
  114CHL1    C314623   5.677   0.118  16.478 -0.0916 -0.3630 -0.2526
  114CHL1    H314624   5.788   0.113  16.464 -0.1157 -0.3505 -0.4521
  114CHL1    O314625   5.651   0.212  16.580 -0.2536  0.1148  0.0462
  114CHL1   H3'14626   5.583   0.171  16.633 -0.8981 -0.3569 -1.0987
  114CHL1    C414627   5.609   0.167  16.354  0.3229 -0.2690  0.0193
  114CHL1   H4A14628   5.501   0.166  16.377  0.6648  0.8815  1.9421
  114CHL1   H4B14629   5.641   0.270  16.326 -0.5435 -0.1537 -0.5777
  114CHL1    C514630   5.634   0.060  16.245  0.2748 -0.3378 -0.2776
  114CHL1    C614631   5.688   0.099  16.134  0.0963  0.1317  0.3943
  114CHL1    H614632   5.715   0.203  16.111 -1.9458  0.6425  0.1197
  114CHL1    C714633   5.707   0.001  16.016 -0.4492  0.3290  0.2643
  114CHL1   H7A14634   5.673   0.045  15.920  0.9234  0.6910 -0.0786
  114CHL1   H7B14635   5.814  -0.023  15.999 -0.5117  0.2885 -0.0770
  114CHL1    C814636   5.630  -0.135  16.029  0.3132  1.1458 -0.3326
  114CHL1    H814637   5.525  -0.112  16.001 -0.6038 -1.1744  0.9518
  114CHL1   C1414638   5.684  -0.233  15.925  0.2650 -0.1247 -0.6896
  114CHL1   H1414639   5.792  -0.252  15.942  0.0795 -0.0996  0.6172
  114CHL1   C1514640   5.668  -0.194  15.779  0.4173  0.0634 -0.3309
  114CHL1  H15A14641   5.572  -0.142  15.761 -0.6868 -0.5616  3.0116
  114CHL1  H15B14642   5.740  -0.112  15.760  0.1189  0.4844  0.2935
  114CHL1   C1614643   5.677  -0.327  15.707 -0.1786  0.2734  0.5671
  114CHL1  H16A14644   5.587  -0.345  15.644 -0.2505  0.0622  0.7288
  114CHL1  H16B14645   5.767  -0.352  15.648 -0.2775  1.1416  0.0258
  114CHL1   C1714646   5.674  -0.444  15.811 -0.4797 -0.6338  0.2190
  114CHL1   H1714647   5.774  -0.482  15.839 -1.5024 -2.5784  1.3987
  114CHL1   C1314648   5.620  -0.372  15.936  0.1435  0.2590  0.3565
  114CHL1   C1814649   5.463  -0.347  15.913  0.3460  0.0280 -0.1284
  114CHL1  H18A14650   5.431  -0.315  15.812  1.0632 -1.4532 -0.8615
  114CHL1  H18B14651   5.411  -0.440  15.942 -0.3692  0.6691  0.6964
  114CHL1  H18C14652   5.415  -0.283  15.990 -2.2600 -0.6903 -1.0842
  114CHL1   C1214653   5.657  -0.436  16.073  0.2304  0.8533  0.3719
  114CHL1  H12A14654   5.604  -0.534  16.074 -1.4121  1.5102 -3.3208
  114CHL1  H12B14655   5.766  -0.452  16.079  0.1195 -0.2539 -0.3263
  114CHL1   C1114656   5.627  -0.342  16.194 -0.3218 -0.4814 -0.7358
  114CHL1  H11A14657   5.518  -0.352  16.212 -0.6215  1.9664 -0.9307
  114CHL1  H11B14658   5.690  -0.381  16.278 -0.6786 -0.1168 -0.2982
  114CHL1    C914659   5.652  -0.186  16.171 -0.0341  0.4606  0.2374
  114CHL1    H914660   5.761  -0.183  16.192 -0.1846  1.8704  0.9043
  114CHL1   C1014661   5.596  -0.087  16.279 -0.3201  0.0712 -0.0709
  114CHL1   C1914662   5.445  -0.106  16.290 -0.6763 -0.0078  0.0063
  114CHL1  H19A14663   5.385  -0.098  16.198 -1.5502 -0.6901  0.4963
  114CHL1  H19B14664   5.419  -0.209  16.323  0.0375 -0.6250 -1.2844
  114CHL1  H19C14665   5.401  -0.030  16.358 -1.8046 -0.6232 -0.0197
  114CHL1    C114666   5.652  -0.130  16.416  0.0065 -0.0574 -0.0157
  114CHL1   H1A14667   5.601  -0.225  16.446 -2.8938  0.8097 -1.8430
  114CHL1   H1B14668   5.763  -0.141  16.407  0.0693 -0.5782  1.1164
  114CHL1    C214669   5.632  -0.020  16.526 -0.1297 -0.2331  0.3920
  114CHL1   H2A14670   5.694  -0.028  16.618  0.6951 -0.1311 -0.1453
  114CHL1   H2B14671   5.525  -0.013  16.553 -0.2546  2.1633 -0.4803
  114CHL1   C2014672   5.600  -0.567  15.750  0.3268  0.2872 -0.2499
  114CHL1   H2014673   5.499  -0.532  15.720  0.5682 -0.5165 -2.0891
  114CHL1   C2114674   5.587  -0.677  15.858  0.0254  0.2924  0.7029
  114CHL1  H21A14675   5.527  -0.655  15.949  0.5735  2.0829  0.6884
  114CHL1  H21B14676   5.691  -0.696  15.894  0.1295 -1.7575 -0.5545
  114CHL1  H21C14677   5.556  -0.776  15.821  2.2875 -0.5352  0.8265
  114CHL1   C2214678   5.666  -0.617  15.623  0.2353 -0.3763  0.7516
  114CHL1  H22A14679   5.686  -0.536  15.549 -0.7056 -0.3154  0.5525
  114CHL1  H22B14680   5.763  -0.667  15.645 -0.1601 -1.5477 -0.0751
  114CHL1   C2314681   5.576  -0.725  15.550 -0.5281  0.0601 -0.3463
  114CHL1  H23A14682   5.574  -0.823  15.603 -0.3809 -1.1042 -2.4003
  114CHL1  H23B14683   5.470  -0.692  15.554  0.0382  2.3608 -2.2134
  114CHL1   C2414684   5.617  -0.755  15.404  0.7645 -0.7964 -0.5392
  114CHL1  H24A14685   5.557  -0.838  15.361  0.6354 -0.7683 -0.4116
  114CHL1  H24B14686   5.586  -0.665  15.347  0.6378  0.0555  0.8189
  114CHL1   C2514687   5.766  -0.781  15.378  0.0780  0.2973  0.0548
  114CHL1   H2514688   5.814  -0.692  15.424  0.1916 -0.4347  1.4169
  114CHL1   C2614689   5.811  -0.908  15.447 -0.5994  0.2372  0.7937
  114CHL1  H26A14690   5.797  -0.896  15.557  1.2465  1.3565  0.9616
  114CHL1  H26B14691   5.756  -0.998  15.413  1.5457 -0.3821 -1.3470
  114CHL1  H26C14692   5.921  -0.920  15.435  0.0211  2.2594  3.4041
  114CHL1   C2714693   5.811  -0.788  15.221  0.3059 -0.0637 -0.1244
  114CHL1  H27A14694   5.766  -0.702  15.168 -2.3309 -0.4110  1.3831
  114CHL1  H27B14695   5.921  -0.790  15.205  0.3627 -0.1207  0.2846
  114CHL1  H27C14696   5.764  -0.885  15.192  0.2027 -0.6206  1.7733
  115CHL1    C314697   0.960   7.374  16.454 -0.4258  0.0723 -0.2871
  115CHL1    H314698   0.879   7.304  16.426 -0.3062  0.0193 -0.5054
  115CHL1    O314699   0.929   7.411  16.587  0.3644 -0.0618 -0.0314
  115CHL1   H3'14700   0.998   7.469  16.621  0.7342 -0.8491  0.5938
  115CHL1    C414701   1.105   7.328  16.440 -0.8469  0.3378 -0.1154
  115CHL1   H4A14702   1.169   7.398  16.498 -3.9590  1.8613  1.7801
  115CHL1   H4B14703   1.109   7.234  16.499 -0.0510  0.8213  0.6237
  115CHL1    C514704   1.155   7.313  16.291  0.3806  0.0563 -0.4331
  115CHL1    C614705   1.208   7.200  16.250  0.4712 -0.5240  0.0129
  115CHL1    H614706   1.213   7.121  16.326  1.0799 -0.3189  0.1950
  115CHL1    C714707   1.269   7.175  16.112 -0.0794 -0.9272 -0.1581
  115CHL1   H7A14708   1.372   7.133  16.120  0.1527 -0.1788  1.2106
  115CHL1   H7B14709   1.213   7.097  16.056 -0.2964  0.5137 -2.0286
  115CHL1    C814710   1.271   7.301  16.021 -0.2703  0.2858  0.2754
  115CHL1    H814711   1.362   7.357  16.052  0.9031 -1.5348  0.2576
  115CHL1   C1414712   1.273   7.268  15.876 -0.0335 -0.6973 -0.5998
  115CHL1   H1414713   1.171   7.227  15.862 -1.6462  2.3916  1.1777
  115CHL1   C1514714   1.369   7.158  15.824 -0.8944 -0.1913  0.1498
  115CHL1  H15A14715   1.473   7.176  15.857 -0.8847  1.5701 -0.7013
  115CHL1  H15B14716   1.331   7.057  15.850 -0.2788 -0.6195 -0.5455
  115CHL1   C1614717   1.375   7.197  15.671 -0.2577 -0.8345  0.7408
  115CHL1  H16A14718   1.483   7.223  15.657 -0.1337 -1.9576 -0.5993
  115CHL1  H16B14719   1.336   7.107  15.619 -0.0156 -1.1160  1.0413
  115CHL1   C1714720   1.280   7.312  15.647  0.0775  0.1873 -0.0701
  115CHL1   H1714721   1.179   7.267  15.637 -0.7016  2.1441 -1.8244
  115CHL1   C1314722   1.272   7.388  15.783 -0.6770  0.0705 -0.2320
  115CHL1   C1814723   1.406   7.463  15.814  0.1888 -0.2513  0.4819
  115CHL1  H18A14724   1.425   7.502  15.916 -1.2685 -0.8790  1.0268
  115CHL1  H18B14725   1.494   7.402  15.784 -0.1550 -1.2018  1.3383
  115CHL1  H18C14726   1.404   7.555  15.752 -0.0060  0.5566  1.6546
  115CHL1   C1214727   1.138   7.477  15.809 -0.1160 -0.6376 -0.3416
  115CHL1  H12A14728   1.167   7.570  15.755 -0.2254 -0.3531  0.0834
  115CHL1  H12B14729   1.049   7.430  15.762  1.3791 -1.4091 -2.5737
  115CHL1   C1114730   1.125   7.513  15.954 -0.6616 -0.0195 -0.0606
  115CHL1  H11A14731   1.204   7.590  15.973  1.2385 -1.7636 -0.4664
  115CHL1  H11B14732   1.027   7.562  15.967 -0.6406 -0.0704  0.3013
  115CHL1    C914733   1.148   7.391  16.048 -0.7055  0.2331 -0.3593
  115CHL1    H914734   1.065   7.321  16.026 -1.2504  0.8907 -0.4418
  115CHL1   C1014735   1.136   7.430  16.197 -0.0602 -0.5739  0.0742
  115CHL1   C1914736   1.234   7.547  16.234 -0.4575 -0.0001 -0.2556
  115CHL1  H19A14737   1.339   7.513  16.221 -0.6355 -0.5628 -0.2551
  115CHL1  H19B14738   1.206   7.631  16.167 -3.0996 -0.4150  0.2322
  115CHL1  H19C14739   1.217   7.578  16.339  1.2186  2.7985 -0.6893
  115CHL1    C114740   0.991   7.481  16.227 -0.7346  0.0309 -0.8605
  115CHL1   H1A14741   0.969   7.573  16.168 -2.2080 -0.0506 -0.4742
  115CHL1   H1B14742   0.923   7.402  16.189 -0.8011 -0.4329  0.2073
  115CHL1    C214743   0.953   7.501  16.373 -0.3397 -0.1149 -0.6287
  115CHL1   H2A14744   0.847   7.533  16.377 -0.2605  0.3739 -1.8681
  115CHL1   H2B14745   1.016   7.581  16.418 -0.9260 -0.5863  1.1363
  115CHL1   C2014746   1.302   7.407  15.523  0.0662 -0.2273  0.3822
  115CHL1   H2014747   1.255   7.502  15.553 -3.5039 -2.8007  4.0397
  115CHL1   C2114748   1.225   7.349  15.405  0.3334  0.1083  0.1692
  115CHL1  H21A14749   1.250   7.398  15.309 -1.7772 -0.3838 -0.6871
  115CHL1  H21B14750   1.114   7.352  15.414  0.0301 -0.0823 -2.6129
  115CHL1  H21C14751   1.242   7.242  15.380 -1.4173 -0.3077  0.6341
  115CHL1   C2214752   1.451   7.428  15.494 -0.1259 -0.2473  0.3012
  115CHL1  H22A14753   1.514   7.472  15.575 -0.9917  0.9715  0.3365
  115CHL1  H22B14754   1.503   7.332  15.469  1.6938  1.3476 -2.7662
  115CHL1   C2314755   1.485   7.522  15.379  0.3275  0.0045 -0.4193
  115CHL1  H23A14756   1.449   7.493  15.278 -1.7851 -1.0595  0.5761
  115CHL1  H23B14757   1.439   7.621  15.399  0.3850 -0.3273  1.5869
  115CHL1   C2414758   1.636   7.556  15.368  0.0094 -0.1466 -0.3230
  115CHL1  H24A14759   1.668   7.604  15.463  1.1816  1.1664 -1.3254
  115CHL1  H24B14760   1.677   7.453  15.369 -0.3551 -0.2976 -0.8583
  115CHL1   C2514761   1.681   7.641  15.248 -0.6437  0.1718  0.4123
  115CHL1   H2514762   1.651   7.748  15.245 -0.3515  0.2329 -1.7197
  115CHL1   C2614763   1.831   7.646  15.261 -0.4244  0.4954  0.2097
  115CHL1  H26A14764   1.858   7.696  15.356  0.6519 -0.0633  0.2216
  115CHL1  H26B14765   1.875   7.544  15.258  0.6875  0.9126  1.2826
  115CHL1  H26C14766   1.882   7.709  15.185  0.6413  0.3907  0.8099
  115CHL1   C2714767   1.635   7.576  15.112 -0.8785 -0.0217 -0.0715
  115CHL1  H27A14768   1.699   7.595  15.024  1.4397 -1.6648  1.1561
  115CHL1  H27B14769   1.628   7.465  15.122  0.3343 -0.0801  0.2282
  115CHL1  H27C14770   1.534   7.613  15.083 -0.5482  0.7187 -0.2681
  116CHL1    C314771   1.501   0.409  16.529  0.2809 -0.2191  0.0894
  116CHL1    H314772   1.421   0.441  16.459  3.1373 -0.6674 -3.6885
  116CHL1    O314773   1.470   0.409  16.668  0.0260  0.4311 -0.2261
  116CHL1   H3'14774   1.423   0.491  16.686 -1.0083 -0.0135 -0.8119
  116CHL1    C414775   1.545   0.263  16.496  1.0747 -0.3814 -0.0925
  116CHL1   H4A14776   1.629   0.238  16.563  0.1730 -0.1418  1.1572
  116CHL1   H4B14777   1.453   0.205  16.518 -0.3293  1.8528  0.3013
  116CHL1    C514778   1.580   0.249  16.349 -0.1935 -0.7180 -0.1335
  116CHL1    C614779   1.511   0.166  16.269  0.0182  0.0925 -0.0438
  116CHL1    H614780   1.418   0.125  16.313 -0.1857 -0.0683 -0.6221
  116CHL1    C714781   1.543   0.142  16.124 -0.8834  1.2734  0.0595
  116CHL1   H7A14782   1.550   0.036  16.092 -0.6078  1.3953 -0.2886
  116CHL1   H7B14783   1.462   0.184  16.060 -0.6543  0.2283 -0.9529
  116CHL1    C814784   1.682   0.203  16.084  0.5830  0.8084  0.1843
  116CHL1    H814785   1.759   0.133  16.125 -0.1082  0.5153  1.0190
  116CHL1   C1414786   1.690   0.214  15.929  0.0690  0.2255 -0.5317
  116CHL1   H1414787   1.619   0.296  15.906  2.5027  2.3941 -0.7830
  116CHL1   C1514788   1.649   0.083  15.850 -0.5109 -0.3683 -0.0338
  116CHL1  H15A14789   1.697  -0.001  15.904 -0.5211  0.2014  0.8976
  116CHL1  H15B14790   1.538   0.081  15.843 -0.6428  2.1444  0.3115
  116CHL1   C1614791   1.718   0.109  15.712  0.2025  0.0625 -0.4711
  116CHL1  H16A14792   1.773   0.017  15.686 -1.9900 -1.5584  0.3149
  116CHL1  H16B14793   1.640   0.118  15.634  0.6107  1.5480 -0.7443
  116CHL1   C1714794   1.793   0.246  15.726 -0.5294  0.1850 -0.5911
  116CHL1   H1714795   1.723   0.330  15.706  0.5423  1.0301 -0.8388
  116CHL1   C1314796   1.827   0.259  15.875 -0.4605 -0.3307 -0.1602
  116CHL1   C1814797   1.946   0.174  15.920 -0.2729 -0.0241 -0.1113
  116CHL1  H18A14798   1.944   0.161  16.030 -0.7512 -0.2695 -0.1455
  116CHL1  H18B14799   1.943   0.069  15.883  0.5991 -0.1902  0.2610
  116CHL1  H18C14800   2.048   0.215  15.906  0.5100 -1.6475  0.5199
  116CHL1   C1214801   1.841   0.407  15.928  0.2720 -0.0367  1.2169
  116CHL1  H12A14802   1.931   0.468  15.906 -0.5748  0.8983  0.2797
  116CHL1  H12B14803   1.755   0.456  15.877 -0.2324 -2.3968 -0.3812
  116CHL1   C1114804   1.829   0.409  16.081  0.0695  0.3310  0.1699
  116CHL1  H11A14805   1.923   0.370  16.126 -1.2777 -1.5380  1.5421
  116CHL1  H11B14806   1.809   0.515  16.108  0.0836  0.0668  1.2620
  116CHL1    C914807   1.705   0.343  16.147 -0.1078  0.1730  0.6668
  116CHL1    H914808   1.616   0.401  16.115 -0.8963  0.0017  2.4289
  116CHL1   C1014809   1.693   0.340  16.298  0.3662  0.3092  0.6889
  116CHL1   C1914810   1.827   0.274  16.357  0.3455 -0.1914  0.0842
  116CHL1  H19A14811   1.840   0.171  16.317  0.8233  1.0569 -3.3749
  116CHL1  H19B14812   1.918   0.332  16.329  0.5728 -0.3182  0.5542
  116CHL1  H19C14813   1.824   0.264  16.467 -2.2923  0.1403  0.0992
  116CHL1    C114814   1.673   0.485  16.351  0.6888  0.0692 -0.3466
  116CHL1   H1A14815   1.765   0.547  16.345 -0.4713  2.8284  4.5662
  116CHL1   H1B14816   1.586   0.534  16.303 -0.1162 -1.0674 -0.0969
  116CHL1    C214817   1.623   0.500  16.499 -0.2340 -0.3166 -0.0644
  116CHL1   H2A14818   1.590   0.604  16.523 -0.3831  0.1194 -2.0127
  116CHL1   H2B14819   1.696   0.487  16.581 -1.1746  1.3665  1.0994
  116CHL1   C2014820   1.901   0.268  15.624 -0.5176  0.2198 -0.0472
  116CHL1   H2014821   1.975   0.346  15.653  2.2630 -0.8877 -3.4118
  116CHL1   C2114822   1.840   0.318  15.494 -0.0082 -0.0787  0.9491
  116CHL1  H21A14823   1.763   0.246  15.461  0.1475 -0.1589  0.7560
  116CHL1  H21B14824   1.915   0.328  15.412 -0.2272 -0.7775  0.6622
  116CHL1  H21C14825   1.790   0.414  15.520 -2.2499 -0.5785 -1.1677
  116CHL1   C2214826   1.992   0.144  15.594  0.2076  0.6958 -0.3067
  116CHL1  H22A14827   2.038   0.115  15.690  2.1758  0.8812 -1.1395
  116CHL1  H22B14828   1.930   0.057  15.562  0.2268  0.7669 -0.5408
  116CHL1   C2314829   2.112   0.164  15.502 -0.0616 -0.3440  0.3349
  116CHL1  H23A14830   2.071   0.197  15.405  0.5328 -4.4248 -1.5241
  116CHL1  H23B14831   2.160   0.247  15.558 -2.1154  0.4007  1.0733
  116CHL1   C2414832   2.202   0.042  15.483  0.1239  0.0538  0.0550
  116CHL1  H24A14833   2.231   0.002  15.583  0.6623  0.0507 -0.0968
  116CHL1  H24B14834   2.139  -0.028  15.425 -0.0952  0.6523 -0.4466
  116CHL1   C2514835   2.330   0.075  15.406 -0.2027  0.0299 -0.2417
  116CHL1   H2514836   2.306   0.138  15.317 -0.0905  0.5629  0.1013
  116CHL1   C2614837   2.431   0.141  15.498  0.0889 -0.2837  0.3296
  116CHL1  H26A14838   2.455   0.061  15.572  2.0513 -0.0662 -0.0153
  116CHL1  H26B14839   2.510   0.174  15.426 -1.1107  0.1444 -0.8234
  116CHL1  H26C14840   2.383   0.229  15.545 -0.1094 -0.1308 -0.1619
  116CHL1   C2714841   2.384  -0.061  15.355 -0.7373  0.3202 -0.0384
  116CHL1  H27A14842   2.364  -0.140  15.430 -1.6634  0.2968 -0.2980
  116CHL1  H27B14843   2.326  -0.094  15.267 -1.9844  2.4800 -0.1163
  116CHL1  H27C14844   2.486  -0.053  15.313 -1.7907 -1.8739 -3.3874
  117CHL1    C314845   4.488   0.120  16.303  0.3151  0.6417 -0.0184
  117CHL1    H314846   4.421   0.209  16.304 -2.3740 -1.2677 -0.8906
  117CHL1    O314847   4.436   0.030  16.401 -0.5514  0.2932  0.7791
  117CHL1   H3'14848   4.446  -0.063  16.376  1.6444  0.3829  1.2092
  117CHL1    C414849   4.480   0.074  16.161  0.6540  1.0743  0.2130
  117CHL1   H4A14850   4.540  -0.019  16.166 -1.6779 -0.5709 -0.3859
  117CHL1   H4B14851   4.374   0.046  16.139  0.3318  1.9602  0.6060
  117CHL1    C514852   4.542   0.169  16.063 -0.1663  0.1765 -1.1851
  117CHL1    C614853   4.477   0.213  15.962  0.6967 -0.4520 -0.5557
  117CHL1    H614854   4.375   0.174  15.950 -0.3711  1.0165  2.4654
  117CHL1    C714855   4.528   0.303  15.856  0.7397 -0.6349 -0.4190
  117CHL1   H7A14856   4.519   0.250  15.759  2.5120 -0.3863 -0.7515
  117CHL1   H7B14857   4.475   0.400  15.857  2.7292  0.5294 -1.0235
  117CHL1    C814858   4.683   0.337  15.871  0.4590  0.2019 -0.2858
  117CHL1    H814859   4.741   0.260  15.816 -0.4217 -0.8254  0.1781
  117CHL1   C1414860   4.709   0.469  15.800  0.3295  0.0123 -0.4207
  117CHL1   H1414861   4.645   0.545  15.849  0.9085  0.5304 -0.4652
  117CHL1   C1514862   4.668   0.481  15.655  0.1025 -0.2002 -0.2688
  117CHL1  H15A14863   4.699   0.389  15.601  1.8283  1.6685 -2.6830
  117CHL1  H15B14864   4.561   0.493  15.625  0.6695  0.1804 -2.2673
  117CHL1   C1614865   4.752   0.600  15.605 -0.6231  0.5806  0.4552
  117CHL1  H16A14866   4.816   0.576  15.518 -0.9516  0.2151  0.3085
  117CHL1  H16B14867   4.691   0.688  15.575 -0.2488  0.6698 -0.0624
  117CHL1   C1714868   4.837   0.655  15.723  0.1866  0.1142 -0.4800
  117CHL1   H1714869   4.782   0.731  15.781  0.0287  0.0998 -0.6115
  117CHL1   C1314870   4.849   0.531  15.811 -0.4086  0.0021  0.2757
  117CHL1   C1814871   4.955   0.437  15.751 -0.1081  0.4281  0.1099
  117CHL1  H18A14872   4.938   0.413  15.644  0.1294  2.6892 -0.4723
  117CHL1  H18B14873   5.059   0.477  15.752 -0.2348  0.7760 -0.6143
  117CHL1  H18C14874   4.967   0.340  15.805 -0.4437 -0.0278 -0.6181
  117CHL1   C1214875   4.876   0.546  15.969  0.5614  1.1167 -0.5118
  117CHL1  H12A14876   4.981   0.579  15.985  1.2676  0.2096 -2.8444
  117CHL1  H12B14877   4.805   0.620  16.010 -1.5604 -1.1413  0.1143
  117CHL1   C1114878   4.861   0.412  16.045 -0.3503  0.1339  0.0188
  117CHL1  H11A14879   4.943   0.343  16.017  0.7821  1.4268  0.0562
  117CHL1  H11B14880   4.873   0.440  16.152  1.6247 -0.7104  0.0596
  117CHL1    C914881   4.724   0.348  16.015  0.3651  0.4766 -0.5690
  117CHL1    H914882   4.660   0.430  16.056 -0.5333 -0.2943 -0.3867
  117CHL1   C1014883   4.687   0.218  16.093 -1.3255 -0.3003  0.6474
  117CHL1   C1914884   4.783   0.101  16.049 -0.6497  0.9191 -0.1292
  117CHL1  H19A14885   4.888   0.123  16.076 -0.5834 -0.7880  1.1712
  117CHL1  H19B14886   4.764   0.012  16.112  1.3619  1.2912  1.0629
  117CHL1  H19C14887   4.781   0.070  15.942 -0.6827 -0.6257  0.2927
  117CHL1    C114888   4.698   0.247  16.246  0.3008  0.3797  0.1214
  117CHL1   H1A14889   4.797   0.281  16.280 -0.6131  0.5037  2.8818
  117CHL1   H1B14890   4.632   0.335  16.261 -0.8878 -0.6244  1.1330
  117CHL1    C214891   4.634   0.148  16.339  0.2353  0.1589 -0.2455
  117CHL1   H2A14892   4.640   0.190  16.441  0.3893  0.7283 -0.4876
  117CHL1   H2B14893   4.691   0.052  16.332 -0.2641 -0.0247 -2.4302
  117CHL1   C2014894   4.965   0.732  15.691 -0.3628  0.2771 -0.2757
  117CHL1   H2014895   5.050   0.672  15.651 -1.8095 -1.4176 -0.9332
  117CHL1   C2114896   5.023   0.799  15.811  0.3531  0.1357  0.1074
  117CHL1  H21A14897   5.073   0.723  15.876 -1.3419 -0.3808  0.8573
  117CHL1  H21B14898   4.949   0.857  15.870 -0.1841 -0.2635 -0.1745
  117CHL1  H21C14899   5.100   0.870  15.773 -0.4850  1.1639  0.2746
  117CHL1   C2214900   4.945   0.837  15.578 -0.1512  0.1795  0.1863
  117CHL1  H22A14901   5.045   0.879  15.554 -0.9654  1.8027 -0.5509
  117CHL1  H22B14902   4.902   0.784  15.490  0.4739  0.4474 -0.2956
  117CHL1   C2314903   4.848   0.954  15.613  0.4434  0.2494  0.0919
  117CHL1  H23A14904   4.748   0.908  15.597  0.0827  1.3887 -1.1757
  117CHL1  H23B14905   4.861   0.980  15.720 -1.0667 -0.5054  0.4750
  117CHL1   C2414906   4.853   1.087  15.531  0.1495  0.6360 -0.5699
  117CHL1  H24A14907   4.956   1.124  15.546  0.6723 -0.4604 -1.3050
  117CHL1  H24B14908   4.825   1.056  15.428 -3.8749 -1.4398  0.9047
  117CHL1   C2514909   4.765   1.202  15.576  0.8228  0.0558  0.2779
  117CHL1   H2514910   4.664   1.157  15.567 -0.0059  1.8766  0.1885
  117CHL1   C2614911   4.790   1.259  15.718  0.1851 -0.1159  0.7873
  117CHL1  H26A14912   4.694   1.311  15.736  0.4165  0.0798  1.5221
  117CHL1  H26B14913   4.785   1.185  15.801 -3.1704  0.4189  1.1762
  117CHL1  H26C14914   4.880   1.324  15.720  0.3850 -0.3312 -0.5723
  117CHL1   C2714915   4.760   1.316  15.472 -0.6186 -0.7690  0.3461
  117CHL1  H27A14916   4.864   1.341  15.442  0.4332 -1.2902  3.1932
  117CHL1  H27B14917   4.705   1.281  15.382 -1.3393 -0.0944  0.5149
  117CHL1  H27C14918   4.708   1.409  15.504  2.4478  2.2092 -2.4716
  118CHL1    C314919   6.984   0.037  16.660 -0.3327  0.2699 -0.0730
  118CHL1    H314920   6.939  -0.063  16.640  0.6892 -1.0012  3.2227
  118CHL1    O314921   6.936   0.079  16.786  0.4301 -0.6793 -0.6608
  118CHL1   H3'14922   6.850   0.119  16.775  0.1403 -0.9846  0.3354
  118CHL1    C414923   7.139   0.030  16.667 -0.7077  0.0668  0.3313
  118CHL1   H4A14924   7.181   0.130  16.694  0.6953 -0.0873 -1.1258
  118CHL1   H4B14925   7.149  -0.046  16.747  0.5968 -1.8264 -1.5466
  118CHL1    C514926   7.184  -0.018  16.532  0.6902  0.3636  0.3099
  118CHL1    C614927   7.249  -0.142  16.538 -0.4581  0.4373 -0.0353
  118CHL1    H614928   7.271  -0.197  16.631  1.5330  1.1165 -0.0653
  118CHL1    C714929   7.297  -0.201  16.407 -0.3055 -0.5050  0.8469
  118CHL1   H7A14930   7.390  -0.259  16.426 -0.3335 -0.0307  2.5112
  118CHL1   H7B14931   7.228  -0.277  16.365 -0.2475  0.0216 -0.2481
  118CHL1    C814932   7.310  -0.088  16.293 -0.2082  0.1473  0.6075
  118CHL1    H814933   7.386  -0.018  16.333 -1.4472  0.9503  1.6217
  118CHL1   C1414934   7.367  -0.146  16.165 -0.5450 -0.3625  0.0766
  118CHL1   H1414935   7.296  -0.223  16.129 -1.2333 -0.6218  1.8917
  118CHL1   C1514936   7.500  -0.214  16.180  0.5077  0.2857 -0.0133
  118CHL1  H15A14937   7.569  -0.149  16.238  0.7410 -0.9850  1.1637
  118CHL1  H15B14938   7.501  -0.309  16.237  2.6742 -0.7974 -1.7038
  118CHL1   C1614939   7.545  -0.222  16.037  0.3091  0.3916 -0.4529
  118CHL1  H16A14940   7.652  -0.195  16.027  1.6432 -4.3140 -1.3526
  118CHL1  H16B14941   7.529  -0.326  16.002 -0.3182 -0.9491  3.4003
  118CHL1   C1714942   7.454  -0.126  15.948 -0.3982  0.3923 -0.1871
  118CHL1   H1714943   7.374  -0.190  15.906 -2.1024  1.1424  1.7531
  118CHL1   C1314944   7.388  -0.036  16.054 -0.0229  0.8409  0.4027
  118CHL1   C1814945   7.481   0.074  16.108 -0.5485 -0.1002  0.4381
  118CHL1  H18A14946   7.579   0.028  16.132  0.3491  1.7003  0.3370
  118CHL1  H18B14947   7.511   0.138  16.022  1.3054 -2.7340 -1.0307
  118CHL1  H18C14948   7.434   0.120  16.197  2.1539 -0.5805  2.2231
  118CHL1   C1214949   7.244   0.014  16.033  0.8133  0.0769 -0.1849
  118CHL1  H12A14950   7.246   0.093  15.954  0.3503  0.7537  0.4679
  118CHL1  H12B14951   7.176  -0.067  16.000 -0.5524  1.9025 -2.1687
  118CHL1   C1114952   7.180   0.084  16.152 -0.1917  0.0058  0.3687
  118CHL1  H11A14953   7.230   0.181  16.171 -0.1770  0.4111 -1.5569
  118CHL1  H11B14954   7.075   0.105  16.124 -0.0581  1.9557  1.1954
  118CHL1    C914955   7.180  -0.010  16.278  0.8674 -0.3677 -1.2426
  118CHL1    H914956   7.102  -0.087  16.261  0.3604 -0.4759  1.1806
  118CHL1   C1014957   7.141   0.066  16.411  0.0446  0.1931 -0.2389
  118CHL1   C1914958   7.235   0.188  16.430  0.4411  0.5048  0.1862
  118CHL1  H19A14959   7.200   0.278  16.376 -2.8414 -0.4258  0.5401
  118CHL1  H19B14960   7.233   0.232  16.532  1.6235  0.3481  0.2957
  118CHL1  H19C14961   7.341   0.165  16.405  0.9595  2.5706  0.3106
  118CHL1    C114962   6.996   0.117  16.416  0.8107  0.7335 -0.7502
  118CHL1   H1A14963   6.993   0.203  16.345  2.1164  2.1687  0.8735
  118CHL1   H1B14964   6.934   0.033  16.378 -0.2740  0.4366  1.5390
  118CHL1    C214965   6.939   0.137  16.558  0.1142  0.2742  0.0979
  118CHL1   H2A14966   6.828   0.132  16.555  0.0888 -0.4714  1.5349
  118CHL1   H2B14967   6.974   0.236  16.594 -2.2603  0.3245  2.5851
  118CHL1   C2014968   7.525  -0.054  15.831 -0.1058  0.3168 -0.3678
  118CHL1   H2014969   7.604   0.012  15.873 -0.1716 -0.8066  1.6725
  118CHL1   C2114970   7.430   0.031  15.757 -0.5848 -0.4108  0.6819
  118CHL1  H21A14971   7.476   0.092  15.676  2.2955 -0.4187  2.1817
  118CHL1  H21B14972   7.389   0.114  15.817  1.1956  3.7108 -3.1754
  118CHL1  H21C14973   7.345  -0.028  15.718 -0.4492  0.4278 -0.9893
  118CHL1   C2214974   7.605  -0.157  15.748 -0.2559 -0.5136 -0.1744
  118CHL1  H22A14975   7.656  -0.101  15.667 -1.7074 -0.2939 -0.9670
  118CHL1  H22B14976   7.674  -0.208  15.819  0.5953  0.6037 -0.1628
  118CHL1   C2314977   7.523  -0.259  15.667 -0.5883  0.3648 -0.4409
  118CHL1  H23A14978   7.452  -0.308  15.737  0.0165  0.7567  0.4669
  118CHL1  H23B14979   7.474  -0.194  15.591  0.3995  0.9735 -0.5845
  118CHL1   C2414980   7.603  -0.373  15.602 -0.1274 -0.3113  0.1111
  118CHL1  H24A14981   7.670  -0.325  15.528 -0.9926 -0.7068 -0.9565
  118CHL1  H24B14982   7.672  -0.418  15.677  1.2489 -0.3943 -1.1709
  118CHL1   C2514983   7.518  -0.487  15.537  0.0025  0.0932  0.4998
  118CHL1   H2514984   7.457  -0.429  15.464  2.4459  0.6312 -1.2742
  118CHL1   C2614985   7.610  -0.588  15.465  0.6753 -0.0619  0.1918
  118CHL1  H26A14986   7.544  -0.656  15.407 -0.1510 -1.6479  2.8417
  118CHL1  H26B14987   7.684  -0.525  15.410  0.0617  0.8838  0.4320
  118CHL1  H26C14988   7.667  -0.647  15.539  0.0938 -0.6286  0.1920
  118CHL1   C2714989   7.437  -0.563  15.638  0.5079 -0.3829 -0.0550
  118CHL1  H27A14990   7.356  -0.607  15.576  0.8776  0.4489 -1.1658
  118CHL1  H27B14991   7.503  -0.637  15.689  0.8654  1.5385  2.4470
  118CHL1  H27C14992   7.382  -0.514  15.720  0.2946 -0.8363  0.0748
  119CHL1    C314993   0.944   0.308  16.570 -0.0933 -0.4163  0.1162
  119CHL1    H314994   1.043   0.269  16.600  0.9821  2.7740  1.1082
  119CHL1    O314995   0.869   0.322  16.695 -0.2503 -0.1404 -0.0409
  119CHL1   H3'14996   0.826   0.239  16.713  0.0935 -0.0919  1.1085
  119CHL1    C414997   0.964   0.451  16.508 -0.6471 -0.5314 -0.9525
  119CHL1   H4A14998   0.864   0.489  16.477 -2.9747 -2.7565  3.0818
  119CHL1   H4B14999   1.003   0.522  16.583  1.6279 -1.1787 -1.4439
  119CHL1    C515000   1.053   0.443  16.385 -0.2967  0.0389  0.7166
  119CHL1    C615001   1.172   0.502  16.373  0.0979 -0.2462  0.0277
  119CHL1    H615002   1.218   0.562  16.453 -1.5149 -0.0189  0.8108
  119CHL1    C715003   1.253   0.501  16.244  0.5603  0.6217  0.0600
  119CHL1   H7A15004   1.295   0.603  16.242 -0.0565  0.8715 -1.3783
  119CHL1   H7B15005   1.346   0.442  16.253 -0.1728 -0.4722  0.7844
  119CHL1    C815006   1.173   0.450  16.121 -0.6216  0.7682 -0.1952
  119CHL1    H815007   1.103   0.531  16.093 -1.1814  0.1242 -0.7263
  119CHL1   C1415008   1.267   0.422  16.011  0.5017 -0.1468  0.4034
  119CHL1   H1415009   1.345   0.352  16.047 -0.3564 -0.7223  1.1816
  119CHL1   C1515010   1.352   0.540  15.951  0.6708  0.2927 -0.2403
  119CHL1  H15A15011   1.283   0.624  15.932 -0.4548 -0.1004  1.8188
  119CHL1  H15B15012   1.432   0.564  16.024 -0.0016  2.3005 -0.1066
  119CHL1   C1615013   1.401   0.485  15.814  0.5494 -0.7290  1.2239
  119CHL1  H16A15014   1.386   0.566  15.739  2.1088 -1.2042  0.3476
  119CHL1  H16B15015   1.510   0.468  15.824  1.7101  3.5130 -1.3544
  119CHL1   C1715016   1.326   0.349  15.791  0.1317  0.0455 -0.7227
  119CHL1   H1715017   1.391   0.267  15.830 -1.4785 -1.6971 -1.4988
  119CHL1   C1315018   1.202   0.353  15.881 -0.0668 -0.0002 -0.1915
  119CHL1   C1815019   1.094   0.453  15.814 -0.2687 -0.6406 -0.3996
  119CHL1  H18A15020   1.014   0.476  15.888  0.1975 -0.7473  0.1512
  119CHL1  H18B15021   1.143   0.545  15.775  0.2138  0.4029  2.4146
  119CHL1  H18C15022   1.062   0.394  15.725  0.9482 -0.2416 -1.1247
  119CHL1   C1215023   1.140   0.220  15.928 -0.1366  0.3541  0.2149
  119CHL1  H12A15024   1.081   0.176  15.845  1.3628 -1.1268 -0.1358
  119CHL1  H12B15025   1.224   0.152  15.955  1.7131  2.2309 -0.5687
  119CHL1   C1115026   1.026   0.247  16.033  0.7015 -0.7282 -0.1425
  119CHL1  H11A15027   0.944   0.303  15.984  1.0087  0.1836  0.3408
  119CHL1  H11B15028   0.981   0.152  16.069  2.6540 -1.5045  0.3901
  119CHL1    C915029   1.085   0.328  16.154 -0.6355 -0.3369  0.0628
  119CHL1    H915030   1.157   0.259  16.203 -1.1534 -1.4612 -0.7065
  119CHL1   C1015031   0.995   0.353  16.272 -0.2940  0.5565 -0.8377
  119CHL1   C1915032   0.871   0.427  16.209 -0.3335  0.1483  0.5999
  119CHL1  H19A15033   0.821   0.362  16.134 -0.3026  2.0714 -1.1582
  119CHL1  H19B15034   0.803   0.460  16.291  1.5545  0.4781  2.1008
  119CHL1  H19C15035   0.904   0.517  16.154  1.1819 -0.5070  0.4001
  119CHL1    C115036   0.954   0.214  16.335  0.0944  0.1398 -0.8157
  119CHL1   H1A15037   0.897   0.159  16.257 -0.1431 -0.1586 -0.4389
  119CHL1   H1B15038   1.043   0.152  16.355 -0.3028 -0.5895 -1.2576
  119CHL1    C215039   0.871   0.224  16.467  0.5113 -0.1218  0.9495
  119CHL1   H2A15040   0.849   0.123  16.507 -0.5053  0.2365  1.3316
  119CHL1   H2B15041   0.772   0.272  16.448  0.2591 -1.3398 -1.1014
  119CHL1   C2015042   1.316   0.318  15.640  1.1976  0.4463  0.2072
  119CHL1   H2015043   1.225   0.366  15.598  0.6319  0.8943  1.8682
  119CHL1   C2115044   1.313   0.162  15.614  0.0148 -0.1634  0.2618
  119CHL1  H21A15045   1.286   0.138  15.509  1.2394  2.3627 -0.7023
  119CHL1  H21B15046   1.253   0.100  15.685  1.9234  0.3180  2.4226
  119CHL1  H21C15047   1.409   0.106  15.618 -1.2971 -2.7242 -1.3951
  119CHL1   C2215048   1.427   0.379  15.550  0.5539  0.2507  0.1843
  119CHL1  H22A15049   1.402   0.487  15.557  0.3325  0.3314 -1.5640
  119CHL1  H22B15050   1.531   0.351  15.579  0.1223 -0.0589  1.4967
  119CHL1   C2315051   1.403   0.342  15.402 -0.0530 -0.3343  0.3566
  119CHL1  H23A15052   1.433   0.236  15.385  0.4710 -0.2021  0.4197
  119CHL1  H23B15053   1.295   0.343  15.376 -0.1783  3.5431  0.4992
  119CHL1   C2415054   1.472   0.441  15.304  0.0571  0.0673  0.0774
  119CHL1  H24A15055   1.445   0.544  15.336 -0.2101  0.5555 -1.6389
  119CHL1  H24B15056   1.581   0.431  15.323 -0.0426 -1.6387 -0.0468
  119CHL1   C2515057   1.450   0.419  15.152 -0.0883 -1.1329 -0.7208
  119CHL1   H2515058   1.515   0.501  15.114 -1.2852  0.1162 -0.1469
  119CHL1   C2615059   1.486   0.279  15.098  0.0550 -0.2235  0.0644
  119CHL1  H26A15060   1.481   0.280  14.987  0.4085 -2.6086 -0.0206
  119CHL1  H26B15061   1.584   0.241  15.136 -0.2591 -0.7147  0.3884
  119CHL1  H26C15062   1.403   0.217  15.136 -0.9224  0.3332 -1.1019
  119CHL1   C2715063   1.308   0.450  15.105  0.7061  0.3832 -0.6024
  119CHL1  H27A15064   1.243   0.366  15.137  0.9647  0.7603  0.9941
  119CHL1  H27B15065   1.270   0.546  15.147 -1.9337 -0.1763 -1.4909
  119CHL1  H27C15066   1.309   0.461  14.995  0.3066  0.3370 -0.6124
  120CHL1    C315067   0.206   6.882  16.650  0.2039  0.7354 -0.1866
  120CHL1    H315068   0.316   6.873  16.660  0.5899  1.5879 -2.8121
  120CHL1    O315069   0.151   6.828  16.774 -0.0420 -0.0481 -0.1536
  120CHL1   H3'15070   0.061   6.802  16.751  1.1073 -2.3797 -2.5229
  120CHL1    C415071   0.173   7.031  16.629 -0.1926  0.4159 -0.5449
  120CHL1   H4A15072   0.063   7.046  16.639 -0.5485 -1.6848 -0.9694
  120CHL1   H4B15073   0.220   7.086  16.713  0.0253 -1.5965  0.7059
  120CHL1    C515074   0.214   7.085  16.494 -0.2798 -0.6137 -0.2562
  120CHL1    C615075   0.283   7.202  16.480 -0.2976 -0.6729 -0.8367
  120CHL1    H615076   0.304   7.253  16.575 -3.9781 -0.2214 -0.0994
  120CHL1    C715077   0.319   7.269  16.356 -0.3086  0.0798  0.3475
  120CHL1   H7A15078   0.293   7.377  16.360  2.4537  0.8456 -0.1900
  120CHL1   H7B15079   0.428   7.266  16.337 -0.2138  0.1636  0.8664
  120CHL1    C815080   0.251   7.205  16.230  0.5839 -0.1769  0.4317
  120CHL1    H815081   0.150   7.250  16.244  0.3894 -0.6371  0.5360
  120CHL1   C1415082   0.317   7.261  16.105  0.0964 -0.1723  0.2972
  120CHL1   H1415083   0.427   7.249  16.119  0.1222  0.5871  0.8252
  120CHL1   C1515084   0.291   7.402  16.065 -0.6314  0.0931 -0.2013
  120CHL1  H15A15085   0.184   7.430  16.058 -1.1263 -1.9545 -1.8880
  120CHL1  H15B15086   0.347   7.462  16.140  0.8371 -0.7487 -0.5854
  120CHL1   C1615087   0.360   7.419  15.928  0.1278  0.2154  0.1730
  120CHL1  H16A15088   0.307   7.482  15.854  2.1919 -1.9941 -3.4732
  120CHL1  H16B15089   0.469   7.442  15.930  0.0703  0.4906  0.1192
  120CHL1   C1715090   0.371   7.263  15.878  0.2251  0.1800  0.2150
  120CHL1   H1715091   0.473   7.224  15.900 -0.0590 -0.5233  0.2830
  120CHL1   C1315092   0.273   7.190  15.978 -0.6276  0.1159 -0.3061
  120CHL1   C1815093   0.125   7.211  15.948  0.6106 -0.4334  0.6255
  120CHL1  H18A15094   0.062   7.184  16.035  1.8503 -0.9296  1.3923
  120CHL1  H18B15095   0.086   7.311  15.917 -2.5609 -1.3722  1.1756
  120CHL1  H18C15096   0.087   7.142  15.870 -0.1095  0.1402  0.4583
  120CHL1   C1215097   0.299   7.039  15.998  0.3808  0.8540 -0.2533
  120CHL1  H12A15098   0.265   6.990  15.905 -0.5511 -0.0481  0.5268
  120CHL1  H12B15099   0.404   7.013  16.021  0.6931  1.8643 -0.5193
  120CHL1   C1115100   0.214   6.975  16.114  0.0795 -0.7148 -0.4481
  120CHL1  H11A15101   0.105   6.988  16.098 -0.3870 -1.5412  1.6824
  120CHL1  H11B15102   0.224   6.864  16.122  0.6595 -0.7075 -0.9701
  120CHL1    C915103   0.252   7.053  16.243 -0.0331 -0.1831  0.1517
  120CHL1    H915104   0.354   7.017  16.271 -0.2330 -0.3395  0.6854
  120CHL1   C1015105   0.175   7.006  16.370 -0.1881  0.0144  0.0548
  120CHL1   C1915106   0.023   7.010  16.340  0.5297 -0.0504 -0.2175
  120CHL1  H19A15107  -0.025   6.981  16.436  0.0182  1.9470  0.1692
  120CHL1  H19B15108  -0.009   7.114  16.317  2.0542  1.1037  2.3838
  120CHL1  H19C15109  -0.008   6.930  16.269 -3.3429  1.4861 -0.5402
  120CHL1    C115110   0.215   6.856  16.395  0.3468 -0.0292 -0.1999
  120CHL1   H1A15111   0.168   6.800  16.312 -2.8339  1.0945  0.7174
  120CHL1   H1B15112   0.326   6.844  16.401  0.4072  0.7574  0.5706
  120CHL1    C215113   0.156   6.796  16.529 -0.4377  0.5111  0.0553
  120CHL1   H2A15114   0.189   6.691  16.543  0.7776  0.8540 -0.0976
  120CHL1   H2B15115   0.045   6.798  16.522 -0.4715  0.7577  0.6310
  120CHL1   C2015116   0.353   7.242  15.724  0.0317 -0.1057  0.3364
  120CHL1   H2015117   0.254   7.285  15.698 -0.1975 -0.5371  0.4881
  120CHL1   C2115118   0.372   7.094  15.680  0.1091  0.9496 -0.7788
  120CHL1  H21A15119   0.452   7.033  15.727 -2.1148 -0.9613  0.7215
  120CHL1  H21B15120   0.380   7.077  15.570 -0.8557 -0.0594 -0.7026
  120CHL1  H21C15121   0.279   7.045  15.714  2.0094 -1.1634  1.7099
  120CHL1   C2215122   0.442   7.347  15.648  0.4867  0.2287  0.1257
  120CHL1  H22A15123   0.409   7.450  15.675  2.0131  0.2976  1.9213
  120CHL1  H22B15124   0.551   7.328  15.663  0.1758 -1.8587 -0.0772
  120CHL1   C2315125   0.423   7.360  15.494 -0.2675 -0.1821  0.3254
  120CHL1  H23A15126   0.429   7.255  15.456  0.5952  0.4934 -1.5496
  120CHL1  H23B15127   0.321   7.397  15.474 -0.2563 -0.1794  0.2712
  120CHL1   C2415128   0.519   7.444  15.414 -0.6946 -0.0308 -0.5213
  120CHL1  H24A15129   0.479   7.547  15.426  0.2984  0.2039  1.0629
  120CHL1  H24B15130   0.618   7.443  15.464 -0.5098 -0.1586 -0.8808
  120CHL1   C2515131   0.546   7.404  15.266 -0.4108 -0.3449 -0.3831
  120CHL1   H2515132   0.603   7.309  15.264 -2.3871 -1.5819 -0.2357
  120CHL1   C2615133   0.416   7.363  15.186 -0.2328 -0.3941  0.7519
  120CHL1  H26A15134   0.444   7.306  15.095  2.1136  0.4308  0.8753
  120CHL1  H26B15135   0.341   7.298  15.237 -1.1112 -1.0035 -1.2335
  120CHL1  H26C15136   0.368   7.459  15.159  0.4693 -0.2148  0.1171
  120CHL1   C2715137   0.616   7.518  15.194  0.1454  0.9873 -0.0729
  120CHL1  H27A15138   0.602   7.502  15.085 -0.3863 -1.6231  0.3199
  120CHL1  H27B15139   0.578   7.618  15.223  1.4110  1.2333  0.8117
  120CHL1  H27C15140   0.725   7.510  15.212  0.0714 -1.0714 -0.3126
  121CHL1    C315141   4.249   3.299  13.235  0.1540 -0.1360  0.2245
  121CHL1    H315142   4.347   3.348  13.216 -0.7116  2.0674  1.0862
  121CHL1    O315143   4.185   3.274  13.110 -0.2025 -0.4697 -0.2239
  121CHL1   H3'15144   4.101   3.238  13.139 -0.5409  0.4338 -0.0479
  121CHL1    C415145   4.256   3.162  13.303  0.1703 -0.6034  0.0081
  121CHL1   H4A15146   4.154   3.120  13.319  0.8627 -1.4445  2.6949
  121CHL1   H4B15147   4.313   3.098  13.233  0.0780  0.0286 -0.6525
  121CHL1    C515148   4.321   3.164  13.438 -0.6452 -0.7880  0.1136
  121CHL1    C615149   4.434   3.092  13.463  0.2746 -0.1134 -0.0502
  121CHL1    H615150   4.479   3.028  13.386 -2.0452  1.0368 -2.4998
  121CHL1    C715151   4.511   3.102  13.595  0.6494 -0.2661 -0.0151
  121CHL1   H7A15152   4.529   3.001  13.637 -0.4308 -0.4972 -0.0720
  121CHL1   H7B15153   4.601   3.167  13.587  0.2309  0.2343 -0.8437
  121CHL1    C815154   4.421   3.170  13.710  0.8892  0.3929  0.2384
  121CHL1    H815155   4.346   3.096  13.745 -1.9403  2.2676 -1.4191
  121CHL1   C1415156   4.509   3.208  13.825 -0.0679  0.3897  0.0574
  121CHL1   H1415157   4.560   3.299  13.788  0.0636 -0.2129 -1.2989
  121CHL1   C1515158   4.619   3.111  13.876  1.1856  0.2244  0.4470
  121CHL1  H15A15159   4.583   3.006  13.882 -1.6409  1.0135 -1.1863
  121CHL1  H15B15160   4.699   3.100  13.800  0.5888 -3.7474  0.1703
  121CHL1   C1615161   4.658   3.154  14.015  0.0758 -0.8145 -0.2545
  121CHL1  H16A15162   4.651   3.062  14.076 -0.6109 -1.3448 -1.1063
  121CHL1  H16B15163   4.757   3.205  14.018 -1.3295  2.0901  2.9072
  121CHL1   C1715164   4.560   3.273  14.053  0.7105 -0.7007 -0.0621
  121CHL1   H1715165   4.615   3.368  14.035 -0.2245 -0.3911 -1.5451
  121CHL1   C1315166   4.437   3.264  13.946  0.1145 -0.2203  0.3011
  121CHL1   C1815167   4.335   3.157  14.007  0.6455 -0.4309 -0.4026
  121CHL1  H18A15168   4.252   3.151  13.933  0.9114  2.1463 -1.0167
  121CHL1  H18B15169   4.381   3.057  14.023  1.0213  0.0812  2.1206
  121CHL1  H18C15170   4.288   3.182  14.104  0.6610 -3.2793  0.4382
  121CHL1   C1215171   4.357   3.396  13.901  0.0047 -0.2377  0.5980
  121CHL1  H12A15172   4.295   3.418  13.991 -3.3501 -2.9744 -0.7810
  121CHL1  H12B15173   4.428   3.476  13.873 -0.4343 -0.4626 -1.2914
  121CHL1   C1115174   4.273   3.374  13.775  0.4183 -0.1699  0.2803
  121CHL1  H11A15175   4.180   3.322  13.809 -0.6558  2.0243  0.8478
  121CHL1  H11B15176   4.244   3.471  13.730  1.0297 -0.1917 -0.1631
  121CHL1    C915177   4.338   3.296  13.655  0.0901  0.1783  0.4083
  121CHL1    H915178   4.418   3.366  13.622 -0.5153  1.1837  1.0406
  121CHL1   C1015179   4.256   3.270  13.530 -0.0502  0.1959 -0.3314
  121CHL1   C1915180   4.114   3.211  13.580 -0.4348  0.0357  0.2569
  121CHL1  H19A15181   4.051   3.206  13.488  0.4920  0.5902 -0.4242
  121CHL1  H19B15182   4.114   3.111  13.628  0.0545  0.9480  2.2404
  121CHL1  H19C15183   4.069   3.279  13.656  0.2668 -0.5331  1.1862
  121CHL1    C115184   4.225   3.402  13.460  0.1098  0.7531 -0.2351
  121CHL1   H1A15185   4.160   3.471  13.518 -2.6613 -1.5366 -0.3894
  121CHL1   H1B15186   4.319   3.457  13.438 -0.1419  0.4319 -2.3188
  121CHL1    C215187   4.157   3.389  13.323  0.8032 -0.1839  0.8076
  121CHL1   H2A15188   4.138   3.486  13.272  1.7207  1.4626  3.4090
  121CHL1   H2B15189   4.056   3.343  13.330  0.5816 -0.1264 -1.2687
  121CHL1   C2015190   4.533   3.270  14.205  0.1244 -0.3921  1.2921
  121CHL1   H2015191   4.445   3.208  14.233 -1.7820  2.2218  1.4205
  121CHL1   C2115192   4.493   3.416  14.249  0.2077  0.3853 -0.0417
  121CHL1  H21A15193   4.590   3.470  14.244 -0.7926  2.5754  2.1838
  121CHL1  H21B15194   4.463   3.422  14.356 -0.9390 -1.0634 -0.2438
  121CHL1  H21C15195   4.416   3.472  14.191  1.0490  2.6757  0.9426
  121CHL1   C2215196   4.663   3.229  14.289  0.0695  0.2110 -0.2449
  121CHL1  H22A15197   4.692   3.128  14.254 -0.2346 -0.1255  0.4534
  121CHL1  H22B15198   4.742   3.302  14.261 -0.7689  1.3700  0.2770
  121CHL1   C2315199   4.629   3.207  14.444  0.1041  0.1641  0.3292
  121CHL1  H23A15200   4.566   3.285  14.493 -0.1142 -0.4664  1.0829
  121CHL1  H23B15201   4.563   3.119  14.451 -0.4368  0.5372 -0.0346
  121CHL1   C2415202   4.760   3.195  14.529 -0.0874 -0.0436 -0.4384
  121CHL1  H24A15203   4.821   3.103  14.511  2.9155  1.9537 -1.2886
  121CHL1  H24B15204   4.820   3.286  14.506 -0.3248 -0.1261 -1.4228
  121CHL1   C2515205   4.731   3.196  14.688 -0.2063  0.0343 -0.9744
  121CHL1   H2515206   4.677   3.289  14.714  2.3975  1.5485 -0.6079
  121CHL1   C2615207   4.651   3.069  14.721  0.0193  0.6229 -0.2792
  121CHL1  H26A15208   4.644   3.045  14.829 -2.3207  0.6368 -0.3635
  121CHL1  H26B15209   4.549   3.073  14.676 -0.2506 -5.1560 -1.0429
  121CHL1  H26C15210   4.701   2.981  14.674 -1.4276 -0.0843 -0.5621
  121CHL1   C2715211   4.869   3.198  14.763  0.3011  0.3063 -0.0136
  121CHL1  H27A15212   4.927   3.107  14.737 -1.4139 -0.9088  0.2386
  121CHL1  H27B15213   4.930   3.290  14.750  2.1093 -0.6869  0.9819
  121CHL1  H27C15214   4.872   3.185  14.874  2.1272  0.3299 -0.0217
  122CHL1    C315215   3.311   3.931  13.673 -0.3463  0.1898 -0.3389
  122CHL1    H315216   3.411   3.888  13.655 -0.3365  0.1342 -0.1550
  122CHL1    O315217   3.275   3.993  13.553 -0.0597 -0.2078 -0.0919
  122CHL1   H3'15218   3.200   4.046  13.581  0.8709 -0.0443  2.2420
  122CHL1    C415219   3.218   3.808  13.703 -0.5227 -0.1353 -0.4361
  122CHL1   H4A15220   3.111   3.840  13.703  0.2035  2.5505  0.0183
  122CHL1   H4B15221   3.220   3.735  13.619  3.0304 -0.9436  0.2180
  122CHL1    C515222   3.252   3.735  13.832  0.1840 -0.3488  0.2288
  122CHL1    C615223   3.287   3.605  13.826 -0.3114  0.7537 -0.8157
  122CHL1    H615224   3.283   3.541  13.736 -0.4743 -0.5009  0.0497
  122CHL1    C715225   3.342   3.528  13.942  0.4704  0.0075  0.2548
  122CHL1   H7A15226   3.291   3.429  13.952  0.9633 -0.0546  2.9304
  122CHL1   H7B15227   3.446   3.506  13.911  0.1367  0.6806 -1.4563
  122CHL1    C815228   3.343   3.602  14.079 -0.9344 -0.2830  0.1282
  122CHL1    H815229   3.242   3.590  14.124  0.5083 -3.4108  2.9907
  122CHL1   C1415230   3.450   3.538  14.173 -0.4731  0.1689  0.2044
  122CHL1   H1415231   3.545   3.563  14.121 -0.0712 -1.1161  0.2824
  122CHL1   C1515232   3.441   3.386  14.196 -0.0181  0.2736 -0.4292
  122CHL1  H15A15233   3.336   3.368  14.228  0.1529  1.2633  0.8001
  122CHL1  H15B15234   3.455   3.314  14.113 -1.5032 -1.1353  0.4744
  122CHL1   C1615235   3.538   3.366  14.317 -0.0811  0.3332  0.0973
  122CHL1  H16A15236   3.485   3.298  14.387 -0.4394 -0.0362 -0.5183
  122CHL1  H16B15237   3.633   3.322  14.280 -0.2481 -0.5025  0.6222
  122CHL1   C1715238   3.573   3.503  14.368 -0.2652  0.6429 -0.0739
  122CHL1   H1715239   3.663   3.526  14.308 -0.7139 -2.1270 -1.9912
  122CHL1   C1315240   3.459   3.595  14.316  1.2894  0.0560  1.1881
  122CHL1   C1815241   3.337   3.579  14.399 -0.0093 -0.0259  0.1249
  122CHL1  H18A15242   3.251   3.592  14.331 -0.6799 -0.7477  0.8183
  122CHL1  H18B15243   3.316   3.483  14.451 -0.9711 -1.0884 -2.0853
  122CHL1  H18C15244   3.328   3.666  14.466 -0.8589  0.5629 -0.7263
  122CHL1   C1215245   3.488   3.743  14.294  0.4707 -0.1277  0.1533
  122CHL1  H12A15246   3.485   3.797  14.392  0.0298  0.4135 -0.1477
  122CHL1  H12B15247   3.590   3.769  14.259 -0.4003  3.0507 -0.3539
  122CHL1   C1115248   3.392   3.822  14.200  0.2167 -0.0033  0.3089
  122CHL1  H11A15249   3.287   3.824  14.238 -0.2516  1.6210 -0.9332
  122CHL1  H11B15250   3.430   3.924  14.180  2.2677 -0.8496 -0.3172
  122CHL1    C915251   3.382   3.745  14.061  0.3579  0.7773  0.0954
  122CHL1    H915252   3.484   3.762  14.020  0.2457  1.0607 -0.0685
  122CHL1   C1015253   3.288   3.826  13.955 -0.5255  0.4110 -0.2786
  122CHL1   C1915254   3.160   3.867  14.025 -0.1844 -0.4465 -0.7142
  122CHL1  H19A15255   3.173   3.939  14.108 -1.2080 -0.1241 -0.8244
  122CHL1  H19B15256   3.090   3.913  13.953  0.4634  0.3400 -0.8586
  122CHL1  H19C15257   3.113   3.772  14.061 -0.0112 -0.3685 -0.2763
  122CHL1    C115258   3.366   3.955  13.913 -0.1124 -0.1656  0.0906
  122CHL1   H1A15259   3.363   4.020  14.003  0.9292 -0.3015  0.2274
  122CHL1   H1B15260   3.471   3.926  13.896 -0.0201  0.7393 -1.0833
  122CHL1    C215261   3.313   4.030  13.789  0.6107  0.3393 -0.1197
  122CHL1   H2A15262   3.380   4.115  13.763  0.1823  0.9442  0.7108
  122CHL1   H2B15263   3.212   4.071  13.812  0.7302  0.9365 -0.6102
  122CHL1   C2015264   3.620   3.511  14.519 -0.2160  0.1912  0.4406
  122CHL1   H2015265   3.529   3.534  14.579 -0.6972 -0.4505 -0.0376
  122CHL1   C2115266   3.713   3.638  14.524  0.9391 -0.6227  0.1707
  122CHL1  H21A15267   3.732   3.666  14.629  0.1015  0.3751  0.0656
  122CHL1  H21B15268   3.654   3.721  14.480 -0.0877 -0.2921  2.0449
  122CHL1  H21C15269   3.805   3.611  14.468  1.6079  2.5988 -0.4652
  122CHL1   C2215270   3.691   3.383  14.574 -0.6663  0.2634  0.7156
  122CHL1  H22A15271   3.612   3.305  14.583  2.2482 -2.7246  3.2684
  122CHL1  H22B15272   3.766   3.363  14.494 -2.5931  0.8704 -1.3355
  122CHL1   C2315273   3.763   3.412  14.704  0.6411  0.1871  0.9164
  122CHL1  H23A15274   3.853   3.476  14.704  1.1527 -0.4955  2.0633
  122CHL1  H23B15275   3.685   3.457  14.769  0.6754 -0.7767  1.6504
  122CHL1   C2415276   3.794   3.286  14.779 -0.0352  0.1309 -0.3831
  122CHL1  H24A15277   3.703   3.222  14.778  1.4544 -2.0896  0.0573
  122CHL1  H24B15278   3.869   3.227  14.721 -0.0466 -1.4954  1.1877
  122CHL1   C2515279   3.833   3.297  14.933  0.0958  0.0832  0.1314
  122CHL1   H2515280   3.747   3.344  14.986  0.3048  0.1330  0.4283
  122CHL1   C2615281   3.855   3.158  14.998 -0.3480 -0.5651  0.5193
  122CHL1  H26A15282   3.858   3.160  15.109  1.5313 -0.9879  0.5083
  122CHL1  H26B15283   3.774   3.087  14.971 -1.6116  0.6342  1.0179
  122CHL1  H26C15284   3.950   3.121  14.954 -1.1214 -3.5276  1.1050
  122CHL1   C2715285   3.948   3.390  14.965  0.1880 -0.4037 -0.0494
  122CHL1  H27A15286   4.046   3.340  14.976 -1.0777 -2.6424  2.0376
  122CHL1  H27B15287   3.945   3.476  14.895  0.3093 -0.2691  0.1107
  122CHL1  H27C15288   3.923   3.433  15.065 -0.1567  4.6656 -1.9943
  123CHL1    C315289   4.663   3.362  13.097 -0.7503 -0.5169 -0.2567
  123CHL1    H315290   4.576   3.310  13.142 -2.0903  2.2200  0.5058
  123CHL1    O315291   4.670   3.338  12.957 -0.0331 -0.5601  0.1497
  123CHL1   H3'15292   4.661   3.424  12.914 -1.4816 -0.8831 -0.2417
  123CHL1    C415293   4.673   3.507  13.113 -0.0200 -0.1513  0.6799
  123CHL1   H4A15294   4.769   3.543  13.070 -0.7694 -0.2405 -1.1654
  123CHL1   H4B15295   4.588   3.558  13.062 -0.4737 -0.9233  0.6591
  123CHL1    C515296   4.679   3.535  13.263  0.3132  0.5515  0.3805
  123CHL1    C615297   4.586   3.611  13.316  0.6818  0.2258 -0.0147
  123CHL1    H615298   4.504   3.655  13.256  1.2063 -0.8051 -1.5332
  123CHL1    C715299   4.596   3.665  13.452  0.4975  0.0877 -0.2742
  123CHL1   H7A15300   4.588   3.775  13.466 -0.8434 -0.2485  2.1340
  123CHL1   H7B15301   4.515   3.616  13.511 -0.2559 -0.1958 -1.4934
  123CHL1    C815302   4.723   3.636  13.527 -0.0665  0.2152  0.5722
  123CHL1    H815303   4.800   3.711  13.497  0.2510 -0.9492 -1.7297
  123CHL1   C1415304   4.702   3.644  13.683  0.0257 -0.5039 -0.5978
  123CHL1   H1415305   4.638   3.557  13.710 -0.3295  0.6608  2.8977
  123CHL1   C1515306   4.636   3.777  13.733  0.1497  0.3544  0.4295
  123CHL1  H15A15307   4.681   3.874  13.706  1.2910 -0.0800  0.6969
  123CHL1  H15B15308   4.525   3.777  13.724  0.0641  1.2763  1.2816
  123CHL1   C1615309   4.657   3.765  13.890  0.5326 -0.5962  0.3869
  123CHL1  H16A15310   4.698   3.865  13.915 -1.3217  0.5450 -0.9132
  123CHL1  H16B15311   4.560   3.758  13.943  0.2773  1.4656  0.2595
  123CHL1   C1715312   4.763   3.660  13.914 -0.1204  0.5749  0.6286
  123CHL1   H1715313   4.714   3.562  13.931  1.5242 -0.4597 -0.2732
  123CHL1   C1315314   4.828   3.626  13.770  0.0786 -0.0091 -0.1012
  123CHL1   C1815315   4.940   3.728  13.740  0.5541  0.0912  0.2264
  123CHL1  H18A15316   4.903   3.831  13.759 -1.5387 -0.0686 -2.3743
  123CHL1  H18B15317   5.032   3.700  13.795  0.5926 -0.1776  0.0246
  123CHL1  H18C15318   4.967   3.712  13.634  1.6586 -3.1779  0.8938
  123CHL1   C1215319   4.876   3.480  13.745  0.0694  0.3986 -0.3480
  123CHL1  H12A15320   4.977   3.482  13.791  0.2561  2.4636 -0.7355
  123CHL1  H12B15321   4.826   3.399  13.802  0.1264 -0.6221 -1.7088
  123CHL1   C1115322   4.898   3.456  13.593  0.5044 -0.1552  0.2088
  123CHL1  H11A15323   4.987   3.518  13.570  0.3985 -0.7788 -2.0848
  123CHL1  H11B15324   4.919   3.347  13.588 -0.2613 -0.2628 -1.0494
  123CHL1    C915325   4.774   3.488  13.501 -0.4775 -0.4398  0.3208
  123CHL1    H915326   4.691   3.421  13.532 -0.8822 -0.5367 -0.9105
  123CHL1   C1015327   4.796   3.473  13.349  0.7938 -0.0264 -0.2083
  123CHL1   C1915328   4.929   3.536  13.304 -0.4311  0.7396  0.2193
  123CHL1  H19A15329   4.930   3.645  13.325  0.0374  0.6433  0.6938
  123CHL1  H19B15330   5.020   3.486  13.343  0.0783  0.6849 -0.9924
  123CHL1  H19C15331   4.950   3.508  13.198  1.3914 -1.3780  1.0403
  123CHL1    C115332   4.793   3.322  13.320  0.5376 -0.0348 -0.3658
  123CHL1   H1A15333   4.888   3.275  13.352  1.1762  1.5756  0.2011
  123CHL1   H1B15334   4.703   3.279  13.371 -1.3261  2.9410 -0.8502
  123CHL1    C215335   4.783   3.295  13.170 -0.2412 -0.0283  0.8136
  123CHL1   H2A15336   4.785   3.188  13.141 -1.1841  0.4573 -1.1804
  123CHL1   H2B15337   4.866   3.341  13.112 -0.5474  2.5279  2.2472
  123CHL1   C2015338   4.844   3.690  14.039 -0.4497 -0.4110 -0.8308
  123CHL1   H2015339   4.893   3.790  14.032 -0.1230 -0.6251 -1.7908
  123CHL1   C2115340   4.950   3.587  14.048  0.3001 -0.0338 -0.0180
  123CHL1  H21A15341   5.019   3.590  13.961  1.8417  4.0756  1.1183
  123CHL1  H21B15342   4.918   3.486  14.082  2.0694 -1.2404 -1.7103
  123CHL1  H21C15343   5.028   3.617  14.121  0.2946 -1.1022  0.4505
  123CHL1   C2215344   4.751   3.690  14.166  0.0257  0.1987 -0.4850
  123CHL1  H22A15345   4.658   3.749  14.153 -1.6962 -0.7796  4.8259
  123CHL1  H22B15346   4.717   3.584  14.171  0.8733 -0.0360  0.7422
  123CHL1   C2315347   4.803   3.732  14.303  0.5677  0.1679 -0.0953
  123CHL1  H23A15348   4.892   3.674  14.335  0.3709  1.0934  2.3689
  123CHL1  H23B15349   4.831   3.839  14.302  2.3646 -0.2810 -0.2395
  123CHL1   C2415350   4.694   3.708  14.413  0.5255  0.3862 -0.2447
  123CHL1  H24A15351   4.598   3.762  14.398  0.7157  0.6858 -0.3890
  123CHL1  H24B15352   4.667   3.601  14.417 -1.8946  0.9678  0.8135
  123CHL1   C2515353   4.748   3.737  14.561 -0.1468 -0.3924 -0.0419
  123CHL1   H2515354   4.830   3.665  14.582 -0.0781 -0.1365  0.5857
  123CHL1   C2615355   4.810   3.876  14.559 -0.1121 -0.1312 -0.0989
  123CHL1  H26A15356   4.829   3.921  14.658  0.7571  2.2285 -1.2875
  123CHL1  H26B15357   4.900   3.886  14.495 -0.0317  0.0755  0.0487
  123CHL1  H26C15358   4.730   3.945  14.524 -0.2402 -0.0555  0.3361
  123CHL1   C2715359   4.643   3.718  14.667  0.1715  0.3330 -0.2746
  123CHL1  H27A15360   4.564   3.793  14.647 -0.6108 -0.9124 -2.0475
  123CHL1  H27B15361   4.598   3.617  14.678 -1.4414  0.8959 -1.3239
  123CHL1  H27C15362   4.694   3.741  14.764 -1.1674 -1.5180  0.9439
  124CHL1    C315363   3.807   4.110  13.571  0.4871 -0.4996 -0.6470
  124CHL1    H315364   3.903   4.054  13.572  0.2445 -0.9426 -1.2571
  124CHL1    O315365   3.751   4.117  13.441  0.0052 -0.7271  0.5839
  124CHL1   H3'15366   3.656   4.118  13.450  0.0311 -1.6281  1.1360
  124CHL1    C415367   3.709   4.055  13.671 -0.0777  0.7696  0.2691
  124CHL1   H4A15368   3.613   4.110  13.660 -0.9832 -0.7256  0.4341
  124CHL1   H4B15369   3.673   3.954  13.643  1.3337 -0.3001  2.1521
  124CHL1    C515370   3.750   4.058  13.817  0.6646 -0.1586 -0.0878
  124CHL1    C615371   3.753   3.940  13.889 -0.1063 -0.1432  0.7408
  124CHL1    H615372   3.735   3.850  13.828 -0.1963  0.1855  0.2772
  124CHL1    C715373   3.775   3.930  14.035  0.0048  0.1684  0.1772
  124CHL1   H7A15374   3.690   3.878  14.083  0.5200 -1.4237 -0.5865
  124CHL1   H7B15375   3.863   3.862  14.039  0.3716  0.3837 -2.5410
  124CHL1    C815376   3.802   4.063  14.107  0.3248 -0.1587  0.2286
  124CHL1    H815377   3.705   4.108  14.138 -1.0048 -2.0510 -0.9976
  124CHL1   C1415378   3.899   4.042  14.221  0.2653 -0.7206  0.8697
  124CHL1   H1415379   3.997   4.011  14.179 -0.0301 -1.0523  0.4095
  124CHL1   C1515380   3.870   3.926  14.312 -0.2557 -0.2213 -0.2655
  124CHL1  H15A15381   3.762   3.912  14.331  0.0074  1.2882  3.1598
  124CHL1  H15B15382   3.904   3.830  14.268 -0.0595 -0.4152  0.3015
  124CHL1   C1615383   3.940   3.955  14.442  0.0868 -0.4246 -0.4777
  124CHL1  H16A15384   3.860   3.969  14.517  0.7119 -2.0243  0.5433
  124CHL1  H16B15385   4.025   3.889  14.469  1.8140  1.9675  0.2990
  124CHL1   C1715386   4.011   4.092  14.425  0.4350 -0.0171  0.4159
  124CHL1   H1715387   4.110   4.070  14.379  0.1338 -0.6883  0.0786
  124CHL1   C1315388   3.926   4.162  14.315  0.3106 -0.3927  0.8059
  124CHL1   C1815389   3.793   4.220  14.381  0.0876  0.3146 -0.3829
  124CHL1  H18A15390   3.723   4.241  14.297 -0.8721 -0.3540  0.2249
  124CHL1  H18B15391   3.755   4.138  14.446 -0.4843  0.1894 -0.8712
  124CHL1  H18C15392   3.817   4.306  14.446 -1.5361 -0.0214  0.7198
  124CHL1   C1215393   3.991   4.267  14.216  0.8905  0.1746 -0.3424
  124CHL1  H12A15394   4.010   4.369  14.257 -3.0631  0.9852 -0.0684
  124CHL1  H12B15395   4.085   4.231  14.170  0.4314 -0.7024 -0.6269
  124CHL1   C1115396   3.903   4.298  14.091  0.3032  0.2398  0.2025
  124CHL1  H11A15397   3.816   4.359  14.124  1.5626  1.6527  1.0488
  124CHL1  H11B15398   3.957   4.369  14.025 -0.6506 -1.4059 -2.5159
  124CHL1    C915399   3.867   4.168  14.008 -0.3275  0.3694 -0.0375
  124CHL1    H915400   3.961   4.116  13.977 -1.5207 -1.4053 -0.8635
  124CHL1   C1015401   3.795   4.194  13.870  0.3721  0.3827 -0.6316
  124CHL1   C1915402   3.667   4.286  13.887  0.0512 -0.4985  0.5707
  124CHL1  H19A15403   3.602   4.248  13.969 -0.6081  0.5863  0.5585
  124CHL1  H19B15404   3.689   4.393  13.906 -0.3724 -0.6790  2.3107
  124CHL1  H19C15405   3.607   4.283  13.794  3.0867  0.0549 -1.5355
  124CHL1    C115406   3.884   4.259  13.763 -0.5876  0.0856  0.1096
  124CHL1   H1A15407   3.907   4.362  13.799  1.0405  0.5992 -2.1128
  124CHL1   H1B15408   3.980   4.202  13.759 -0.2315  0.5100  1.8269
  124CHL1    C215409   3.833   4.258  13.613 -0.9428  0.3834 -0.1265
  124CHL1   H2A15410   3.911   4.303  13.548 -0.6122  0.2106  0.1516
  124CHL1   H2B15411   3.743   4.322  13.601 -0.2515  1.3158 -0.5327
  124CHL1   C2015412   4.025   4.163  14.565  0.1847  0.7634 -0.1495
  124CHL1   H2015413   3.929   4.161  14.621 -0.1953 -2.0340 -0.7237
  124CHL1   C2115414   4.082   4.302  14.550  0.7895  0.5581 -0.1688
  124CHL1  H21A15415   4.076   4.360  14.644 -2.7926  0.8014 -0.4236
  124CHL1  H21B15416   4.011   4.350  14.479 -1.0868 -4.3213 -2.0417
  124CHL1  H21C15417   4.184   4.310  14.506 -0.6028  2.7206 -3.3648
  124CHL1   C2215418   4.125   4.078  14.658  0.4501 -0.1774 -0.4445
  124CHL1  H22A15419   4.081   3.976  14.664  1.7396 -0.7745 -0.7443
  124CHL1  H22B15420   4.221   4.076  14.602  0.8103  0.4853  0.1451
  124CHL1   C2315421   4.136   4.133  14.799  0.4182 -0.4330  0.5476
  124CHL1  H23A15422   4.195   4.227  14.800  0.5012 -0.4884  0.8751
  124CHL1  H23B15423   4.037   4.152  14.847  0.1631  2.6119 -0.9179
  124CHL1   C2415424   4.205   4.042  14.902  0.6531  0.4202 -0.0987
  124CHL1  H24A15425   4.149   3.947  14.916  0.4996  0.3136 -1.2853
  124CHL1  H24B15426   4.307   4.024  14.861  0.2130  0.5484 -1.3058
  124CHL1   C2515427   4.218   4.111  15.039  0.0716  0.0584 -0.6312
  124CHL1   H2515428   4.266   4.209  15.017  1.0547 -0.4923 -0.9883
  124CHL1   C2615429   4.087   4.116  15.117 -0.4191  0.2483  0.1094
  124CHL1  H26A15430   4.024   4.197  15.072 -0.5507  0.6529  0.9979
  124CHL1  H26B15431   4.042   4.015  15.107  0.4956 -0.1825  0.2335
  124CHL1  H26C15432   4.098   4.123  15.227 -1.2025 -0.3152  0.2337
  124CHL1   C2715433   4.318   4.043  15.139  0.4762  0.3813 -0.4886
  124CHL1  H27A15434   4.405   3.994  15.091  0.0066 -0.9731 -0.0205
  124CHL1  H27B15435   4.347   4.109  15.223 -1.7117 -0.2695  0.8755
  124CHL1  H27C15436   4.256   3.964  15.187  1.4567  0.5712  1.1773
  125CHL1    C315437   3.898   4.648  13.129 -0.2199 -0.1820 -0.1437
  125CHL1    H315438   3.985   4.717  13.133 -0.0216 -0.4200 -0.3464
  125CHL1    O315439   3.911   4.583  13.006  0.4220  0.2171 -0.0388
  125CHL1   H3'15440   3.828   4.536  13.003  0.9231 -0.7046  0.1787
  125CHL1    C415441   3.898   4.544  13.241  0.1386 -0.1783 -0.0939
  125CHL1   H4A15442   3.809   4.479  13.226 -0.6750  1.2043 -1.4647
  125CHL1   H4B15443   3.996   4.491  13.241 -0.6771 -1.7669 -0.0676
  125CHL1    C515444   3.871   4.596  13.382 -0.1881  0.8504 -0.3309
  125CHL1    C615445   3.955   4.577  13.488 -0.4295 -0.0060 -0.0936
  125CHL1    H615446   4.049   4.524  13.466  0.1581  1.1736 -0.4759
  125CHL1    C715447   3.925   4.628  13.629  0.2121  0.1587 -0.2622
  125CHL1   H7A15448   3.941   4.548  13.703 -0.5013  0.8336  0.6414
  125CHL1   H7B15449   3.999   4.705  13.661  0.2135 -1.0197  2.9032
  125CHL1    C815450   3.778   4.675  13.645  0.1633 -0.5817  0.1080
  125CHL1    H815451   3.714   4.585  13.662 -0.6823  0.1089  0.6778
  125CHL1   C1415452   3.775   4.767  13.769  0.1492 -0.2327 -0.5959
  125CHL1   H1415453   3.841   4.851  13.740  2.6114 -2.0186 -0.4871
  125CHL1   C1515454   3.837   4.715  13.903 -0.0155  0.6190 -0.1554
  125CHL1  H15A15455   3.795   4.615  13.928  0.1018  1.3396  3.5216
  125CHL1  H15B15456   3.947   4.698  13.903  0.3822  2.8428 -0.0333
  125CHL1   C1615457   3.781   4.813  14.008 -0.3811  0.8180 -0.3772
  125CHL1  H16A15458   3.742   4.763  14.099  2.2127 -1.5688 -0.4314
  125CHL1  H16B15459   3.860   4.882  14.043 -0.7686  0.2343  1.8156
  125CHL1   C1715460   3.668   4.895  13.932 -0.2242 -0.2313 -0.2169
  125CHL1   H1715461   3.724   4.986  13.904 -1.3729  0.7168  0.4681
  125CHL1   C1315462   3.631   4.814  13.801 -0.4820 -0.1928 -0.1524
  125CHL1   C1815463   3.530   4.703  13.837 -0.2290 -0.2006 -0.1845
  125CHL1  H18A15464   3.571   4.659  13.930  0.9620  1.1398 -0.0425
  125CHL1  H18B15465   3.434   4.751  13.867  0.0674 -0.7905  1.8435
  125CHL1  H18C15466   3.515   4.624  13.760  1.9814 -1.7433  0.8501
  125CHL1   C1215467   3.580   4.899  13.684 -0.1119 -0.1339 -0.3345
  125CHL1  H12A15468   3.476   4.932  13.704 -0.9847 -1.5175 -2.3243
  125CHL1  H12B15469   3.639   4.993  13.676 -2.6946  1.6543  0.3957
  125CHL1   C1115470   3.581   4.813  13.554  0.5225  0.1094 -0.1730
  125CHL1  H11A15471   3.518   4.724  13.577 -0.2602  0.5780 -0.4858
  125CHL1  H11B15472   3.532   4.867  13.470  0.8706 -1.8596 -1.7218
  125CHL1    C915473   3.726   4.751  13.530 -0.2633 -0.3506  0.3649
  125CHL1    H915474   3.793   4.839  13.523 -1.0721  0.1255 -2.8554
  125CHL1   C1015475   3.743   4.681  13.393  0.5705 -0.2298  0.5777
  125CHL1   C1915476   3.604   4.603  13.371 -1.4033 -0.7035  0.2760
  125CHL1  H19A15477   3.582   4.533  13.455 -0.3999 -1.6635 -0.2280
  125CHL1  H19B15478   3.518   4.673  13.356 -1.6160 -1.4301 -2.4991
  125CHL1  H19C15479   3.609   4.543  13.278  1.0599  0.0768 -0.1610
  125CHL1    C115480   3.756   4.788  13.278 -0.4821  0.2583 -0.2241
  125CHL1   H1A15481   3.671   4.860  13.286 -0.2211  0.4738  0.7648
  125CHL1   H1B15482   3.851   4.842  13.296  0.2227 -1.9069  3.3859
  125CHL1    C215483   3.773   4.733  13.136 -0.7268  0.0529 -0.6166
  125CHL1   H2A15484   3.790   4.815  13.063  1.3271  1.1717  1.0103
  125CHL1   H2B15485   3.679   4.683  13.105 -0.8457  0.9068 -1.6991
  125CHL1   C2015486   3.562   4.955  14.020  0.0385 -0.0843  0.0176
  125CHL1   H2015487   3.492   4.870  14.035  0.2696 -0.1629  0.7060
  125CHL1   C2115488   3.484   5.074  13.948 -0.1545 -0.9637  0.3640
  125CHL1  H21A15489   3.396   5.045  13.886  0.6661  1.2383 -2.0263
  125CHL1  H21B15490   3.560   5.128  13.887  1.0543 -1.4260  1.4324
  125CHL1  H21C15491   3.443   5.145  14.022 -3.4036 -0.7778 -1.4151
  125CHL1   C2215492   3.616   4.989  14.166  0.0116  0.3415  0.1260
  125CHL1  H22A15493   3.644   4.894  14.215 -0.0950  0.3711  0.2430
  125CHL1  H22B15494   3.703   5.058  14.156  0.0405  0.3176  0.2158
  125CHL1   C2315495   3.515   5.060  14.260 -0.3309  0.3681 -0.7567
  125CHL1  H23A15496   3.473   5.155  14.218 -0.9892  0.6082  0.3767
  125CHL1  H23B15497   3.428   4.992  14.274  0.1522 -0.0897  0.0695
  125CHL1   C2415498   3.579   5.086  14.397 -0.5708  0.0994 -0.2394
  125CHL1  H24A15499   3.641   4.997  14.420 -0.6073  0.0588 -0.2948
  125CHL1  H24B15500   3.646   5.174  14.406  1.5668 -1.6820  2.8787
  125CHL1   C2515501   3.476   5.109  14.506 -0.2544 -0.4575 -0.0469
  125CHL1   H2515502   3.410   5.020  14.513  1.2066 -1.4734  1.2138
  125CHL1   C2615503   3.540   5.133  14.642 -0.2415  0.7546 -0.5290
  125CHL1  H26A15504   3.462   5.121  14.720 -1.6834 -1.1081 -2.1727
  125CHL1  H26B15505   3.627   5.066  14.657  0.6765  1.5179 -2.2357
  125CHL1  H26C15506   3.581   5.236  14.640  0.0218  0.6584 -0.2168
  125CHL1   C2715507   3.390   5.233  14.471 -0.7348 -0.0442 -0.1849
  125CHL1  H27A15508   3.329   5.265  14.558  0.8231 -0.2938  1.0333
  125CHL1  H27B15509   3.452   5.319  14.439 -1.8416  0.2896 -1.5616
  125CHL1  H27C15510   3.323   5.215  14.384  1.2215 -1.5126 -1.4842
  126CHL1    C315511   1.667   4.633  13.527  0.4328  1.1381 -0.2980
  126CHL1    H315512   1.571   4.650  13.580  1.6054 -1.3511  2.9936
  126CHL1    O315513   1.673   4.712  13.409  0.1325  0.1319 -0.3624
  126CHL1   H3'15514   1.742   4.673  13.354 -0.8439 -0.5579 -1.1292
  126CHL1    C415515   1.789   4.664  13.612 -0.0208 -0.0966  0.2897
  126CHL1   H4A15516   1.882   4.634  13.559  0.8778 -0.4671  2.0034
  126CHL1   H4B15517   1.786   4.773  13.633 -1.7154  0.5040 -2.4659
  126CHL1    C515518   1.791   4.577  13.738  0.2253 -0.6103 -0.4439
  126CHL1    C615519   1.798   4.636  13.855 -0.0394 -0.2328 -0.3205
  126CHL1    H615520   1.814   4.744  13.853 -2.7431  0.2997  1.8148
  126CHL1    C715521   1.794   4.572  13.991  0.0334  0.0176 -0.0846
  126CHL1   H7A15522   1.869   4.621  14.057  2.3825 -1.9424 -1.1134
  126CHL1   H7B15523   1.696   4.595  14.037  0.7016  0.7870  0.9940
  126CHL1    C815524   1.806   4.417  13.985 -0.5014 -0.5198 -0.2651
  126CHL1    H815525   1.912   4.387  13.974 -0.9386 -2.6114  0.7637
  126CHL1   C1415526   1.755   4.359  14.119 -0.5740 -0.4395 -0.1291
  126CHL1   H1415527   1.650   4.388  14.141  0.1547  1.3818  1.2121
  126CHL1   C1515528   1.819   4.412  14.244 -0.3245 -0.4971  0.2207
  126CHL1  H15A15529   1.930   4.404  14.238 -0.2209  1.0414 -0.4360
  126CHL1  H15B15530   1.797   4.519  14.264  0.4722 -0.1566 -0.6467
  126CHL1   C1615531   1.774   4.309  14.351 -0.2685  0.7883 -0.5417
  126CHL1  H16A15532   1.860   4.270  14.410 -0.1215  2.3930  0.3759
  126CHL1  H16B15533   1.697   4.353  14.418 -1.0221  1.1010 -1.5854
  126CHL1   C1715534   1.709   4.194  14.272 -0.4834  0.0397  0.3081
  126CHL1   H1715535   1.599   4.209  14.261 -0.8914 -2.0559  0.9862
  126CHL1   C1315536   1.759   4.207  14.126 -0.0218  0.0847 -0.2242
  126CHL1   C1815537   1.900   4.140  14.115  0.0173 -0.1049 -0.5918
  126CHL1  H18A15538   1.952   4.153  14.017  0.4391  0.2746 -0.3229
  126CHL1  H18B15539   1.971   4.184  14.187  1.3423  1.7089 -2.8692
  126CHL1  H18C15540   1.894   4.031  14.132 -3.1979  0.0435 -0.1112
  126CHL1   C1215541   1.664   4.160  14.019  0.1113  0.6720  0.1786
  126CHL1  H12A15542   1.663   4.048  14.018  0.4182  0.6617  0.6358
  126CHL1  H12B15543   1.560   4.195  14.034 -0.7886 -1.3171 -0.9571
  126CHL1   C1115544   1.714   4.206  13.871 -0.2923 -0.3244 -0.6919
  126CHL1  H11A15545   1.810   4.156  13.847 -0.0034 -0.0528 -0.1180
  126CHL1  H11B15546   1.630   4.167  13.809  0.1286 -0.9301 -0.8928
  126CHL1    C915547   1.734   4.362  13.863  0.6816  0.3432  0.0412
  126CHL1    H915548   1.630   4.402  13.871 -0.0774 -1.4140 -0.3926
  126CHL1   C1015549   1.774   4.426  13.723 -0.3586  0.5973  0.8147
  126CHL1   C1915550   1.909   4.360  13.685  0.4534  0.0321 -0.4575
  126CHL1  H19A15551   1.987   4.381  13.761 -0.0079 -0.2646  0.0987
  126CHL1  H19B15552   1.901   4.250  13.673  1.1930 -0.4471  2.5884
  126CHL1  H19C15553   1.957   4.397  13.591  1.1354 -0.1166 -0.1750
  126CHL1    C115554   1.662   4.401  13.615 -0.1096  0.2321  0.3919
  126CHL1   H1A15555   1.657   4.291  13.601 -0.8808  0.4692 -1.4341
  126CHL1   H1B15556   1.569   4.414  13.674 -0.0856 -0.7897  0.6634
  126CHL1    C215557   1.674   4.486  13.486  0.3364  0.1307 -0.3914
  126CHL1   H2A15558   1.594   4.461  13.413 -1.4630  2.1311  0.7645
  126CHL1   H2B15559   1.772   4.464  13.438  0.2022 -0.0984 -0.5647
  126CHL1   C2015560   1.725   4.065  14.349 -0.5156  0.0639  0.3107
  126CHL1   H2015561   1.832   4.036  14.355 -0.3729  0.4990 -0.0616
  126CHL1   C2115562   1.650   3.965  14.257 -0.2217  0.6167  0.3717
  126CHL1  H21A15563   1.563   4.011  14.205  1.9456  2.7079 -1.6373
  126CHL1  H21B15564   1.616   3.880  14.320  1.4989  1.0598  1.9935
  126CHL1  H21C15565   1.719   3.927  14.179  0.0457  0.2450  0.7803
  126CHL1   C2215566   1.659   4.054  14.491 -0.1008  0.9416 -0.0452
  126CHL1  H22A15567   1.668   3.947  14.522 -2.0849  0.1101 -2.0341
  126CHL1  H22B15568   1.717   4.110  14.567 -0.5607 -0.0711  1.0971
  126CHL1   C2315569   1.506   4.096  14.503 -0.3298 -0.0809  0.2277
  126CHL1  H23A15570   1.494   4.207  14.493  1.0334  0.0537 -0.1132
  126CHL1  H23B15571   1.445   4.038  14.431  0.6989 -1.5095  0.4643
  126CHL1   C2415572   1.437   4.053  14.638 -0.1521  0.0266 -0.2302
  126CHL1  H24A15573   1.504   4.097  14.716 -0.7195 -2.1418  1.5749
  126CHL1  H24B15574   1.339   4.101  14.654 -0.0026 -0.2455  1.8734
  126CHL1   C2515575   1.434   3.901  14.673 -0.0179  0.4692  0.0527
  126CHL1   H2515576   1.533   3.852  14.661  0.0823  1.0571 -1.8688
  126CHL1   C2615577   1.378   3.902  14.810 -0.4854  0.3003 -0.2401
  126CHL1  H26A15578   1.449   3.940  14.887  0.9837 -3.5116  0.4636
  126CHL1  H26B15579   1.278   3.950  14.812  0.2355  1.8940 -0.5518
  126CHL1  H26C15580   1.348   3.799  14.838 -1.7664  0.8222  0.3751
  126CHL1   C2715581   1.335   3.814  14.589 -0.8407 -0.1048  0.2062
  126CHL1  H27A15582   1.376   3.790  14.489 -0.4906 -0.2539  0.3818
  126CHL1  H27B15583   1.330   3.713  14.636  2.3870  0.0617  1.2000
  126CHL1  H27C15584   1.234   3.858  14.578 -0.5683  0.5467  0.2681
  127CHL1    C315585   2.836   4.882  13.392 -0.8229  0.1870  0.8284
  127CHL1    H315586   2.931   4.866  13.448  0.2737 -0.4959 -1.1202
  127CHL1    O315587   2.845   4.886  13.257 -0.9399 -0.2753  0.5972
  127CHL1   H3'15588   2.774   4.945  13.232 -0.4195  0.7371  1.4719
  127CHL1    C415589   2.755   4.756  13.417  0.1365  0.5940 -0.2124
  127CHL1   H4A15590   2.648   4.761  13.386 -0.1194 -0.1019  0.5021
  127CHL1   H4B15591   2.797   4.673  13.356 -0.9656  0.7161 -1.1794
  127CHL1    C515592   2.749   4.732  13.569 -0.3802  0.3318  0.3903
  127CHL1    C615593   2.815   4.625  13.623  0.2765 -0.3300 -0.4109
  127CHL1    H615594   2.866   4.553  13.557 -1.0665 -0.1709 -1.6913
  127CHL1    C715595   2.820   4.601  13.775  0.5755 -0.2721 -0.8489
  127CHL1   H7A15596   2.808   4.491  13.784  0.7661 -0.3825 -1.8464
  127CHL1   H7B15597   2.919   4.633  13.812 -0.1003  1.6218 -0.5507
  127CHL1    C815598   2.705   4.684  13.839  0.3174 -0.1694 -0.0725
  127CHL1    H815599   2.611   4.632  13.810 -0.2149  1.1592 -0.8301
  127CHL1   C1415600   2.719   4.682  13.993 -0.1159 -0.5686 -0.4393
  127CHL1   H1415601   2.815   4.732  14.019 -0.3451 -0.7449  0.8151
  127CHL1   C1515602   2.729   4.547  14.060 -0.7314 -0.1597  0.2133
  127CHL1  H15A15603   2.653   4.476  14.019 -0.6751 -1.3149  1.9864
  127CHL1  H15B15604   2.829   4.499  14.052 -0.8544 -0.3692 -0.0946
  127CHL1   C1615605   2.715   4.578  14.211 -0.4245 -0.4312  0.5108
  127CHL1  H16A15606   2.645   4.498  14.245  0.3323 -1.2122  0.2750
  127CHL1  H16B15607   2.818   4.570  14.253  0.6782 -0.4419 -2.0185
  127CHL1   C1715608   2.655   4.725  14.223 -0.2457  0.1079 -0.5255
  127CHL1   H1715609   2.745   4.783  14.253  0.7653 -0.8098 -1.6519
  127CHL1   C1315610   2.612   4.754  14.076  0.2513 -0.3108 -0.4859
  127CHL1   C1815611   2.473   4.696  14.054  0.2910  0.8276  0.3158
  127CHL1  H18A15612   2.392   4.758  14.096  1.2345  0.4400  2.8866
  127CHL1  H18B15613   2.438   4.667  13.952 -0.1480 -2.9465  1.3716
  127CHL1  H18C15614   2.472   4.595  14.102  1.3957  0.1017 -1.0925
  127CHL1   C1215615   2.626   4.901  14.029  0.1733 -0.1940 -0.3759
  127CHL1  H12A15616   2.553   4.965  14.083  1.3551 -1.0608  2.4464
  127CHL1  H12B15617   2.728   4.939  14.048  0.6034 -2.1822  1.7469
  127CHL1   C1115618   2.604   4.915  13.878  0.1259 -0.0056  0.2157
  127CHL1  H11A15619   2.496   4.886  13.872 -0.2355  0.8647  1.9224
  127CHL1  H11B15620   2.620   5.015  13.833  0.6842 -0.2420 -0.1141
  127CHL1    C915621   2.700   4.824  13.801 -0.1200  0.5271 -0.3304
  127CHL1    H915622   2.802   4.853  13.832  0.4223 -1.4424 -0.1800
  127CHL1   C1015623   2.681   4.839  13.649 -0.4178  0.5051 -0.0843
  127CHL1   C1915624   2.532   4.830  13.623  0.9898 -0.2733 -0.6305
  127CHL1  H19A15625   2.479   4.764  13.694  1.3573 -1.4437 -1.4057
  127CHL1  H19B15626   2.489   4.929  13.648  1.2348 -0.1306 -0.7710
  127CHL1  H19C15627   2.503   4.801  13.519 -1.6119 -1.5800  0.3711
  127CHL1    C115628   2.745   4.972  13.607 -0.1502  0.0716  1.2512
  127CHL1   H1A15629   2.683   5.054  13.649 -0.5937  1.2959 -1.5749
  127CHL1   H1B15630   2.842   4.962  13.661 -0.0050 -2.5702  0.6368
  127CHL1    C215631   2.760   4.997  13.456  0.2226  0.0594 -0.8808
  127CHL1   H2A15632   2.824   5.088  13.451 -0.6979  0.8570  0.9662
  127CHL1   H2B15633   2.669   5.019  13.397  0.0010  1.3130 -0.1035
  127CHL1   C2015634   2.546   4.743  14.340 -0.2286  0.0898 -0.3417
  127CHL1   H2015635   2.459   4.678  14.317 -1.7871  1.6748  0.7688
  127CHL1   C2115636   2.497   4.884  14.347 -0.4627 -0.2306  0.1642
  127CHL1  H21A15637   2.436   4.906  14.257 -1.2209  1.3729  1.0210
  127CHL1  H21B15638   2.587   4.950  14.348 -2.0530  2.0765  1.1902
  127CHL1  H21C15639   2.426   4.914  14.428 -1.0386 -0.8970 -0.0918
  127CHL1   C2215640   2.594   4.696  14.478  0.8213  0.9143  0.6248
  127CHL1  H22A15641   2.637   4.594  14.470  1.1596  1.1444 -0.7531
  127CHL1  H22B15642   2.681   4.760  14.506  1.7886 -0.1023  0.0329
  127CHL1   C2315643   2.487   4.703  14.592 -0.8866  0.6894  0.7478
  127CHL1  H23A15644   2.456   4.806  14.618  0.0222  1.0083  0.6073
  127CHL1  H23B15645   2.399   4.643  14.560 -0.0328 -0.1865 -0.0576
  127CHL1   C2415646   2.530   4.638  14.727  0.2570 -0.2567 -0.7383
  127CHL1  H24A15647   2.538   4.527  14.719  0.8389 -0.1815 -1.2678
  127CHL1  H24B15648   2.625   4.681  14.764 -0.6283 -0.0466  1.4267
  127CHL1   C2515649   2.418   4.663  14.837  1.1532  0.1393  0.0233
  127CHL1   H2515650   2.392   4.771  14.829  3.0024  0.5077 -2.0739
  127CHL1   C2615651   2.289   4.581  14.807 -0.7603  0.3302 -0.5277
  127CHL1  H26A15652   2.208   4.596  14.881 -1.3090  0.8987 -1.2310
  127CHL1  H26B15653   2.251   4.591  14.703 -0.8036  0.5358 -0.4922
  127CHL1  H26C15654   2.315   4.473  14.801 -1.8891  0.1006 -1.7261
  127CHL1   C2715655   2.468   4.633  14.972 -0.5440  0.9373 -0.3461
  127CHL1  H27A15656   2.507   4.529  14.970 -1.1201  0.6453  1.8219
  127CHL1  H27B15657   2.546   4.701  15.013  1.2716 -0.3832 -1.4412
  127CHL1  H27C15658   2.386   4.632  15.046 -0.6844 -1.5783 -0.4596
  128CHL1    C315659   1.692   0.650  13.626  0.0107  0.1607 -0.2805
  128CHL1    H315660   1.757   0.566  13.660  0.8041  1.9505  2.9916
  128CHL1    O315661   1.638   0.632  13.496  0.3806  0.3014  0.5046
  128CHL1   H3'15662   1.702   0.661  13.431 -0.3170 -0.9038 -0.7712
  128CHL1    C415663   1.583   0.683  13.738  0.9206 -0.8826 -0.2432
  128CHL1   H4A15664   1.527   0.776  13.714  0.6198 -0.7240  1.0078
  128CHL1   H4B15665   1.503   0.606  13.740 -1.0297  0.9881 -1.0260
  128CHL1    C515666   1.655   0.707  13.864  0.5741  0.0820 -0.5162
  128CHL1    C615667   1.618   0.630  13.968  0.5742  0.5148  0.0375
  128CHL1    H615668   1.550   0.547  13.943  0.2268  0.2543  1.7088
  128CHL1    C715669   1.662   0.642  14.108  0.7056 -0.0207  0.5133
  128CHL1   H7A15670   1.579   0.636  14.182  1.4097  0.8201  1.4027
  128CHL1   H7B15671   1.729   0.555  14.130  2.4795  0.3243 -2.8153
  128CHL1    C815672   1.726   0.785  14.129  0.7495  0.9458 -0.2519
  128CHL1    H815673   1.637   0.851  14.133 -0.7309 -0.8189 -1.9832
  128CHL1   C1415674   1.799   0.790  14.262  0.2353 -0.1152 -0.6308
  128CHL1   H1415675   1.883   0.719  14.252  3.8354  3.8500 -1.6181
  128CHL1   C1515676   1.725   0.747  14.390 -0.2297 -0.0324  0.2379
  128CHL1  H15A15677   1.634   0.809  14.402 -0.0943  0.5289 -1.3493
  128CHL1  H15B15678   1.697   0.640  14.375 -1.3837  0.0319  1.6815
  128CHL1   C1615679   1.812   0.806  14.505 -0.4206  0.2543 -0.3884
  128CHL1  H16A15680   1.751   0.872  14.571 -1.5532 -0.8023 -0.3450
  128CHL1  H16B15681   1.856   0.730  14.573 -1.3225 -1.0550 -1.2159
  128CHL1   C1715682   1.928   0.885  14.436  0.1120  0.1884 -0.0222
  128CHL1   H1715683   1.998   0.801  14.415  0.0503  0.5107 -1.6970
  128CHL1   C1315684   1.876   0.923  14.294  0.4725 -0.4717 -0.1593
  128CHL1   C1815685   1.783   1.046  14.324  0.1236 -0.4078  0.3878
  128CHL1  H18A15686   1.732   1.066  14.228 -1.4205  0.3707  1.3311
  128CHL1  H18B15687   1.705   1.032  14.402 -0.7987 -0.0137 -0.4545
  128CHL1  H18C15688   1.850   1.127  14.362 -0.1767 -1.0968  2.5150
  128CHL1   C1215689   1.975   0.949  14.177  0.9507 -0.3668  0.6758
  128CHL1  H12A15690   2.023   1.048  14.197  0.2030  0.0041  0.6797
  128CHL1  H12B15691   2.049   0.867  14.171  2.3727  0.9617 -2.4014
  128CHL1   C1115692   1.888   0.961  14.049  0.1268  0.7327  0.3449
  128CHL1  H11A15693   1.820   1.049  14.056 -0.9362  0.0078 -0.4722
  128CHL1  H11B15694   1.951   0.978  13.959 -1.2858 -0.5692 -0.9371
  128CHL1    C915695   1.813   0.825  14.016  0.1837  0.0216  0.1421
  128CHL1    H915696   1.893   0.749  14.012 -0.4419 -0.6162 -0.4483
  128CHL1   C1015697   1.754   0.820  13.868 -0.4131  0.3287 -0.6641
  128CHL1   C1915698   1.671   0.954  13.848 -0.6366  0.2021 -0.2060
  128CHL1  H19A15699   1.594   0.967  13.926  0.5982  0.6801  0.9684
  128CHL1  H19B15700   1.737   1.044  13.844 -2.3863  1.5369  0.1339
  128CHL1  H19C15701   1.609   0.955  13.756 -2.1544 -1.1533  0.7563
  128CHL1    C115702   1.859   0.783  13.759  0.2401 -0.9173  0.6747
  128CHL1   H1A15703   1.911   0.881  13.756 -2.4021  0.5950 -2.0838
  128CHL1   H1B15704   1.932   0.705  13.790  1.4069 -0.0176  0.2675
  128CHL1    C215705   1.795   0.763  13.620  0.8031 -0.0045 -0.2111
  128CHL1   H2A15706   1.869   0.731  13.543 -0.6457 -2.2981 -0.7402
  128CHL1   H2B15707   1.745   0.851  13.573  0.0734 -1.0279 -1.3938
  128CHL1   C2015708   1.985   0.991  14.535 -0.1758  0.2920 -0.1899
  128CHL1   H2015709   1.909   1.068  14.562 -1.8811 -1.7235  1.1296
  128CHL1   C2115710   2.106   1.067  14.468 -0.0708 -0.3820  0.0524
  128CHL1  H21A15711   2.070   1.154  14.408 -0.2691  1.3493  2.5358
  128CHL1  H21B15712   2.174   0.995  14.416 -0.5854 -0.4905 -0.4836
  128CHL1  H21C15713   2.166   1.115  14.548 -0.7406 -0.0196  0.3381
  128CHL1   C2215714   2.023   0.936  14.679  0.4012 -0.0860 -0.7042
  128CHL1  H22A15715   2.062   1.026  14.731  2.5809 -2.0239  1.3112
  128CHL1  H22B15716   1.939   0.895  14.739  0.2620  0.1428 -0.7454
  128CHL1   C2315717   2.148   0.846  14.680 -0.0493  0.5563  0.2812
  128CHL1  H23A15718   2.159   0.786  14.587 -3.3425 -0.7494  0.6087
  128CHL1  H23B15719   2.237   0.913  14.683 -0.0722  0.6184 -0.2981
  128CHL1   C2415720   2.153   0.753  14.805 -0.4794  0.5439 -0.9991
  128CHL1  H24A15721   2.151   0.821  14.892 -0.5636 -1.2257  0.4420
  128CHL1  H24B15722   2.060   0.693  14.791 -0.2479 -0.1011  0.1084
  128CHL1   C2515723   2.285   0.659  14.818  0.7145 -0.2874 -0.4985
  128CHL1   H2515724   2.308   0.611  14.721  1.8831 -1.3593  0.2823
  128CHL1   C2615725   2.405   0.743  14.855  0.0229 -0.1223 -0.7197
  128CHL1  H26A15726   2.393   0.796  14.952 -1.1188 -0.3526 -0.7139
  128CHL1  H26B15727   2.493   0.677  14.865  2.0198  2.1376 -2.3351
  128CHL1  H26C15728   2.429   0.817  14.776 -1.0965  1.0883  0.0268
  128CHL1   C2715729   2.268   0.551  14.930 -0.2380 -0.4417  0.6307
  128CHL1  H27A15730   2.169   0.504  14.911  0.1515 -1.5687  1.2762
  128CHL1  H27B15731   2.361   0.489  14.939  0.8980  1.4566  3.1663
  128CHL1  H27C15732   2.256   0.590  15.033 -0.8940 -0.3073  0.5024
  129CHL1    C315733   4.042   5.015  13.109 -0.1671  0.0998 -0.3424
  129CHL1    H315734   3.972   4.929  13.116 -1.2641  0.7971 -2.0403
  129CHL1    O315735   4.069   5.041  12.970  0.0988  0.1513 -0.0950
  129CHL1   H3'15736   4.139   4.979  12.949  0.4136  0.3163  0.4620
  129CHL1    C415737   3.971   5.134  13.168  0.4547  0.0737 -0.3506
  129CHL1   H4A15738   4.015   5.229  13.130 -0.6956  0.3447 -1.0903
  129CHL1   H4B15739   3.864   5.128  13.136 -0.0197  1.2549  0.9255
  129CHL1    C515740   3.974   5.132  13.321  0.3577  0.3942 -0.5725
  129CHL1    C615741   3.865   5.143  13.405  0.0103  0.5176 -0.2498
  129CHL1    H615742   3.767   5.154  13.358 -0.5299 -2.1233  0.0751
  129CHL1    C715743   3.874   5.163  13.552 -0.2379 -0.3425  0.8742
  129CHL1   H7A15744   3.797   5.233  13.591 -0.4641 -0.7268  1.1247
  129CHL1   H7B15745   3.843   5.069  13.603  1.3256 -0.2953  2.0055
  129CHL1    C815746   4.015   5.200  13.601  0.0293 -0.5423  0.3381
  129CHL1    H815747   4.038   5.305  13.573  2.2004 -0.8599  0.7902
  129CHL1   C1415748   4.021   5.194  13.753 -0.3530  0.0470 -0.6366
  129CHL1   H1415749   3.997   5.088  13.773  0.3843 -0.6292 -3.0199
  129CHL1   C1515750   3.916   5.275  13.832 -0.2215  0.2660 -0.3217
  129CHL1  H15A15751   3.922   5.377  13.788  1.5335 -0.3831 -1.7122
  129CHL1  H15B15752   3.814   5.231  13.838  0.3725 -1.0123  1.5668
  129CHL1   C1615753   3.970   5.268  13.976 -0.6854 -0.2739  0.4713
  129CHL1  H16A15754   3.984   5.374  14.007  0.1071  0.2107 -1.3733
  129CHL1  H16B15755   3.910   5.211  14.049  0.7287 -0.9804  1.1211
  129CHL1   C1715756   4.113   5.199  13.963  0.1962 -0.3441  0.4263
  129CHL1   H1715757   4.091   5.091  13.973 -2.2032  0.0958  0.6548
  129CHL1   C1315758   4.155   5.212  13.815  0.2615  0.2021 -0.1528
  129CHL1   C1815759   4.210   5.355  13.795  0.0053 -0.1679 -0.2269
  129CHL1  H18A15760   4.223   5.379  13.687 -1.2953 -2.3960 -0.9544
  129CHL1  H18B15761   4.142   5.417  13.857  1.9764  0.3245  1.5590
  129CHL1  H18C15762   4.305   5.367  13.850 -0.1897 -1.2305  0.3648
  129CHL1   C1215763   4.242   5.097  13.755  0.1856  0.3348  0.1413
  129CHL1  H12A15764   4.344   5.108  13.797 -0.1150  0.6951  0.8049
  129CHL1  H12B15765   4.212   4.993  13.782  3.6964 -1.6183 -2.6334
  129CHL1   C1115766   4.252   5.106  13.603  0.1904 -0.0326  0.2776
  129CHL1  H11A15767   4.307   5.200  13.580  0.6723 -0.5901 -0.9410
  129CHL1  H11B15768   4.303   5.018  13.557  0.9496  0.4957  0.0840
  129CHL1    C915769   4.113   5.107  13.539  0.4057  0.5043  0.5068
  129CHL1    H915770   4.075   5.004  13.557 -1.5670  1.2209  0.7169
  129CHL1   C1015771   4.106   5.115  13.382 -0.3266 -0.1396 -0.0356
  129CHL1   C1915772   4.197   5.238  13.341 -0.0055 -0.2212 -0.0210
  129CHL1  H19A15773   4.169   5.327  13.401 -1.0580 -1.2049  0.9993
  129CHL1  H19B15774   4.302   5.215  13.368  0.4118  1.8849  0.3350
  129CHL1  H19C15775   4.204   5.257  13.232  1.6450  0.8033  0.2287
  129CHL1    C115776   4.160   4.976  13.322 -0.5022 -0.2856  0.0163
  129CHL1   H1A15777   4.262   4.969  13.364 -1.3123 -0.8302  2.0142
  129CHL1   H1B15778   4.100   4.887  13.351 -0.0696 -1.2724 -1.9494
  129CHL1    C215779   4.177   4.983  13.170  0.0740 -0.6056  0.4357
  129CHL1   H2A15780   4.219   4.886  13.137 -0.7660 -0.7930 -0.1116
  129CHL1   H2B15781   4.247   5.066  13.147  0.5469 -1.3527 -0.9378
  129CHL1   C2015782   4.211   5.231  14.073 -0.0817  0.4816  0.8314
  129CHL1   H2015783   4.235   5.340  14.070  1.1918  0.1945  0.1449
  129CHL1   C2115784   4.338   5.142  14.068 -0.0485  0.1712  0.3975
  129CHL1  H21A15785   4.322   5.038  14.033  0.8524  0.3864 -0.7142
  129CHL1  H21B15786   4.388   5.136  14.167 -1.1772 -2.0883  0.8959
  129CHL1  H21C15787   4.414   5.184  13.999  0.1151  0.0647  0.5100
  129CHL1   C2215788   4.160   5.207  14.221 -0.3748  0.1371 -0.4759
  129CHL1  H22A15789   4.247   5.231  14.286  0.9976 -1.0985 -1.7858
  129CHL1  H22B15790   4.080   5.283  14.239 -0.1523  0.5416 -1.1520
  129CHL1   C2315791   4.104   5.071  14.260 -0.5020 -0.4213 -0.7539
  129CHL1  H23A15792   4.011   5.069  14.200  0.7636  1.9438 -2.9796
  129CHL1  H23B15793   4.168   4.981  14.244 -0.1908 -1.0299  2.9841
  129CHL1   C2415794   4.056   5.059  14.407  0.3453 -0.5500  0.0293
  129CHL1  H24A15795   4.144   5.018  14.462  1.5029  0.5791 -0.9151
  129CHL1  H24B15796   4.035   5.161  14.447 -0.0038 -0.6115  0.0062
  129CHL1   C2515797   3.936   4.976  14.435  0.3239 -0.0042 -0.8261
  129CHL1   H2515798   3.856   5.011  14.366  2.3140  3.9258 -1.4443
  129CHL1   C2615799   3.974   4.827  14.414  0.9469 -0.1149 -0.1492
  129CHL1  H26A15800   3.888   4.758  14.427  1.2329 -0.6916 -1.2271
  129CHL1  H26B15801   4.012   4.819  14.310  2.8869 -0.6539  0.5507
  129CHL1  H26C15802   4.050   4.788  14.485  0.2637  0.9910  1.2271
  129CHL1   C2715803   3.887   4.990  14.584  0.0573  0.1136 -0.3469
  129CHL1  H27A15804   3.972   4.964  14.651  0.4832 -0.6790 -1.1798
  129CHL1  H27B15805   3.855   5.094  14.606 -0.4712 -0.3245  1.0961
  129CHL1  H27C15806   3.801   4.921  14.594 -1.7626  2.2836 -0.2991
  130CHL1    C315807   2.841   6.318  13.462 -0.2238  0.4024 -0.5046
  130CHL1    H315808   2.803   6.214  13.454  1.9499 -0.3626 -1.6904
  130CHL1    O315809   2.813   6.388  13.336 -0.2348  0.7413 -0.5548
  130CHL1   H3'15810   2.856   6.337  13.266 -0.3412 -0.3498  0.1549
  130CHL1    C415811   2.754   6.394  13.564 -0.1541  0.2760 -0.2926
  130CHL1   H4A15812   2.783   6.500  13.554  1.0793  0.1288  1.3396
  130CHL1   H4B15813   2.656   6.392  13.512 -0.0835  0.5520 -0.4348
  130CHL1    C515814   2.774   6.343  13.707 -0.1165 -0.4127  0.0044
  130CHL1    C615815   2.665   6.308  13.771  0.3230  0.3334 -0.0006
  130CHL1    H615816   2.564   6.311  13.730 -0.0009  0.3870  0.7874
  130CHL1    C715817   2.668   6.253  13.907 -0.4348  0.1260 -0.5523
  130CHL1   H7A15818   2.603   6.315  13.973  1.0041  0.8352  0.2340
  130CHL1   H7B15819   2.632   6.148  13.914 -0.2630  0.1549  1.7037
  130CHL1    C815820   2.814   6.262  13.972 -0.2155  0.2963 -0.3570
  130CHL1    H815821   2.819   6.367  14.005  0.9394  0.2485 -0.3075
  130CHL1   C1415822   2.823   6.162  14.092 -0.7251  0.5328 -0.2742
  130CHL1   H1415823   2.816   6.060  14.049 -1.0289 -0.5430  2.1488
  130CHL1   C1515824   2.714   6.171  14.197 -0.4412 -0.2299  0.2430
  130CHL1  H15A15825   2.701   6.280  14.214  0.7269  0.1825 -1.2656
  130CHL1  H15B15826   2.614   6.138  14.162 -0.3432  1.0565 -1.3496
  130CHL1   C1615827   2.770   6.099  14.316  0.3042  0.0553  0.3437
  130CHL1  H16A15828   2.745   6.149  14.412 -2.0560 -0.0736 -0.1469
  130CHL1  H16B15829   2.735   5.994  14.320  1.6584 -0.3813  1.4799
  130CHL1   C1715830   2.919   6.091  14.285  0.4122  0.7117  0.0151
  130CHL1   H1715831   2.937   5.989  14.243 -1.6190 -0.3385  1.5646
  130CHL1   C1315832   2.950   6.179  14.165  0.5250  0.6910 -0.3411
  130CHL1   C1815833   2.968   6.324  14.213 -0.2611 -0.0413 -0.5689
  130CHL1  H18A15834   2.975   6.396  14.129  0.7832  0.4234 -0.0906
  130CHL1  H18B15835   2.878   6.366  14.263 -0.2678 -0.2077 -0.4380
  130CHL1  H18C15836   3.048   6.331  14.289 -1.7278 -0.0667  1.0591
  130CHL1   C1215837   3.073   6.139  14.080  0.4506  1.0868 -0.4253
  130CHL1  H12A15838   3.167   6.155  14.136  1.2068 -0.5381 -1.1498
  130CHL1  H12B15839   3.071   6.030  14.059  0.2108  0.7317  1.2702
  130CHL1   C1115840   3.067   6.220  13.949 -0.0836  0.7626  0.0691
  130CHL1  H11A15841   3.103   6.318  13.987  0.0330  0.2530  1.3226
  130CHL1  H11B15842   3.152   6.188  13.885 -0.3376 -1.2881  0.6806
  130CHL1    C915843   2.926   6.231  13.878 -0.3502 -0.5573  0.1539
  130CHL1    H915844   2.913   6.125  13.849  1.7527 -0.6341 -0.7109
  130CHL1   C1015845   2.916   6.328  13.750 -0.5215 -0.2612 -0.0365
  130CHL1   C1915846   2.970   6.468  13.799  0.6552  0.2694  0.1675
  130CHL1  H19A15847   3.063   6.466  13.860  0.6977 -0.6573  0.0840
  130CHL1  H19B15848   2.981   6.533  13.709 -0.5889 -1.5828 -1.4072
  130CHL1  H19C15849   2.897   6.527  13.858  0.1119 -2.0652  1.9608
  130CHL1    C115850   2.998   6.258  13.640 -0.8495 -0.5350  0.1412
  130CHL1   H1A15851   3.108   6.250  13.658 -0.7941 -0.6401 -0.2335
  130CHL1   H1B15852   2.955   6.156  13.634 -1.4263 -0.2755 -0.1968
  130CHL1    C215853   2.989   6.322  13.498  0.0002 -0.6222  0.2346
  130CHL1   H2A15854   3.048   6.267  13.422  1.9594 -0.4762  1.5893
  130CHL1   H2B15855   3.018   6.429  13.495 -2.4379  0.0799 -1.2530
  130CHL1   C2015856   3.007   6.108  14.413  0.6666 -0.0580  0.3019
  130CHL1   H2015857   3.102   6.163  14.395  1.3819 -0.9896  1.0840
  130CHL1   C2115858   3.045   5.964  14.457  0.2084  0.2107  0.7267
  130CHL1  H21A15859   3.075   5.899  14.372 -2.9558 -0.9648  0.3747
  130CHL1  H21B15860   2.950   5.920  14.495  0.3546 -0.6722  0.1142
  130CHL1  H21C15861   3.126   5.944  14.530 -0.0574 -0.9662  0.7247
  130CHL1   C2215862   2.954   6.183  14.537 -0.4483 -0.4186  0.6130
  130CHL1  H22A15863   2.914   6.280  14.500  1.3084 -0.3081 -1.1396
  130CHL1  H22B15864   2.883   6.113  14.586 -0.8617 -0.2144  0.3165
  130CHL1   C2315865   3.076   6.215  14.626 -0.3961 -0.3036 -0.3515
  130CHL1  H23A15866   3.127   6.120  14.652  0.1625  0.2400  0.6078
  130CHL1  H23B15867   3.151   6.282  14.580  1.1172 -2.5949 -1.3777
  130CHL1   C2415868   3.035   6.290  14.751 -0.3627  0.2195 -0.0773
  130CHL1  H24A15869   2.987   6.386  14.723 -0.2649  0.7395  1.4220
  130CHL1  H24B15870   2.957   6.231  14.805 -1.9946 -0.3807 -2.9324
  130CHL1   C2515871   3.149   6.314  14.860 -0.1721  0.4780  0.3067
  130CHL1   H2515872   3.229   6.370  14.806 -1.1810  3.9778  2.1231
  130CHL1   C2615873   3.109   6.408  14.968  0.0630 -0.0175 -0.6875
  130CHL1  H26A15874   3.194   6.439  15.033 -1.7372  1.3188  1.1587
  130CHL1  H26B15875   3.055   6.496  14.927 -0.5604 -0.1092 -0.0826
  130CHL1  H26C15876   3.034   6.361  15.036 -0.1580  4.3527  2.4804
  130CHL1   C2715877   3.201   6.179  14.915  0.3962  0.2268 -0.5346
  130CHL1  H27A15878   3.119   6.122  14.963  1.6434  0.1439  1.6314
  130CHL1  H27B15879   3.255   6.130  14.831 -0.7547 -0.5724 -0.8321
  130CHL1  H27C15880   3.273   6.201  14.997  0.1947 -0.6369 -0.1138
  131CHL1    C315881   7.160   5.174  13.570 -0.3728 -0.2988  0.3870
  131CHL1    H315882   7.106   5.271  13.573 -0.0144 -0.1114  1.0558
  131CHL1    O315883   7.104   5.082  13.472  0.2243 -0.0821  0.0557
  131CHL1   H3'15884   7.160   5.004  13.468 -0.0746 -0.2943 -0.0437
  131CHL1    C415885   7.312   5.198  13.535  0.0788 -0.2566 -0.1541
  131CHL1   H4A15886   7.362   5.101  13.515  1.5856  0.0539  1.8292
  131CHL1   H4B15887   7.305   5.244  13.434 -1.4447 -0.9998 -0.4264
  131CHL1    C515888   7.397   5.262  13.642 -0.7894  0.5444 -0.1495
  131CHL1    C615889   7.475   5.372  13.617 -0.4070  0.0086 -0.0210
  131CHL1    H615890   7.469   5.422  13.520 -0.9102 -0.6616 -0.3379
  131CHL1    C715891   7.572   5.426  13.723  0.8013  0.2418  0.4668
  131CHL1   H7A15892   7.669   5.452  13.675  0.1309 -0.9014 -1.6389
  131CHL1   H7B15893   7.535   5.519  13.773 -0.7904  1.1872 -2.2457
  131CHL1    C815894   7.589   5.326  13.844 -0.2281 -0.5334  0.1848
  131CHL1    H815895   7.657   5.242  13.819  0.6200 -0.0225  0.7132
  131CHL1   C1415896   7.654   5.412  13.954 -1.2950  0.4160  0.5214
  131CHL1   H1415897   7.591   5.503  13.960 -0.8400  1.0482 -2.6192
  131CHL1   C1515898   7.802   5.465  13.930  0.6511 -0.3928 -0.6366
  131CHL1  H15A15899   7.867   5.383  13.893  2.2652  0.7919 -0.5822
  131CHL1  H15B15900   7.795   5.551  13.860 -1.5988  1.6517  1.8722
  131CHL1   C1615901   7.838   5.521  14.069  0.9097 -0.1302 -0.4593
  131CHL1  H16A15902   7.945   5.495  14.085  0.2027 -2.8924  0.2383
  131CHL1  H16B15903   7.811   5.628  14.074 -0.5058 -0.5193  0.7871
  131CHL1   C1715904   7.736   5.452  14.170 -0.1310  1.1389 -0.0996
  131CHL1   H1715905   7.657   5.529  14.186 -1.3704  0.1021 -1.0075
  131CHL1   C1315906   7.657   5.342  14.091  0.7618 -0.2190 -0.0907
  131CHL1   C1815907   7.752   5.211  14.085  0.2655  0.0494  0.0888
  131CHL1  H18A15908   7.855   5.249  14.069 -1.1922  3.6813 -1.6325
  131CHL1  H18B15909   7.758   5.151  14.179  0.6669 -0.4898 -0.2690
  131CHL1  H18C15910   7.723   5.144  14.001 -1.1560  0.8851 -0.1139
  131CHL1   C1215911   7.518   5.300  14.136  0.5758  0.0037 -0.2485
  131CHL1  H12A15912   7.523   5.244  14.232  0.4940 -0.2290 -0.3794
  131CHL1  H12B15913   7.444   5.381  14.151 -0.7945 -1.7301  3.4947
  131CHL1   C1115914   7.456   5.205  14.027  0.1415  0.2440  0.0686
  131CHL1  H11A15915   7.508   5.108  14.019 -3.4330 -1.8877  0.4048
  131CHL1  H11B15916   7.352   5.179  14.058  0.2427  0.2185  0.3852
  131CHL1    C915917   7.448   5.281  13.886  0.1863 -0.3889  0.1622
  131CHL1    H915918   7.385   5.371  13.902 -0.2677 -0.8027  0.7652
  131CHL1   C1015919   7.379   5.194  13.778 -0.4285 -0.0297 -0.4722
  131CHL1   C1915920   7.450   5.056  13.774 -0.4489 -0.3033  0.1000
  131CHL1  H19A15921   7.559   5.062  13.793 -0.6094 -2.8066  2.4229
  131CHL1  H19B15922   7.401   4.998  13.855 -1.4399 -0.9399 -0.9150
  131CHL1  H19C15923   7.435   5.005  13.676 -1.3507  1.2085 -0.5843
  131CHL1    C115924   7.229   5.180  13.808  0.1769  0.3341 -0.0424
  131CHL1   H1A15925   7.226   5.114  13.898  2.6520 -2.6028 -1.8893
  131CHL1   H1B15926   7.182   5.278  13.831  1.4017  0.7488  0.8450
  131CHL1    C215927   7.149   5.101  13.701 -0.0242 -0.5932 -0.2854
  131CHL1   H2A15928   7.044   5.109  13.738 -0.0833  1.1761 -0.7578
  131CHL1   H2B15929   7.198   5.001  13.696  0.0638 -0.5111 -1.1388
  131CHL1   C2015930   7.806   5.410  14.306 -0.0007 -0.0590  0.0324
  131CHL1   H2015931   7.871   5.323  14.284  0.2713 -0.6452  2.8560
  131CHL1   C2115932   7.702   5.368  14.413 -0.2504  0.3348  0.6214
  131CHL1  H21A15933   7.749   5.359  14.513  2.1447 -2.6913 -0.6205
  131CHL1  H21B15934   7.645   5.278  14.385  1.3908 -0.9018  1.1158
  131CHL1  H21C15935   7.625   5.447  14.426  1.6176  2.0385  2.0868
  131CHL1   C2215936   7.895   5.522  14.370 -0.3683 -0.5017  0.1288
  131CHL1  H22A15937   7.962   5.565  14.292 -0.2768 -0.7768  0.0540
  131CHL1  H22B15938   7.820   5.594  14.410 -0.4687 -0.0851 -0.7895
  131CHL1   C2315939   7.989   5.477  14.480 -0.1454 -0.3356 -0.0100
  131CHL1  H23A15940   7.937   5.420  14.560 -1.2763 -2.3553 -2.0519
  131CHL1  H23B15941   8.067   5.413  14.434 -1.5540 -1.2978 -1.1381
  131CHL1   C2415942   8.055   5.600  14.551 -0.5085 -0.3855  0.7257
  131CHL1  H24A15943   8.120   5.641  14.471 -1.8181 -1.2102 -0.8254
  131CHL1  H24B15944   7.978   5.674  14.580  0.7922  1.5309 -0.4509
  131CHL1   C2515945   8.134   5.561  14.679 -0.2052  0.7099  0.5054
  131CHL1   H2515946   8.195   5.471  14.654 -1.6570  0.2111 -1.5185
  131CHL1   C2615947   8.227   5.672  14.727  0.4460  0.5750  0.4793
  131CHL1  H26A15948   8.255   5.651  14.832 -0.0854 -0.7668  0.3716
  131CHL1  H26B15949   8.317   5.672  14.662  1.1249 -0.9509  1.3648
  131CHL1  H26C15950   8.175   5.770  14.719 -3.1439 -1.3095 -1.9407
  131CHL1   C2715951   8.034   5.517  14.785  0.6532  0.1442 -0.6894
  131CHL1  H27A15952   8.082   5.490  14.882 -0.2522  2.3763  0.4628
  131CHL1  H27B15953   7.972   5.609  14.797  0.0398 -0.3912  0.3753
  131CHL1  H27C15954   7.971   5.433  14.749  0.9020  0.1812 -1.2173
  132CHL1    C315955   5.042   6.939  13.593 -0.1710 -0.2780  0.1252
  132CHL1    H315956   4.948   6.990  13.625 -0.1858 -0.8674  1.0586
  132CHL1    O315957   5.047   6.939  13.449 -0.2534  0.0050 -0.1121
  132CHL1   H3'15958   5.045   6.843  13.438  1.3852 -0.5272  3.0229
  132CHL1    C415959   5.160   7.017  13.647 -0.0004 -0.4105  0.1403
  132CHL1   H4A15960   5.253   6.965  13.616  0.8780  0.3973  1.3229
  132CHL1   H4B15961   5.154   7.118  13.601 -3.7024 -0.1218  0.9866
  132CHL1    C515962   5.172   7.023  13.794  0.1586 -0.3570  0.2314
  132CHL1    C615963   5.185   7.146  13.849  0.7684  0.0622  0.3315
  132CHL1    H615964   5.194   7.237  13.788 -2.2199  0.7928  0.8198
  132CHL1    C715965   5.187   7.165  13.999  0.3393  0.0325  0.7077
  132CHL1   H7A15966   5.269   7.238  14.019  0.0778  0.2165  1.1286
  132CHL1   H7B15967   5.094   7.221  14.021 -0.1905  0.6753 -2.7418
  132CHL1    C815968   5.208   7.030  14.078  0.0757  0.2466 -0.1718
  132CHL1    H815969   5.314   6.998  14.077  0.1107  0.2519  1.1435
  132CHL1   C1415970   5.164   7.058  14.225  0.1075 -0.8789  0.1197
  132CHL1   H1415971   5.055   7.077  14.217  0.1782 -0.0167  1.0881
  132CHL1   C1515972   5.231   7.183  14.294 -0.0656 -0.0380 -0.2965
  132CHL1  H15A15973   5.341   7.185  14.280  0.0812  0.4158  0.7956
  132CHL1  H15B15974   5.180   7.276  14.260 -2.3681 -1.4605 -0.9785
  132CHL1   C1615975   5.208   7.153  14.448 -0.2550  0.0629  0.8406
  132CHL1  H16A15976   5.307   7.151  14.499  0.2364 -3.3797  0.0128
  132CHL1  H16B15977   5.151   7.236  14.495  0.2891  1.5109 -0.9467
  132CHL1   C1715978   5.152   7.012  14.455  0.0488  0.0908 -0.6378
  132CHL1   H1715979   5.041   7.020  14.451 -0.2048 -1.5671  1.3387
  132CHL1   C1315980   5.186   6.942  14.322 -0.3608  0.4233  0.2856
  132CHL1   C1815981   5.334   6.894  14.325  0.1562  0.5312  0.8337
  132CHL1  H18A15982   5.412   6.963  14.363  0.1435  0.8125  0.3547
  132CHL1  H18B15983   5.332   6.800  14.384 -0.9360 -0.3607 -0.5640
  132CHL1  H18C15984   5.367   6.873  14.221 -1.9768 -0.9195  0.3773
  132CHL1   C1215985   5.093   6.821  14.267 -0.1567 -0.0370  0.3306
  132CHL1  H12A15986   5.101   6.730  14.329 -0.8505  1.5446  2.8695
  132CHL1  H12B15987   4.984   6.843  14.268 -0.5592 -1.8494 -0.1479
  132CHL1   C1115988   5.132   6.797  14.114  0.0628 -0.2137  0.1854
  132CHL1  H11A15989   5.237   6.759  14.114  0.0965 -0.2975 -2.9027
  132CHL1  H11B15990   5.074   6.709  14.080  0.8605 -0.1492 -1.4029
  132CHL1    C915991   5.124   6.920  14.022 -0.0985 -0.4047 -0.1723
  132CHL1    H915992   5.014   6.939  14.023 -0.7452 -2.3138 -5.1534
  132CHL1   C1015993   5.146   6.887  13.869 -0.4220 -0.1147 -0.6893
  132CHL1   C1915994   5.286   6.811  13.854  0.1832  0.1432 -0.3692
  132CHL1  H19A15995   5.313   6.795  13.747 -0.0798 -0.5447 -0.3382
  132CHL1  H19B15996   5.369   6.865  13.905 -1.3285  2.2961 -0.0690
  132CHL1  H19C15997   5.275   6.711  13.901  1.9345  0.0337 -0.1272
  132CHL1    C115998   5.033   6.803  13.807 -0.1325  0.3044  0.0943
  132CHL1   H1A15999   5.035   6.699  13.846  1.2072  0.8685  1.5888
  132CHL1   H1B16000   4.938   6.852  13.836 -0.0260  0.6628 -0.1643
  132CHL1    C216001   5.045   6.802  13.656  0.8478  0.6776  0.2696
  132CHL1   H2A16002   4.967   6.736  13.612  2.2623 -2.9057  2.6834
  132CHL1   H2B16003   5.136   6.750  13.619  0.2079  0.0081 -0.3960
  132CHL1   C2016004   5.176   6.938  14.589 -0.7082 -0.2126  0.2487
  132CHL1   H2016005   5.286   6.923  14.595 -0.7512 -1.1729 -1.0126
  132CHL1   C2116006   5.097   6.811  14.601 -0.4847 -0.0371 -0.4582
  132CHL1  H21A16007   4.991   6.842  14.585  0.0131  1.6284 -0.6930
  132CHL1  H21B16008   5.106   6.762  14.700  1.9248  1.2765  0.0326
  132CHL1  H21C16009   5.127   6.734  14.526 -0.7081 -2.1826  1.5182
  132CHL1   C2216010   5.143   7.033  14.708 -0.5690  0.6937 -0.7673
  132CHL1  H22A16011   5.182   7.137  14.709  0.7956  0.2316  1.8101
  132CHL1  H22B16012   5.033   7.046  14.697 -0.6974 -0.1563 -0.5579
  132CHL1   C2316013   5.176   6.985  14.853  0.1922 -0.3249  0.5958
  132CHL1  H23A16014   5.141   7.065  14.922 -0.8220 -1.0468  0.9408
  132CHL1  H23B16015   5.119   6.896  14.887  1.1389 -0.5437  1.6919
  132CHL1   C2416016   5.326   6.949  14.882  0.0183 -0.0907 -0.3343
  132CHL1  H24A16017   5.346   6.877  14.800  2.8756  2.5068 -2.1284
  132CHL1  H24B16018   5.392   7.038  14.873 -1.0440  0.7798  0.2204
  132CHL1   C2516019   5.360   6.891  15.022  0.8628  0.1754  0.1727
  132CHL1   H2516020   5.283   6.813  15.039  0.3207  1.0504  1.9464
  132CHL1   C2616021   5.494   6.818  15.018  0.3279  0.4735 -0.3972
  132CHL1  H26A16022   5.566   6.901  15.037  0.8599 -0.2650  0.9941
  132CHL1  H26B16023   5.518   6.737  15.090 -0.0073  0.5119 -0.2382
  132CHL1  H26C16024   5.506   6.775  14.917 -0.3870  1.2886 -0.8479
  132CHL1   C2716025   5.357   6.995  15.131 -0.0625  0.2406  0.0738
  132CHL1  H27A16026   5.378   6.931  15.220 -0.3944  2.1728  1.6007
  132CHL1  H27B16027   5.440   7.068  15.117 -0.1103  0.4083  0.6204
  132CHL1  H27C16028   5.256   7.037  15.150 -0.3704 -0.9421  1.2470
  133CHL1    C316029   0.480   1.109  13.944 -0.3436 -0.1817  0.0796
  133CHL1    H316030   0.519   1.211  13.968 -2.0154  0.7738 -1.0654
  133CHL1    O316031   0.527   1.074  13.811 -0.0370 -0.3108 -0.1868
  133CHL1   H3'16032   0.510   0.980  13.803 -1.6305 -0.5737  3.8244
  133CHL1    C416033   0.548   1.008  14.045 -0.1374  0.0617 -0.1754
  133CHL1   H4A16034   0.519   0.904  14.019 -0.0791 -0.1562  0.5904
  133CHL1   H4B16035   0.658   1.021  14.040  0.4414 -3.5368  0.0923
  133CHL1    C516036   0.490   1.041  14.185 -0.1087  0.4600 -0.2182
  133CHL1    C616037   0.574   1.076  14.277  0.4471 -0.0542 -0.0759
  133CHL1    H616038   0.680   1.077  14.249  0.2686  1.7369 -0.8208
  133CHL1    C716039   0.532   1.104  14.418  0.3772 -0.3236  0.1314
  133CHL1   H7A16040   0.602   1.075  14.499 -0.2687  3.2817  2.1832
  133CHL1   H7B16041   0.528   1.215  14.420 -3.5800 -0.3594  1.6514
  133CHL1    C816042   0.395   1.042  14.449  0.2750  0.4643 -0.6952
  133CHL1    H816043   0.410   0.933  14.460 -0.5607  0.2422 -1.6156
  133CHL1   C1416044   0.345   1.094  14.583  0.0540  0.5469 -0.6502
  133CHL1   H1416045   0.325   1.202  14.574 -5.0735 -0.2461 -1.5919
  133CHL1   C1516046   0.437   1.071  14.708 -0.3368  0.3087 -0.1552
  133CHL1  H15A16047   0.487   0.973  14.698  0.5985  0.8166 -0.6614
  133CHL1  H15B16048   0.520   1.144  14.693  0.7758 -1.1763 -1.6370
  133CHL1   C1616049   0.341   1.085  14.826 -0.1593  0.4339  0.2884
  133CHL1  H16A16050   0.333   0.982  14.867 -0.7958  0.1486 -0.5290
  133CHL1  H16B16051   0.370   1.166  14.896 -0.8815  0.1786  0.8958
  133CHL1   C1716052   0.199   1.117  14.762  0.3411  0.2239 -0.6448
  133CHL1   H1716053   0.201   1.226  14.742 -3.4182  0.1551 -2.3122
  133CHL1   C1316054   0.214   1.041  14.626 -0.1288 -0.3788 -0.3682
  133CHL1   C1816055   0.212   0.887  14.640 -0.0419 -0.6105 -0.2251
  133CHL1  H18A16056   0.250   0.850  14.542  2.4652 -0.2997  0.5527
  133CHL1  H18B16057   0.274   0.843  14.721 -0.6760  1.1216  1.2810
  133CHL1  H18C16058   0.111   0.840  14.643  0.1111 -0.9270  2.1022
  133CHL1   C1216059   0.106   1.086  14.522 -0.4730 -0.1972 -0.3387
  133CHL1  H12A16060   0.001   1.057  14.546 -2.1329  2.9857 -2.9781
  133CHL1  H12B16061   0.096   1.196  14.528 -1.8798 -0.3187 -0.2350
  133CHL1   C1116062   0.147   1.031  14.381 -0.2047  0.2616 -0.0912
  133CHL1  H11A16063   0.123   0.923  14.376 -1.1892  0.4874 -0.3042
  133CHL1  H11B16064   0.084   1.087  14.308  0.6750 -0.8738 -1.7915
  133CHL1    C916065   0.292   1.068  14.344  0.4216 -0.7120 -0.3889
  133CHL1    H916066   0.282   1.178  14.338  1.2948 -0.6636 -1.1729
  133CHL1   C1016067   0.339   1.025  14.201  0.1880 -0.4246  0.3702
  133CHL1   C1916068   0.297   0.878  14.183  0.1778 -0.9093  0.8563
  133CHL1  H19A16069   0.330   0.814  14.267 -0.5052  0.3885  2.1597
  133CHL1  H19B16070   0.188   0.870  14.166  0.4569 -1.0882 -1.0799
  133CHL1  H19C16071   0.341   0.837  14.089  1.4761 -0.7120  1.3515
  133CHL1    C116072   0.267   1.110  14.089 -0.1965  1.0065  0.4356
  133CHL1   H1A16073   0.162   1.072  14.080 -0.1749  1.0731 -0.1441
  133CHL1   H1B16074   0.261   1.217  14.115 -2.7538  1.2921 -0.9117
  133CHL1    C216075   0.325   1.098  13.942  0.3517  0.4462 -0.8643
  133CHL1   H2A16076   0.274   1.174  13.879 -0.1523 -0.6571 -1.8120
  133CHL1   H2B16077   0.291   1.000  13.903  0.6697 -0.0677  0.1247
  133CHL1   C2016078   0.088   1.087  14.862 -0.5840 -0.1889 -0.5812
  133CHL1   H2016079   0.070   0.978  14.865 -0.0671 -0.2568  1.7488
  133CHL1   C2116080  -0.035   1.170  14.824  0.3690  0.5240  0.8712
  133CHL1  H21A16081  -0.024   1.280  14.832  2.0001  0.4923 -0.4260
  133CHL1  H21B16082  -0.125   1.130  14.877  1.6766 -0.7344  2.2134
  133CHL1  H21C16083  -0.066   1.142  14.721 -1.5300  1.3070  1.1887
  133CHL1   C2216084   0.126   1.119  15.018 -0.1038 -0.6311  0.5137
  133CHL1  H22A16085   0.226   1.084  15.050  0.4012  0.4065  0.0876
  133CHL1  H22B16086   0.133   1.230  15.026  0.9640 -0.7179  0.9596
  133CHL1   C2316087   0.030   1.075  15.123  0.3486  1.0399 -0.2314
  133CHL1  H23A16088  -0.074   1.106  15.099 -0.2491 -0.7097 -0.0519
  133CHL1  H23B16089   0.024   0.965  15.106 -0.6929  1.2174 -1.0898
  133CHL1   C2416090   0.086   1.109  15.264  0.0852  0.0099  0.4301
  133CHL1  H24A16091   0.184   1.058  15.281  1.0158  1.6762  0.3235
  133CHL1  H24B16092   0.115   1.216  15.266 -0.3262  0.2038 -1.6454
  133CHL1   C2516093  -0.010   1.080  15.386 -0.0574 -0.0741  0.3199
  133CHL1   H2516094  -0.109   1.127  15.368 -1.0075 -2.2112 -0.3335
  133CHL1   C2616095  -0.026   0.934  15.410  0.3268 -0.4921 -0.2063
  133CHL1  H26A16096  -0.029   0.871  15.318 -1.5893  0.0218 -0.5341
  133CHL1  H26B16097   0.052   0.903  15.483 -0.9838 -0.4060  1.2768
  133CHL1  H26C16098  -0.122   0.924  15.464  1.0738  1.1937  1.5666
  133CHL1   C2716099   0.040   1.142  15.518  0.4685  0.2714  1.0618
  133CHL1  H27A16100  -0.035   1.114  15.595 -0.3701  0.0807  0.1960
  133CHL1  H27B16101   0.140   1.098  15.540 -0.6191 -2.2154  1.3582
  133CHL1  H27C16102   0.050   1.251  15.501  0.1448  0.3078  1.1008
  134CHL1    C316103   5.932   2.391  13.774 -0.4382  0.5539 -0.0792
  134CHL1    H316104   5.994   2.307  13.810 -2.6651 -1.3188 -0.3948
  134CHL1    O316105   5.902   2.378  13.636 -0.4634  0.3391  0.2605
  134CHL1   H3'16106   5.849   2.298  13.626  0.9317 -0.4789 -1.0717
  134CHL1    C416107   5.796   2.379  13.852 -0.6729 -0.6504  0.1436
  134CHL1   H4A16108   5.713   2.432  13.800 -1.7910 -0.0670  2.4080
  134CHL1   H4B16109   5.768   2.274  13.831 -0.5457 -0.6344 -0.1178
  134CHL1    C516110   5.810   2.409  13.998 -0.2778  0.0553  0.2591
  134CHL1    C616111   5.785   2.316  14.087 -0.2544  0.3702 -0.1613
  134CHL1    H616112   5.742   2.222  14.048 -2.8591  1.5048 -0.2074
  134CHL1    C716113   5.796   2.325  14.238  0.4980 -0.2556 -0.2995
  134CHL1   H7A16114   5.702   2.292  14.288  0.5135 -0.2548 -0.2693
  134CHL1   H7B16115   5.885   2.271  14.275  0.2660 -0.6643 -0.3292
  134CHL1    C816116   5.813   2.476  14.276 -0.4472 -0.3608 -0.1529
  134CHL1    H816117   5.713   2.522  14.260 -0.2815 -0.1755 -0.6651
  134CHL1   C1416118   5.863   2.490  14.422  0.3084  0.5698 -0.6320
  134CHL1   H1416119   5.965   2.445  14.421  0.1086  0.0401  0.4879
  134CHL1   C1516120   5.788   2.410  14.529  0.5814 -0.3289  0.2305
  134CHL1  H15A16121   5.680   2.436  14.529  1.0141  1.6039  0.6520
  134CHL1  H15B16122   5.796   2.300  14.517 -0.2573 -0.3873  0.1816
  134CHL1   C1616123   5.850   2.461  14.655 -0.2696 -0.5922 -0.8636
  134CHL1  H16A16124   5.777   2.502  14.728  1.1887  0.4865  0.0511
  134CHL1  H16B16125   5.916   2.399  14.720  0.7468  0.5358 -0.7804
  134CHL1   C1716126   5.944   2.581  14.618  0.1587 -0.3969  0.7548
  134CHL1   H1716127   6.048   2.543  14.605  0.7905  2.0820 -3.1589
  134CHL1   C1316128   5.891   2.627  14.481  0.0808  0.4514 -0.2610
  134CHL1   C1816129   5.756   2.707  14.491 -0.2274  0.3242 -0.4234
  134CHL1  H18A16130   5.722   2.716  14.385 -1.2258  0.3450 -0.1131
  134CHL1  H18B16131   5.675   2.646  14.537  0.3471 -0.4131 -0.3637
  134CHL1  H18C16132   5.771   2.809  14.532  1.0005 -0.7903  2.1385
  134CHL1   C1216133   5.997   2.696  14.383  0.1424 -0.0421  0.2078
  134CHL1  H12A16134   6.016   2.805  14.399 -2.2776  0.9375 -2.5364
  134CHL1  H12B16135   6.088   2.633  14.391 -0.7563 -1.6474 -1.3965
  134CHL1   C1116136   5.953   2.684  14.235  0.1971 -0.1463  0.0343
  134CHL1  H11A16137   5.867   2.755  14.228  1.7627  1.8609  0.2790
  134CHL1  H11B16138   6.031   2.718  14.164 -1.5296  1.6596 -1.1237
  134CHL1    C916139   5.915   2.543  14.188  0.0720 -0.0955 -0.3959
  134CHL1    H916140   6.009   2.487  14.200 -0.4275 -0.9014 -0.1995
  134CHL1   C1016141   5.879   2.538  14.035 -0.1234  0.3699  0.0761
  134CHL1   C1916142   5.777   2.651  14.003 -0.0980  0.2458  0.5426
  134CHL1  H19A16143   5.841   2.742  14.004  1.2336 -0.6478  0.3521
  134CHL1  H19B16144   5.726   2.641  13.905  0.4912  1.3256  0.1079
  134CHL1  H19C16145   5.698   2.657  14.080 -1.7984 -3.1254 -0.7192
  134CHL1    C116146   6.015   2.552  13.952 -0.0751  0.1713 -0.9194
  134CHL1   H1A16147   6.068   2.649  13.969 -1.0705  1.1629 -3.0727
  134CHL1   H1B16148   6.074   2.470  13.997 -1.1627  0.2026  0.6251
  134CHL1    C216149   6.006   2.530  13.797 -0.1919  0.5409  0.0647
  134CHL1   H2A16150   6.106   2.525  13.750 -0.5047  0.8191 -0.6464
  134CHL1   H2B16151   5.941   2.610  13.754  0.1997  0.5274 -0.5635
  134CHL1   C2016152   5.951   2.696  14.723 -0.1256  0.2418 -0.1447
  134CHL1   H2016153   5.847   2.715  14.756 -0.2749 -0.9304  0.1096
  134CHL1   C2116154   6.018   2.830  14.672  0.1631 -0.2101 -0.2228
  134CHL1  H21A16155   6.003   2.915  14.742 -2.9077 -1.0098  0.2453
  134CHL1  H21B16156   5.977   2.877  14.580  0.6817  1.3736  0.3132
  134CHL1  H21C16157   6.125   2.803  14.666  0.0385 -1.5987  2.3276
  134CHL1   C2216158   6.018   2.641  14.852  0.4911  0.2834 -0.5559
  134CHL1  H22A16159   5.953   2.583  14.921  1.9685 -0.0943  0.5496
  134CHL1  H22B16160   6.098   2.574  14.813  0.4348 -0.3052  0.3202
  134CHL1   C2316161   6.081   2.742  14.944  0.2624 -0.3124  0.4491
  134CHL1  H23A16162   6.156   2.799  14.885  0.9656 -1.5599  0.1142
  134CHL1  H23B16163   6.013   2.825  14.975  1.8483  1.1071  0.2645
  134CHL1   C2416164   6.137   2.679  15.072  0.0177  0.0848  0.2297
  134CHL1  H24A16165   6.054   2.644  15.137  0.6188 -0.9491  0.4481
  134CHL1  H24B16166   6.193   2.588  15.042 -1.4956 -0.3592 -1.4025
  134CHL1   C2516167   6.231   2.760  15.157 -0.7227 -0.1643  0.8353
  134CHL1   H2516168   6.309   2.803  15.091 -0.6642 -0.7862  0.4938
  134CHL1   C2616169   6.148   2.872  15.215  0.2708 -0.1120 -0.1129
  134CHL1  H26A16170   6.069   2.832  15.282 -0.4276 -0.3087 -1.0478
  134CHL1  H26B16171   6.223   2.933  15.271 -0.7263  1.7682 -0.7322
  134CHL1  H26C16172   6.118   2.945  15.137 -1.9733  2.0706  2.5611
  134CHL1   C2716173   6.305   2.681  15.265 -0.0999 -0.1444 -0.4951
  134CHL1  H27A16174   6.235   2.629  15.333  3.0083 -3.3797  0.5539
  134CHL1  H27B16175   6.371   2.598  15.232 -1.9687 -1.7400 -0.3887
  134CHL1  H27C16176   6.369   2.748  15.326 -0.7672 -0.4990  0.6165
  135CHL1    C316177   6.599   1.178  13.342 -0.1534  1.2412  0.4682
  135CHL1    H316178   6.687   1.247  13.338  2.9878 -2.4009  1.2289
  135CHL1    O316179   6.597   1.106  13.220  0.2698  0.6502 -0.1241
  135CHL1   H3'16180   6.569   1.169  13.152  1.1934  0.8047 -0.3764
  135CHL1    C416181   6.615   1.074  13.451 -0.1257  0.2195 -0.7558
  135CHL1   H4A16182   6.535   0.999  13.435  0.6304 -1.0365  1.0236
  135CHL1   H4B16183   6.709   1.016  13.444  0.5448  1.0459  0.7815
  135CHL1    C516184   6.597   1.124  13.597 -0.6120 -0.0562 -1.0980
  135CHL1    C616185   6.688   1.114  13.694  0.6064 -0.0096 -0.1587
  135CHL1    H616186   6.781   1.059  13.678  1.1368 -0.1040  2.6692
  135CHL1    C716187   6.666   1.164  13.838  0.0650 -0.5942  0.3608
  135CHL1   H7A16188   6.697   1.080  13.905  1.7886 -2.5645 -2.6506
  135CHL1   H7B16189   6.733   1.249  13.864  1.1615 -0.9953 -1.0386
  135CHL1    C816190   6.518   1.201  13.868 -0.7721 -0.2065 -0.7291
  135CHL1    H816191   6.465   1.105  13.882 -0.8330 -0.2433 -1.1898
  135CHL1   C1416192   6.504   1.264  13.999  0.4393 -0.1716 -0.6476
  135CHL1   H1416193   6.561   1.359  14.000  0.4429 -0.1719  0.3048
  135CHL1   C1516194   6.557   1.202  14.129  0.3627  0.1785 -0.9210
  135CHL1  H15A16195   6.526   1.095  14.131  4.0143 -1.0023  1.7709
  135CHL1  H15B16196   6.668   1.198  14.131  0.3297 -0.5731 -0.1402
  135CHL1   C1616197   6.493   1.282  14.244  0.5426  0.8185 -0.4409
  135CHL1  H16A16198   6.441   1.206  14.307  0.2444  0.0375 -1.5928
  135CHL1  H16B16199   6.573   1.330  14.304  1.6045 -1.3478  0.0002
  135CHL1   C1716200   6.381   1.372  14.177  0.6379  0.1763 -0.4748
  135CHL1   H1716201   6.429   1.470  14.155  0.6925  0.0499 -0.9257
  135CHL1   C1316202   6.363   1.311  14.031  0.1747 -0.8384 -0.3093
  135CHL1   C1816203   6.259   1.192  14.023  0.5223 -0.7915 -0.6409
  135CHL1  H18A16204   6.158   1.238  14.030  1.0060  0.5573 -2.0161
  135CHL1  H18B16205   6.279   1.133  13.931  1.0071 -0.5243 -0.7135
  135CHL1  H18C16206   6.275   1.116  14.103  0.5729 -0.8453 -0.7023
  135CHL1   C1216207   6.326   1.422  13.927 -0.1506  0.4117  0.1953
  135CHL1  H12A16208   6.220   1.452  13.937 -0.4004 -0.8121  1.5989
  135CHL1  H12B16209   6.392   1.510  13.942  1.8174 -0.7064 -1.3357
  135CHL1   C1116210   6.353   1.365  13.781 -0.3515 -0.0245  0.5219
  135CHL1  H11A16211   6.266   1.300  13.759 -0.0384  0.2685 -1.9206
  135CHL1  H11B16212   6.337   1.450  13.711  1.5017  0.8451  1.1030
  135CHL1    C916213   6.475   1.286  13.752 -0.9139  0.8786  0.1982
  135CHL1    H916214   6.558   1.359  13.746 -1.4367  1.7583  2.5865
  135CHL1   C1016215   6.475   1.207  13.617  0.5434  0.0744  0.4095
  135CHL1   C1916216   6.355   1.100  13.622  0.0422  0.1254 -0.4444
  135CHL1  H19A16217   6.356   1.038  13.530 -0.3752  1.7503 -1.6001
  135CHL1  H19B16218   6.355   1.038  13.714 -1.0945  2.1873  1.0451
  135CHL1  H19C16219   6.257   1.153  13.624 -0.5753 -0.8552 -2.4789
  135CHL1    C116220   6.466   1.314  13.507  0.6597  0.1801  1.0705
  135CHL1   H1A16221   6.363   1.352  13.523 -0.4850 -1.5347 -1.5621
  135CHL1   H1B16222   6.542   1.395  13.511  1.1916  0.2315 -3.9143
  135CHL1    C216223   6.475   1.258  13.363 -0.4288  0.0602  0.6511
  135CHL1   H2A16224   6.467   1.343  13.292 -2.1789 -2.9536 -3.1775
  135CHL1   H2B16225   6.381   1.204  13.336  0.2257 -0.8424  0.1300
  135CHL1   C2016226   6.255   1.393  14.267  0.5464 -0.1878  0.4428
  135CHL1   H2016227   6.213   1.290  14.262  0.5189 -0.1395 -0.4458
  135CHL1   C2116228   6.146   1.488  14.201 -0.4104 -0.0020  0.3964
  135CHL1  H21A16229   6.201   1.582  14.179 -2.4645  0.8227 -1.6373
  135CHL1  H21B16230   6.066   1.489  14.278 -0.4655 -3.0201  0.5103
  135CHL1  H21C16231   6.099   1.440  14.112 -0.5693  0.7316  0.0784
  135CHL1   C2216232   6.281   1.422  14.413 -0.4496 -0.6238 -0.1030
  135CHL1  H22A16233   6.190   1.416  14.477 -0.0939  2.2352  0.8364
  135CHL1  H22B16234   6.351   1.353  14.466  1.1283  0.9503 -0.0314
  135CHL1   C2316235   6.341   1.560  14.436 -0.4480 -0.1148  0.5000
  135CHL1  H23A16236   6.436   1.575  14.380 -1.5624  0.7024 -1.2297
  135CHL1  H23B16237   6.276   1.641  14.399  0.4172  0.7603  0.8670
  135CHL1   C2416238   6.372   1.576  14.584 -0.0626  0.0934 -0.4105
  135CHL1  H24A16239   6.281   1.604  14.641  2.2685  0.8283  3.3481
  135CHL1  H24B16240   6.421   1.491  14.637 -0.1116 -0.1025 -0.6782
  135CHL1   C2516241   6.471   1.694  14.605  0.3694  0.0161  0.6164
  135CHL1   H2516242   6.562   1.687  14.542  2.0026 -1.2184  2.9475
  135CHL1   C2616243   6.385   1.818  14.561 -0.3343 -0.1554  0.3891
  135CHL1  H26A16244   6.370   1.839  14.452  2.0345  1.1644  0.2654
  135CHL1  H26B16245   6.292   1.825  14.621  0.6532  2.2718  1.7720
  135CHL1  H26C16246   6.444   1.910  14.580 -1.8237  0.5446  1.8284
  135CHL1   C2716247   6.503   1.704  14.756 -0.4474  1.1488  0.2415
  135CHL1  H27A16248   6.564   1.616  14.787  0.8763  1.6320 -0.8776
  135CHL1  H27B16249   6.573   1.784  14.788  1.9879 -0.5348 -0.6439
  135CHL1  H27C16250   6.408   1.715  14.813  0.3623  0.7255  1.7099
  136CHL1    C316251   5.887   0.031  13.402 -0.4396 -0.1733  0.4138
  136CHL1    H316252   5.929   0.130  13.431 -0.2475  0.1962 -1.0364
  136CHL1    O316253   5.858   0.037  13.259  0.0294  0.9724 -0.0521
  136CHL1   H3'16254   5.818  -0.050  13.246 -1.4860  1.2187  2.3546
  136CHL1    C416255   5.988  -0.074  13.428 -0.1865  0.5287  0.2859
  136CHL1   H4A16256   5.944  -0.171  13.396  2.0245 -0.0144 -1.3709
  136CHL1   H4B16257   6.080  -0.060  13.367 -1.4998  0.9332 -1.6916
  136CHL1    C516258   6.024  -0.078  13.576  0.1562 -0.0657 -0.1105
  136CHL1    C616259   6.157  -0.063  13.616  0.2809  0.4987  0.2857
  136CHL1    H616260   6.238  -0.054  13.542  0.2720 -0.4640  0.1451
  136CHL1    C716261   6.203  -0.062  13.756  0.7405 -0.2866 -0.7206
  136CHL1   H7A16262   6.302  -0.105  13.780  1.2292  0.7498 -0.8148
  136CHL1   H7B16263   6.227   0.043  13.780  0.9069 -0.2796 -0.9122
  136CHL1    C816264   6.091  -0.111  13.851  0.3134  0.0865 -0.1394
  136CHL1    H816265   6.096  -0.222  13.857 -0.7806  0.0999  1.9383
  136CHL1   C1416266   6.132  -0.064  13.994 -0.6396 -0.0859 -0.2394
  136CHL1   H1416267   6.122   0.047  13.983 -0.7594  0.0760  1.2429
  136CHL1   C1516268   6.281  -0.079  14.035 -0.0478 -0.8697  0.0118
  136CHL1  H15A16269   6.338  -0.169  14.006 -0.5891 -1.0876 -0.3888
  136CHL1  H15B16270   6.337   0.013  14.007 -0.9784 -0.0986  0.6299
  136CHL1   C1616271   6.269  -0.075  14.186 -0.0491  0.0367  0.6216
  136CHL1  H16A16272   6.296  -0.178  14.218  1.0925  0.1047 -0.0584
  136CHL1  H16B16273   6.336   0.001  14.230 -0.4639  1.5246 -1.1686
  136CHL1   C1716274   6.120  -0.041  14.231 -0.3637 -1.0483 -0.0847
  136CHL1   H1716275   6.112   0.069  14.235 -0.9761 -1.1236  1.5573
  136CHL1   C1316276   6.038  -0.098  14.107  0.4771 -0.3636  0.0682
  136CHL1   C1816277   6.029  -0.252  14.114 -0.1700  0.6991  0.1194
  136CHL1  H18A16278   5.998  -0.308  14.024  2.6061 -0.0254 -0.4796
  136CHL1  H18B16279   6.127  -0.300  14.136 -0.4502 -0.3068 -0.7537
  136CHL1  H18C16280   5.959  -0.278  14.197 -0.9227 -0.3529 -0.8226
  136CHL1   C1216281   5.910  -0.028  14.074  1.0496 -0.0964  0.1653
  136CHL1  H12A16282   5.826  -0.051  14.143 -0.2342 -0.7800 -1.5283
  136CHL1  H12B16283   5.920   0.083  14.071 -0.9222  0.1026 -1.9099
  136CHL1   C1116284   5.848  -0.070  13.935 -0.2100  0.1183  0.0340
  136CHL1  H11A16285   5.812  -0.175  13.946  0.0323  0.1577  1.2988
  136CHL1  H11B16286   5.767   0.003  13.914  0.2908  0.6046 -0.2424
  136CHL1    C916287   5.952  -0.048  13.816 -0.1633  1.1863 -0.6978
  136CHL1    H916288   5.973   0.061  13.821  1.0505  0.9091  2.9047
  136CHL1   C1016289   5.904  -0.088  13.676  0.0957 -0.0045 -0.1997
  136CHL1   C1916290   5.859  -0.233  13.685  0.1632  0.0782  0.1475
  136CHL1  H19A16291   5.935  -0.298  13.734  0.5521  0.3428 -0.1048
  136CHL1  H19B16292   5.764  -0.234  13.742  0.8588 -2.8642  1.4401
  136CHL1  H19C16293   5.833  -0.295  13.595 -2.4941 -0.6042  1.2654
  136CHL1    C116294   5.790   0.002  13.633 -0.0635  0.3942 -0.3655
  136CHL1   H1A16295   5.694  -0.026  13.681  1.3966 -0.5466  2.2142
  136CHL1   H1B16296   5.814   0.107  13.663 -2.0823  0.6051  0.7030
  136CHL1    C216297   5.757   0.005  13.486  0.1016 -0.4622  0.0526
  136CHL1   H2A16298   5.682   0.081  13.456  0.6897 -0.4958 -1.6149
  136CHL1   H2B16299   5.706  -0.090  13.463 -3.0107  1.5216 -2.0790
  136CHL1   C2016300   6.087  -0.100  14.365  0.1543 -0.2170  0.5847
  136CHL1   H2016301   6.111  -0.208  14.366 -1.6108 -0.6522 -0.5587
  136CHL1   C2116302   5.938  -0.089  14.399 -0.0260  0.6611  0.1259
  136CHL1  H21A16303   5.887  -0.170  14.343  1.4818 -0.3864  0.1853
  136CHL1  H21B16304   5.895   0.009  14.370  0.3578  0.3410 -1.6440
  136CHL1  H21C16305   5.923  -0.109  14.507 -0.1263 -0.3557 -0.0631
  136CHL1   C2216306   6.183  -0.029  14.473  0.2321 -0.7426  0.3750
  136CHL1  H22A16307   6.287  -0.027  14.433  0.2918 -0.6713  0.5378
  136CHL1  H22B16308   6.147   0.074  14.495 -1.8365 -1.7246  1.8775
  136CHL1   C2316309   6.209  -0.099  14.607 -0.4901 -0.1390 -0.2871
  136CHL1  H23A16310   6.114  -0.109  14.663 -1.1691 -0.1051 -1.3939
  136CHL1  H23B16311   6.258  -0.196  14.583  1.7676  0.8949 -0.1494
  136CHL1   C2416312   6.313  -0.045  14.709  0.0385  0.0451 -0.0578
  136CHL1  H24A16313   6.409  -0.031  14.655  0.6154  0.7886  1.1144
  136CHL1  H24B16314   6.291   0.060  14.737  0.1597 -0.0629  0.4543
  136CHL1   C2516315   6.335  -0.130  14.839  0.5622 -0.1314 -0.3561
  136CHL1   H2516316   6.238  -0.154  14.887  0.9884  1.3238  1.3884
  136CHL1   C2616317   6.400  -0.262  14.808 -0.2717  0.1485 -0.1833
  136CHL1  H26A16318   6.331  -0.326  14.749 -2.3889  1.2850  0.9767
  136CHL1  H26B16319   6.501  -0.244  14.765 -0.0677 -2.3981 -0.9403
  136CHL1  H26C16320   6.413  -0.326  14.897 -0.6703 -2.1604 -1.6884
  136CHL1   C2716321   6.412  -0.051  14.936  0.5248 -0.1182  0.1619
  136CHL1  H27A16322   6.422  -0.111  15.029 -1.0099 -1.4332 -0.4656
  136CHL1  H27B16323   6.515  -0.028  14.901 -0.0237 -2.0687 -3.1903
  136CHL1  H27C16324   6.367   0.050  14.945 -0.9581 -0.7414  0.1139
  137CHL1    C316325   0.328   0.298  13.961 -0.5428 -0.4349 -0.2076
  137CHL1    H316326   0.426   0.351  13.965 -0.9839  0.3617  0.3757
  137CHL1    O316327   0.311   0.248  13.828 -0.4283 -0.2640 -0.7119
  137CHL1   H3'16328   0.397   0.222  13.793 -0.0459  1.0840 -0.8676
  137CHL1    C416329   0.331   0.178  14.058 -0.4586  0.3594 -0.3739
  137CHL1   H4A16330   0.240   0.123  14.028  0.4518 -0.1838 -2.2362
  137CHL1   H4B16331   0.420   0.116  14.035 -1.2705 -0.3427 -1.7072
  137CHL1    C516332   0.321   0.226  14.207  0.0784  0.8199 -0.2398
  137CHL1    C616333   0.407   0.181  14.298  0.0140  0.8763  0.0154
  137CHL1    H616334   0.488   0.115  14.265  0.7264  1.5715  0.3565
  137CHL1    C716335   0.389   0.192  14.446 -0.1092  0.2116 -0.2758
  137CHL1   H7A16336   0.403   0.094  14.496 -0.8070  0.0880 -0.3120
  137CHL1   H7B16337   0.473   0.246  14.495 -0.0667 -1.3063  1.4201
  137CHL1    C816338   0.267   0.266  14.489  0.4810 -0.4243 -0.8664
  137CHL1    H816339   0.190   0.186  14.489 -0.7368  0.7156 -1.4823
  137CHL1   C1416340   0.287   0.321  14.630  0.2850  0.5554  0.0088
  137CHL1   H1416341   0.366   0.398  14.617  2.2846 -1.3527  0.2593
  137CHL1   C1516342   0.330   0.223  14.745  0.0040 -0.4300  0.0533
  137CHL1  H15A16343   0.255   0.143  14.764  0.3236 -0.1127  3.1736
  137CHL1  H15B16344   0.426   0.171  14.724  1.2685  1.8183 -0.0353
  137CHL1   C1616345   0.324   0.300  14.874  0.0111 -0.4848 -0.0312
  137CHL1  H16A16346   0.273   0.237  14.950  1.8618 -2.8898 -0.6422
  137CHL1  H16B16347   0.425   0.332  14.909  0.1657 -2.0070  1.0312
  137CHL1   C1716348   0.240   0.431  14.835  0.1320  0.6188 -0.2476
  137CHL1   H1716349   0.309   0.516  14.818  1.5234 -0.5407 -0.5948
  137CHL1   C1316350   0.173   0.401  14.689 -0.2258 -0.3782 -0.3451
  137CHL1   C1816351   0.047   0.314  14.711  0.2912 -0.2461 -0.0393
  137CHL1  H18A16352   0.018   0.259  14.620 -1.0692 -0.3095  0.4193
  137CHL1  H18B16353   0.068   0.255  14.803  0.8906  2.4362  1.6683
  137CHL1  H18C16354  -0.028   0.393  14.734 -1.3148 -1.9115  0.6661
  137CHL1   C1216355   0.148   0.520  14.590  0.1835  0.3997  0.2831
  137CHL1  H12A16356   0.053   0.570  14.621 -0.1745 -1.0234  1.6238
  137CHL1  H12B16357   0.232   0.592  14.600  0.6028  0.1478 -1.2298
  137CHL1   C1116358   0.125   0.473  14.448 -0.6427  0.8601  0.3535
  137CHL1  H11A16359   0.028   0.419  14.440 -0.5936  0.8210 -0.0198
  137CHL1  H11B16360   0.111   0.565  14.386  0.2637  0.1917 -0.8980
  137CHL1    C916361   0.234   0.382  14.392  0.1811  0.0068  0.6353
  137CHL1    H916362   0.324   0.447  14.392 -0.1295  0.4580  1.5330
  137CHL1   C1016363   0.216   0.329  14.246  0.2161 -0.2634 -0.1344
  137CHL1   C1916364   0.084   0.262  14.242  0.3761  0.0774 -0.1594
  137CHL1  H19A16365   0.001   0.333  14.263 -1.6314 -1.8824 -1.1055
  137CHL1  H19B16366   0.059   0.223  14.141 -1.6118  0.4091  0.1507
  137CHL1  H19C16367   0.075   0.175  14.311 -1.9308  0.5796  0.2501
  137CHL1    C116368   0.233   0.443  14.147 -0.3844 -0.1065 -0.5694
  137CHL1   H1A16369   0.155   0.521  14.160 -0.0491  0.0113  0.8844
  137CHL1   H1B16370   0.331   0.494  14.163 -1.0947  0.7539  1.3995
  137CHL1    C216371   0.216   0.395  14.002  0.3561  0.7902 -0.2219
  137CHL1   H2A16372   0.232   0.488  13.942 -0.5847  0.1977 -1.4360
  137CHL1   H2B16373   0.113   0.360  13.979  0.6301 -0.2922  0.1549
  137CHL1   C2016374   0.148   0.468  14.953 -0.2979  0.2996  0.5874
  137CHL1   H2016375   0.068   0.393  14.970 -0.4156  0.3438  0.2398
  137CHL1   C2116376   0.080   0.608  14.924  0.0638  0.4282  0.5541
  137CHL1  H21A16377   0.157   0.688  14.915  1.7596 -1.1133  0.7750
  137CHL1  H21B16378   0.012   0.634  15.008 -2.2369 -1.3573 -0.6727
  137CHL1  H21C16379   0.017   0.609  14.833  1.2574 -0.6260 -0.3098
  137CHL1   C2216380   0.225   0.478  15.084  0.4442 -0.0380 -0.4501
  137CHL1  H22A16381   0.274   0.381  15.104 -0.4216 -0.4674 -0.3903
  137CHL1  H22B16382   0.308   0.549  15.062  1.4516 -0.9988  0.1140
  137CHL1   C2316383   0.139   0.519  15.204 -0.0535  0.0260  0.0415
  137CHL1  H23A16384   0.202   0.515  15.296 -1.9601 -0.1319  1.4068
  137CHL1  H23B16385   0.106   0.625  15.204 -2.7234 -0.7354  0.8282
  137CHL1   C2416386   0.013   0.427  15.225 -0.7335 -0.1739 -0.4689
  137CHL1  H24A16387  -0.069   0.454  15.155 -2.2280 -1.8509  0.5474
  137CHL1  H24B16388   0.051   0.328  15.195 -2.0166 -0.2057 -2.1292
  137CHL1   C2516389  -0.050   0.414  15.366 -0.5020  0.0766 -0.6576
  137CHL1   H2516390   0.017   0.362  15.437 -1.1853  0.0531 -0.0256
  137CHL1   C2616391  -0.094   0.553  15.420 -0.4657 -0.3180 -0.2188
  137CHL1  H26A16392  -0.200   0.573  15.394 -1.1106  0.1087  2.4246
  137CHL1  H26B16393  -0.093   0.566  15.530  0.4164 -1.0402 -0.1273
  137CHL1  H26C16394  -0.023   0.631  15.383  0.9587 -1.4739 -0.0222
  137CHL1   C2716395  -0.175   0.319  15.368 -0.3957 -0.3204  0.6088
  137CHL1  H27A16396  -0.205   0.296  15.472  1.7844 -0.6047  1.2198
  137CHL1  H27B16397  -0.252   0.363  15.302 -0.1952  0.2270  0.7326
  137CHL1  H27C16398  -0.166   0.217  15.324  3.2547 -0.5137  1.4726
  138CHL1    C316399   6.643   7.621  13.557 -0.4475 -0.1162 -0.2233
  138CHL1    H316400   6.606   7.721  13.588 -0.0145  0.1357 -0.5134
  138CHL1    O316401   6.624   7.608  13.414 -0.2989 -0.4020 -0.3972
  138CHL1   H3'16402   6.641   7.694  13.374  1.3827 -1.1055 -1.2733
  138CHL1    C416403   6.788   7.602  13.593  1.1064  0.6019  0.1915
  138CHL1   H4A16404   6.840   7.514  13.550  2.1964  0.6134  1.4231
  138CHL1   H4B16405   6.848   7.681  13.543  0.9875 -0.2355 -1.3284
  138CHL1    C516406   6.811   7.599  13.737  0.4196 -0.5045 -0.6365
  138CHL1    C616407   6.908   7.678  13.790  0.5578  0.3990  1.0326
  138CHL1    H616408   6.958   7.750  13.724  0.0311  0.2507  0.4608
  138CHL1    C716409   6.939   7.680  13.940 -0.0830  0.1199  0.4540
  138CHL1   H7A16410   7.049   7.696  13.946 -0.2843  1.9286 -0.0220
  138CHL1   H7B16411   6.882   7.766  13.981  0.0893 -0.6194  2.3410
  138CHL1    C816412   6.892   7.550  14.008 -0.0767 -0.6663  0.3171
  138CHL1    H816413   6.953   7.464  13.973 -0.8680 -1.4878  0.8888
  138CHL1   C1416414   6.904   7.567  14.157 -0.0488 -0.2344 -0.1073
  138CHL1   H1416415   6.843   7.657  14.176  1.4545  0.9919 -0.8980
  138CHL1   C1516416   7.040   7.615  14.208  0.1314  0.1013 -0.6548
  138CHL1  H15A16417   7.119   7.552  14.161 -0.4791 -1.4182  0.2757
  138CHL1  H15B16418   7.061   7.720  14.177  2.0705 -0.9715 -3.4165
  138CHL1   C1616419   7.031   7.585  14.358  0.6361 -0.1169  0.0127
  138CHL1  H16A16420   7.113   7.514  14.381  2.5087  2.1438  0.8525
  138CHL1  H16B16421   7.052   7.676  14.419  1.2157  0.4791 -1.0411
  138CHL1   C1716422   6.891   7.519  14.387 -0.1987  0.4012 -0.2315
  138CHL1   H1716423   6.820   7.604  14.397  1.1178  1.4752  0.5275
  138CHL1   C1316424   6.856   7.456  14.248 -0.5688  0.2213 -0.0003
  138CHL1   C1816425   6.946   7.328  14.229  0.4574  0.2576 -0.1517
  138CHL1  H18A16426   7.054   7.349  14.216  1.0622 -1.2255  1.9216
  138CHL1  H18B16427   6.928   7.254  14.310 -2.4956  0.1102 -0.8220
  138CHL1  H18C16428   6.911   7.268  14.143  2.0257  1.1032 -1.4347
  138CHL1   C1216429   6.707   7.442  14.217 -0.2262  0.0709  0.0242
  138CHL1  H12A16430   6.656   7.356  14.266  0.0552  0.8641  1.7747
  138CHL1  H12B16431   6.655   7.531  14.257 -2.0145 -1.5722  1.5156
  138CHL1   C1116432   6.677   7.416  14.069 -0.5046  0.5752  0.5979
  138CHL1  H11A16433   6.704   7.310  14.047 -2.1756  0.2665 -0.1122
  138CHL1  H11B16434   6.567   7.413  14.059 -0.4842 -2.5878  0.4020
  138CHL1    C916435   6.741   7.526  13.974  0.0674  0.3468  0.0485
  138CHL1    H916436   6.675   7.614  13.994  0.2016  0.6131 -0.6499
  138CHL1   C1016437   6.725   7.505  13.820  0.3020  0.4495  0.3392
  138CHL1   C1916438   6.782   7.368  13.780 -0.2035 -0.3006  0.7071
  138CHL1  H19A16439   6.729   7.281  13.825 -0.7062 -0.5884 -0.4298
  138CHL1  H19B16440   6.780   7.338  13.673  2.7598 -1.8233  0.9576
  138CHL1  H19C16441   6.888   7.355  13.812  0.0021 -0.5608 -0.0608
  138CHL1    C116442   6.572   7.516  13.778  0.5320  0.3857  0.1947
  138CHL1   H1A16443   6.516   7.446  13.843  0.5534 -0.1153 -0.3168
  138CHL1   H1B16444   6.534   7.615  13.811  0.5655  0.1515  0.9370
  138CHL1    C216445   6.552   7.517  13.624 -0.4049  0.5992  0.1010
  138CHL1   H2A16446   6.446   7.528  13.592 -0.6329 -3.3721 -1.0698
  138CHL1   H2B16447   6.580   7.421  13.576 -1.8108  1.3812 -2.5231
  138CHL1   C2016448   6.881   7.425  14.520  0.4509 -0.0230  0.5878
  138CHL1   H2016449   6.947   7.337  14.506 -0.9028 -1.1893  1.2268
  138CHL1   C2116450   6.737   7.377  14.556 -0.4216 -0.0032  0.7652
  138CHL1  H21A16451   6.739   7.321  14.653  1.4085  0.9308  1.3052
  138CHL1  H21B16452   6.721   7.303  14.476 -0.0808  1.1093 -0.3549
  138CHL1  H21C16453   6.652   7.449  14.559 -1.0634 -0.7624  1.8150
  138CHL1   C2216454   6.939   7.505  14.640 -0.0517 -0.4241  0.1003
  138CHL1  H22A16455   7.010   7.585  14.608 -1.3059  1.0524  0.8863
  138CHL1  H22B16456   6.853   7.568  14.671 -0.8169 -1.0190 -0.7482
  138CHL1   C2316457   6.984   7.424  14.762  0.3042 -0.3726 -0.2969
  138CHL1  H23A16458   6.925   7.332  14.781  1.3789 -0.5694  2.7377
  138CHL1  H23B16459   7.082   7.384  14.730  0.1464 -2.0033  1.1041
  138CHL1   C2416460   6.996   7.482  14.894  0.0930 -0.0818  0.1838
  138CHL1  H24A16461   7.051   7.425  14.971 -1.7494  1.2217  2.6064
  138CHL1  H24B16462   7.040   7.582  14.872  1.0640 -0.5463 -0.0390
  138CHL1   C2516463   6.864   7.526  14.958 -0.1756 -0.0418  0.4510
  138CHL1   H2516464   6.806   7.574  14.876 -1.1966  0.4954  1.4665
  138CHL1   C2616465   6.789   7.404  15.009 -0.0224 -0.0157 -0.2313
  138CHL1  H26A16466   6.835   7.363  15.101 -0.1940 -1.1777 -0.6495
  138CHL1  H26B16467   6.683   7.422  15.036  0.0693 -1.7940  1.5115
  138CHL1  H26C16468   6.785   7.323  14.933  0.9417  0.0498 -0.3704
  138CHL1   C2716469   6.889   7.630  15.068 -0.6203  0.2416 -0.2813
  138CHL1  H27A16470   6.931   7.580  15.158  2.7174  1.1442 -1.1803
  138CHL1  H27B16471   6.965   7.701  15.029  0.1540  0.6235  1.8144
  138CHL1  H27C16472   6.794   7.681  15.094 -0.5431  0.2942 -0.1048
  139CHL1    C316473   7.149   5.563  13.656  0.6460  0.3035  0.5914
  139CHL1    H316474   7.174   5.456  13.644 -0.1204  0.0205  1.4583
  139CHL1    O316475   7.212   5.642  13.550 -0.3837 -0.0468  0.0132
  139CHL1   H3'16476   7.168   5.727  13.549 -0.1230  0.0873 -0.1403
  139CHL1    C416477   6.998   5.593  13.657 -0.3289 -0.0736 -0.5481
  139CHL1   H4A16478   6.988   5.700  13.684 -0.9007  0.4626 -2.7226
  139CHL1   H4B16479   6.959   5.572  13.555 -1.4427  1.8909 -0.5656
  139CHL1    C516480   6.931   5.507  13.760  0.0207 -0.4687 -0.3897
  139CHL1    C616481   6.846   5.412  13.724  0.4353 -0.0498 -0.2548
  139CHL1    H616482   6.827   5.398  13.617 -2.0319  1.3597 -0.0687
  139CHL1    C716483   6.775   5.321  13.823 -0.1143  0.2337  0.0609
  139CHL1   H7A16484   6.673   5.286  13.798  0.3069 -1.8996  1.0992
  139CHL1   H7B16485   6.838   5.229  13.828  0.9221  0.9018 -0.3681
  139CHL1    C816486   6.773   5.374  13.974 -0.1796  0.5157 -0.9793
  139CHL1    H816487   6.695   5.451  13.991  0.7099  0.7916  2.5757
  139CHL1   C1416488   6.752   5.256  14.064 -0.0629 -0.5717 -0.5866
  139CHL1   H1416489   6.839   5.189  14.052  0.1612 -0.3694 -0.1308
  139CHL1   C1516490   6.637   5.157  14.044 -0.6011  0.2183 -0.6158
  139CHL1  H15A16491   6.541   5.208  14.020 -1.1595 -0.8696 -0.7545
  139CHL1  H15B16492   6.636   5.072  13.972 -1.9306 -2.0593  1.8543
  139CHL1   C1616493   6.624   5.086  14.182 -0.2450  0.4177  0.1246
  139CHL1  H16A16494   6.521   5.099  14.221  0.0985 -0.7433  1.4938
  139CHL1  H16B16495   6.654   4.981  14.162  2.2691  1.0450  0.2564
  139CHL1   C1716496   6.719   5.155  14.274  0.2112  0.2072 -0.2902
  139CHL1   H1716497   6.822   5.112  14.265 -0.2521 -1.1960  0.7445
  139CHL1   C1316498   6.750   5.291  14.216 -0.4397  0.1809 -0.2476
  139CHL1   C1816499   6.634   5.389  14.242 -0.3743 -0.1572 -0.0708
  139CHL1  H18A16500   6.533   5.362  14.202 -0.1268 -0.0291 -0.8072
  139CHL1  H18B16501   6.616   5.394  14.351 -0.2101 -1.4444  0.0390
  139CHL1  H18C16502   6.670   5.486  14.202  2.0147 -1.9442 -2.7101
  139CHL1   C1216503   6.886   5.362  14.245  0.0381 -1.2783  0.3126
  139CHL1  H12A16504   6.891   5.393  14.351  1.1941  0.3886 -0.1900
  139CHL1  H12B16505   6.964   5.284  14.230 -1.1204 -2.2488 -0.9625
  139CHL1   C1116506   6.923   5.479  14.153 -0.4921 -0.8956  0.5278
  139CHL1  H11A16507   6.869   5.574  14.175  0.2669  0.0313 -1.3692
  139CHL1  H11B16508   7.030   5.499  14.175 -1.1857  1.7576  2.0639
  139CHL1    C916509   6.913   5.440  14.008 -0.3349  0.3571  0.6359
  139CHL1    H916510   6.987   5.357  14.010  1.8132  2.1491 -0.1703
  139CHL1   C1016511   6.964   5.547  13.910  0.2530  0.6016  0.3376
  139CHL1   C1916512   6.905   5.685  13.937 -0.1831 -0.1071  0.0454
  139CHL1  H19A16513   6.932   5.769  13.869 -1.4448 -1.4176 -2.1931
  139CHL1  H19B16514   6.795   5.686  13.948 -0.1168 -1.1271  1.0476
  139CHL1  H19C16515   6.935   5.710  14.041  0.4806  0.3907 -0.2542
  139CHL1    C116516   7.126   5.550  13.913  0.3044 -0.0013 -0.0946
  139CHL1   H1A16517   7.146   5.604  14.008 -2.2640 -0.9913  1.1290
  139CHL1   H1B16518   7.150   5.442  13.920  1.2608  0.3257  3.5253
  139CHL1    C216519   7.204   5.609  13.794  0.3946  0.6199  0.1965
  139CHL1   H2A16520   7.311   5.581  13.805  0.8567  2.6315  1.2191
  139CHL1   H2B16521   7.190   5.719  13.788  0.1025  0.6129  0.7262
  139CHL1   C2016522   6.682   5.135  14.420 -0.2051  0.3349 -0.4391
  139CHL1   H2016523   6.590   5.193  14.439 -0.5509 -0.8014  1.6339
  139CHL1   C2116524   6.794   5.172  14.509  0.0831  0.1907  0.2866
  139CHL1  H21A16525   6.885   5.115  14.480 -0.3626  0.0901 -0.9622
  139CHL1  H21B16526   6.775   5.154  14.617 -1.5480 -0.8359 -0.1262
  139CHL1  H21C16527   6.808   5.282  14.515  0.0826  0.1785  0.5175
  139CHL1   C2216528   6.653   4.982  14.447  0.2716 -0.2429 -0.3524
  139CHL1  H22A16529   6.556   4.951  14.401  0.3847  0.6100 -1.1989
  139CHL1  H22B16530   6.734   4.924  14.399 -0.6068 -0.1324 -2.0667
  139CHL1   C2316531   6.640   4.925  14.591  0.8089 -0.0171 -0.2280
  139CHL1  H23A16532   6.619   4.816  14.584 -1.2827  0.2250  1.1179
  139CHL1  H23B16533   6.734   4.930  14.650 -0.2647 -0.2864  1.6166
  139CHL1   C2416534   6.536   4.986  14.677  0.3335 -0.3757 -0.0967
  139CHL1  H24A16535   6.551   5.096  14.688  2.2470 -0.4520 -1.5034
  139CHL1  H24B16536   6.438   4.964  14.631  0.5773 -1.4646 -0.1172
  139CHL1   C2516537   6.532   4.920  14.815 -0.2052  0.5138 -0.0601
  139CHL1   H2516538   6.636   4.890  14.840 -0.9650 -1.3619  1.0733
  139CHL1   C2616539   6.486   5.020  14.924 -0.2325  0.1912 -0.0249
  139CHL1  H26A16540   6.504   4.974  15.024 -0.1350  0.6327  0.1603
  139CHL1  H26B16541   6.539   5.114  14.902  1.1476 -1.2041 -3.3190
  139CHL1  H26C16542   6.377   5.042  14.924 -0.0066  1.4761 -1.4573
  139CHL1   C2716543   6.459   4.780  14.815  0.1027  0.7364  0.5085
  139CHL1  H27A16544   6.496   4.722  14.728 -2.9113 -0.6568  0.0067
  139CHL1  H27B16545   6.458   4.725  14.911  3.9291  1.2653  0.9962
  139CHL1  H27C16546   6.355   4.816  14.796 -0.7031 -0.3403  2.5560
  140CHL1    C316547   6.301   7.122  13.547 -0.4791 -0.1495 -0.3186
  140CHL1    H316548   6.409   7.121  13.521 -1.0089  2.0900 -3.1208
  140CHL1    O316549   6.236   7.143  13.429  0.3713 -0.2256  0.2443
  140CHL1   H3'16550   6.281   7.220  13.395 -0.3345 -0.6114 -1.6723
  140CHL1    C416551   6.252   6.993  13.601 -0.3623  0.5039  0.3557
  140CHL1   H4A16552   6.142   6.979  13.603 -0.5568  2.0154  1.7950
  140CHL1   H4B16553   6.282   6.910  13.533  1.0496 -0.8515  2.5015
  140CHL1    C516554   6.311   6.965  13.739 -0.4676  0.0724  0.8076
  140CHL1    C616555   6.401   6.867  13.763 -0.8973 -0.3069  0.5573
  140CHL1    H616556   6.431   6.798  13.683  0.0449  0.4541  0.2429
  140CHL1    C716557   6.457   6.845  13.903 -0.6698 -0.1428  0.5574
  140CHL1   H7A16558   6.468   6.739  13.934 -0.0425 -0.0242  0.7547
  140CHL1   H7B16559   6.563   6.878  13.899 -0.7743  0.2056  0.6083
  140CHL1    C816560   6.376   6.919  14.014 -0.1553 -0.3297 -0.4953
  140CHL1    H816561   6.281   6.864  14.032 -0.4022  0.5204  1.0117
  140CHL1   C1416562   6.449   6.922  14.152 -0.5686 -0.4805 -0.7611
  140CHL1   H1416563   6.536   6.989  14.138  0.8122 -2.1761 -0.6137
  140CHL1   C1516564   6.490   6.785  14.207 -0.2965  0.3966 -0.2294
  140CHL1  H15A16565   6.414   6.710  14.176  0.3050  0.0300 -0.8708
  140CHL1  H15B16566   6.588   6.761  14.159 -0.7315 -1.4079 -0.3145
  140CHL1   C1616567   6.489   6.797  14.360 -0.0471 -0.6018 -0.5776
  140CHL1  H16A16568   6.425   6.717  14.402  0.8024 -0.0570  1.8995
  140CHL1  H16B16569   6.593   6.779  14.395 -0.5370  1.2388  2.1398
  140CHL1   C1716570   6.434   6.939  14.389 -0.3298 -0.6684 -0.0658
  140CHL1   H1716571   6.524   7.004  14.385 -0.3352 -0.1966  3.5380
  140CHL1   C1316572   6.362   6.980  14.263 -0.3705 -0.0195  0.1290
  140CHL1   C1816573   6.225   6.896  14.264 -0.0547 -0.3884  0.7122
  140CHL1  H18A16574   6.155   6.931  14.185 -1.5852 -1.6509  1.4406
  140CHL1  H18B16575   6.249   6.789  14.249 -0.1072 -0.1128 -1.5579
  140CHL1  H18C16576   6.174   6.894  14.363 -1.0199 -1.0743  0.2159
  140CHL1   C1216577   6.348   7.128  14.245  0.6118  0.4276  0.1250
  140CHL1  H12A16578   6.274   7.154  14.323 -0.8584 -0.7080 -0.8330
  140CHL1  H12B16579   6.441   7.188  14.239  0.6632  0.2333 -1.3804
  140CHL1   C1116580   6.280   7.152  14.108 -0.6990 -0.0553  0.5235
  140CHL1  H11A16581   6.170   7.137  14.119 -0.4562 -3.2215 -0.3318
  140CHL1  H11B16582   6.288   7.261  14.084 -0.1226 -0.1821  0.1046
  140CHL1    C916583   6.342   7.067  13.984 -0.2455  0.3104  0.3345
  140CHL1    H916584   6.443   7.110  13.967  0.1568 -1.4931 -2.4578
  140CHL1   C1016585   6.274   7.079  13.842 -1.0213  0.7888  0.0547
  140CHL1   C1916586   6.124   7.071  13.859 -0.3537  0.5481  0.8542
  140CHL1  H19A16587   6.059   7.073  13.769 -1.0940 -0.7635  1.3394
  140CHL1  H19B16588   6.097   6.976  13.910  0.1677  0.5558  1.1556
  140CHL1  H19C16589   6.094   7.153  13.928  1.7180  1.3196  0.9071
  140CHL1    C116590   6.311   7.214  13.786 -0.1326 -0.5616  0.3118
  140CHL1   H1A16591   6.282   7.298  13.852  0.4029  0.5736 -0.8621
  140CHL1   H1B16592   6.421   7.222  13.792  0.0871 -1.6241 -1.4309
  140CHL1    C216593   6.268   7.237  13.636 -0.9644  0.6644  0.2235
  140CHL1   H2A16594   6.287   7.338  13.595 -1.6212  1.4472  1.7461
  140CHL1   H2B16595   6.159   7.257  13.643 -0.4147  3.5158  2.3181
  140CHL1   C2016596   6.390   6.976  14.538 -0.1039  0.4039 -0.0609
  140CHL1   H2016597   6.290   6.927  14.544  0.2344 -0.2902  0.0823
  140CHL1   C2116598   6.366   7.120  14.570 -0.1218  0.1306 -0.0639
  140CHL1  H21A16599   6.350   7.134  14.679 -0.4664  1.5697 -0.2895
  140CHL1  H21B16600   6.269   7.159  14.532 -0.5484  0.4952  1.3694
  140CHL1  H21C16601   6.455   7.186  14.559  0.7485 -0.7643  1.3021
  140CHL1   C2216602   6.486   6.913  14.637 -0.5444  0.3879  0.4282
  140CHL1  H22A16603   6.453   6.918  14.743 -1.0117 -1.9208  0.4440
  140CHL1  H22B16604   6.482   6.803  14.620 -0.4751  0.4410  0.0679
  140CHL1   C2316605   6.620   6.975  14.627 -0.2905  0.1599  0.3565
  140CHL1  H23A16606   6.673   6.969  14.530 -0.3986  0.6963  0.2565
  140CHL1  H23B16607   6.617   7.086  14.639 -0.5604  0.2230 -0.2296
  140CHL1   C2416608   6.714   6.911  14.733 -0.3111 -0.5390 -0.3158
  140CHL1  H24A16609   6.667   6.910  14.834 -0.4557  1.2945 -0.3429
  140CHL1  H24B16610   6.748   6.808  14.708  1.1559 -0.0896 -0.2132
  140CHL1   C2516611   6.837   7.005  14.750 -0.5376  0.0250  0.7318
  140CHL1   H2516612   6.804   7.099  14.799  4.8485  1.5741  2.1302
  140CHL1   C2616613   6.915   7.049  14.619  0.3090  0.7404 -0.0248
  140CHL1  H26A16614   6.972   6.960  14.584  0.5604  0.8873  0.0043
  140CHL1  H26B16615   6.857   7.091  14.534  1.0444  0.2274 -0.7981
  140CHL1  H26C16616   6.996   7.122  14.643  0.0191  0.5704  1.5656
  140CHL1   C2716617   6.948   6.953  14.845 -0.0654  0.1244 -0.5735
  140CHL1  H27A16618   6.911   6.926  14.947  0.8934  2.5605  0.5016
  140CHL1  H27B16619   6.989   6.856  14.809  3.4623  0.1943  2.6146
  140CHL1  H27C16620   7.023   7.034  14.857  0.7300 -0.5608 -0.8511
  141DOPC     N16621   3.154   2.276  17.494 -0.4064  0.6370 -0.2053
  141DOPC   C1216622   3.129   2.399  17.411 -0.2488  0.3290  0.2424
  141DOPC  H12A16623   3.218   2.459  17.399  0.0835 -0.0453  0.7753
  141DOPC  H12B16624   3.075   2.473  17.469 -0.7475 -1.2990  1.9642
  141DOPC   C1316625   3.035   2.190  17.481  0.2543  0.2299 -0.0020
  141DOPC  H13A16626   2.942   2.220  17.526 -0.8097 -0.2953 -1.7572
  141DOPC  H13B16627   3.008   2.175  17.377  1.7225  1.5829 -0.6121
  141DOPC  H13C16628   3.056   2.090  17.518  0.1094 -0.8446 -2.5875
  141DOPC   C1416629   3.161   2.313  17.642 -0.4962  0.0777  0.1900
  141DOPC  H14A16630   3.069   2.360  17.674 -0.0312  0.2461  1.3125
  141DOPC  H14B16631   3.178   2.230  17.709 -2.8804 -0.2472  0.4767
  141DOPC  H14C16632   3.235   2.389  17.658 -0.4027  0.4146 -1.6178
  141DOPC   C1516633   3.285   2.207  17.471  0.1381  0.0879 -0.0416
  141DOPC  H15A16634   3.374   2.264  17.490  2.6580 -3.5338  0.0284
  141DOPC  H15B16635   3.299   2.180  17.368  3.3220 -2.4601  0.8879
  141DOPC  H15C16636   3.296   2.115  17.528  0.9951  0.8171  1.0243
  141DOPC   C1116637   3.065   2.383  17.268 -0.2186  0.1477  0.2187
  141DOPC  H11A16638   2.971   2.324  17.265  1.1803 -2.2101 -1.7137
  141DOPC  H11B16639   3.048   2.483  17.223 -1.3417 -0.5478 -0.9693
  141DOPC     P16640   3.134   2.187  17.097 -0.2406  0.0954  0.3949
  141DOPC   O1316641   3.045   2.095  17.163 -0.0914 -0.2203 -0.2598
  141DOPC   O1416642   3.258   2.124  17.047 -0.6492  0.1251 -0.3373
  141DOPC   O1216643   3.167   2.312  17.188  0.7784 -0.0960 -0.7718
  141DOPC   O1116644   3.056   2.261  16.978  0.8890 -0.0582  0.0229
  141DOPC    C116645   3.132   2.354  16.898  0.3940  0.5518  1.4472
  141DOPC    HA16646   3.231   2.311  16.871 -0.9880 -0.8160 -2.1032
  141DOPC    HB16647   3.136   2.452  16.949  0.4182  0.7828  0.9989
  141DOPC    C216648   3.050   2.372  16.760 -0.3557  0.1917 -0.0817
  141DOPC    HS16649   2.948   2.398  16.794  0.2403  1.9901  0.4047
  141DOPC   O2116650   3.069   2.245  16.685 -0.0106  0.1138  0.0441
  141DOPC   C2116651   2.961   2.214  16.614 -0.7914  0.8149  0.3899
  141DOPC   O2216652   2.860   2.283  16.612 -0.2723 -0.1231  0.4969
  141DOPC   C2216653   2.979   2.085  16.537 -0.3279 -0.0765  0.2655
  141DOPC   H2R16654   2.894   2.079  16.465 -0.1733 -0.9650  0.1454
  141DOPC   H2S16655   2.978   1.997  16.603  0.8591  0.3065  0.8199
  141DOPC    C316656   3.131   2.486  16.680  0.2119  0.3971 -0.3584
  141DOPC    HX16657   3.237   2.454  16.690 -0.2407 -1.8810 -2.0204
  141DOPC    HY16658   3.121   2.584  16.730  0.3976  0.4462 -0.4187
  141DOPC   O3116659   3.104   2.499  16.538  0.1422 -0.1543 -0.0488
  141DOPC   C3116660   2.977   2.545  16.523  0.5715  1.1382  0.2930
  141DOPC   O3216661   2.908   2.588  16.609  0.1411 -0.3772 -0.8906
  141DOPC   C3216662   2.940   2.525  16.370 -0.5949 -0.3590 -0.1869
  141DOPC   H2X16663   3.020   2.579  16.314 -0.5978 -1.1277 -0.9532
  141DOPC   H2Y16664   2.946   2.417  16.345  2.4509 -0.3055 -0.0450
  141DOPC   C2316665   3.106   2.083  16.452  0.2313 -0.1951 -0.4236
  141DOPC   H3R16666   3.112   1.983  16.404  2.4461  0.8998 -2.6430
  141DOPC   H3S16667   3.191   2.083  16.524  0.2662 -3.5293 -0.3236
  141DOPC   C2416668   3.136   2.179  16.336  0.7219  0.3017 -0.6905
  141DOPC   H4R16669   3.233   2.150  16.290  0.1695 -1.6952 -0.7281
  141DOPC   H4S16670   3.161   2.280  16.375  0.2178 -0.4500  1.8157
  141DOPC   C2516671   3.032   2.183  16.225 -0.1538  0.1337  0.2647
  141DOPC   H5R16672   3.042   2.273  16.161 -2.6316 -0.1221 -0.6039
  141DOPC   H5S16673   2.930   2.191  16.270 -0.3837  1.8608 -0.4728
  141DOPC   C2616674   3.022   2.051  16.146  0.3025 -0.6299 -0.1198
  141DOPC   H6R16675   2.989   1.973  16.218  2.2480 -1.0280  0.4211
  141DOPC   H6S16676   3.120   2.018  16.105  0.1124 -0.5431 -0.6452
  141DOPC   C2716677   2.940   2.062  16.021  0.2715 -0.4715 -0.6728
  141DOPC   H7R16678   2.971   2.154  15.966  1.1580  0.7243  1.6791
  141DOPC   H7S16679   2.833   2.082  16.043 -0.7932 -2.4667 -3.3878
  141DOPC   C2816680   2.955   1.951  15.915 -0.4469 -0.2557 -0.5737
  141DOPC   H8R16681   2.932   1.854  15.965  2.7142  0.4356  2.6256
  141DOPC   H8S16682   3.064   1.942  15.895 -0.1861  0.4914  0.4457
  141DOPC   C2916683   2.906   1.984  15.780 -0.2486  0.3162 -0.0943
  141DOPC   H9R16684   2.968   2.063  15.736  1.0521 -1.5054 -1.6980
  141DOPC  C21016685   2.802   1.937  15.711 -0.4057  0.4887 -0.5364
  141DOPC  H10R16686   2.787   1.976  15.609 -0.2795  1.4649 -0.1894
  141DOPC  C21116687   2.702   1.840  15.773 -0.8705  0.0421 -0.5153
  141DOPC  H11R16688   2.617   1.892  15.822  0.4659  1.1637  0.7169
  141DOPC  H11S16689   2.752   1.783  15.853  2.2378 -0.3827 -2.5694
  141DOPC  C21216690   2.651   1.745  15.664  0.8574  0.4204  0.6517
  141DOPC  H12R16691   2.606   1.662  15.722 -0.1981  0.9815  0.6634
  141DOPC  H12S16692   2.740   1.701  15.615  0.4915  1.4050 -0.9813
  141DOPC  C21316693   2.544   1.795  15.566 -0.1065 -0.9455  0.7434
  141DOPC  H13R16694   2.564   1.899  15.534 -3.6555 -0.3638 -0.0278
  141DOPC  H13S16695   2.449   1.796  15.624  0.2678 -0.6992  1.3509
  141DOPC  C21416696   2.513   1.698  15.454  0.4171  0.4834 -0.2520
  141DOPC  H14R16697   2.495   1.597  15.497  1.0322  0.4635 -0.0446
  141DOPC  H14S16698   2.598   1.690  15.383 -0.5119  1.3767 -1.5197
  141DOPC  C21516699   2.387   1.739  15.369 -0.4955 -0.2524 -0.1773
  141DOPC  H15R16700   2.388   1.846  15.339  1.8577  0.7529  2.9597
  141DOPC  H15S16701   2.298   1.721  15.431  0.0410 -0.1883  0.6255
  141DOPC  C21616702   2.387   1.657  15.242  0.1280  0.7911  0.3474
  141DOPC  H16R16703   2.416   1.551  15.260 -2.2371 -0.0376 -0.2784
  141DOPC  H16S16704   2.473   1.699  15.186 -1.5147  1.2508 -1.9714
  141DOPC  C21716705   2.260   1.653  15.156 -0.0599  0.6230 -0.1039
  141DOPC  H17R16706   2.227   1.755  15.129 -1.7626 -0.1468 -1.0865
  141DOPC  H17S16707   2.175   1.613  15.215  0.7394  1.0145  1.3506
  141DOPC  C21816708   2.283   1.565  15.030 -0.0805  0.0568  0.2468
  141DOPC  H18R16709   2.387   1.591  14.999  0.0709  0.0492  0.7339
  141DOPC  H18S16710   2.205   1.576  14.952 -0.7187  0.5073  0.9253
  141DOPC  H18T16711   2.288   1.457  15.054  1.0088 -0.2109 -1.0233
  141DOPC   C3316712   2.801   2.586  16.345  0.3864  0.0241 -0.3050
  141DOPC   H3X16713   2.816   2.694  16.323  0.3886  0.6215  2.3394
  141DOPC   H3Y16714   2.725   2.586  16.427 -0.4979  1.3515 -1.0917
  141DOPC   C3416715   2.746   2.525  16.214  0.0052  0.7413  0.3541
  141DOPC   H4X16716   2.653   2.575  16.181  0.3834  0.2703 -1.5720
  141DOPC   H4Y16717   2.735   2.416  16.232 -2.0167  0.8802  0.0894
  141DOPC   C3516718   2.850   2.559  16.099 -0.3552  0.6814  0.0223
  141DOPC   H5X16719   2.945   2.502  16.108 -0.0429  0.1519 -4.5882
  141DOPC   H5Y16720   2.862   2.669  16.098 -2.5845  0.9697 -1.3813
  141DOPC   C3616721   2.791   2.516  15.966  0.5376 -0.8985 -0.5520
  141DOPC   H6X16722   2.790   2.405  15.956 -1.2871 -1.6756  4.9281
  141DOPC   H6Y16723   2.688   2.556  15.950  1.3064  0.9123 -1.3216
  141DOPC   C3716724   2.880   2.577  15.849  0.2746  0.3427 -0.3624
  141DOPC   H7X16725   2.877   2.687  15.864 -1.8109 -0.0543  3.5706
  141DOPC   H7Y16726   2.990   2.559  15.855  0.7923  2.4700 -2.1379
  141DOPC   C3816727   2.824   2.548  15.708  0.3321  0.4134  0.8867
  141DOPC   H8X16728   2.882   2.617  15.643  0.3252  0.4180  0.8863
  141DOPC   H8Y16729   2.720   2.586  15.702  0.5843  1.0210  0.1791
  141DOPC   C3916730   2.833   2.398  15.672  0.1062  0.4208 -0.2584
  141DOPC   H9X16731   2.778   2.332  15.741 -1.3364  0.6597 -1.1400
  141DOPC  C31016732   2.873   2.351  15.557  0.8511 -0.8269 -0.4656
  141DOPC  H10X16733   2.856   2.246  15.528 -2.5920 -0.2369 -1.0773
  141DOPC  C31116734   2.937   2.432  15.449 -0.3909 -0.4584  0.0546
  141DOPC  H11X16735   2.962   2.530  15.495  1.1895 -2.1070  3.0420
  141DOPC  H11Y16736   2.883   2.469  15.359  0.3854 -0.3688 -0.3758
  141DOPC  C31216737   3.070   2.371  15.403 -0.1827  0.1927  0.5847
  141DOPC  H12X16738   3.048   2.273  15.354  1.4791 -0.4774  1.1076
  141DOPC  H12Y16739   3.144   2.341  15.480  2.8696 -0.1947 -2.2301
  141DOPC  C31316740   3.137   2.468  15.303 -0.0248 -0.2464 -0.0161
  141DOPC  H13X16741   3.069   2.502  15.223  0.6443 -0.3222 -0.6226
  141DOPC  H13Y16742   3.168   2.555  15.365  0.8668  0.2110 -1.0746
  141DOPC  C31416743   3.263   2.402  15.252  0.4507 -0.0140  0.2290
  141DOPC  H14X16744   3.327   2.368  15.336  0.7755  0.1858  0.0613
  141DOPC  H14Y16745   3.222   2.312  15.202 -0.0209 -0.2444  1.0150
  141DOPC  C31516746   3.352   2.496  15.168  0.0335  0.0976  0.0855
  141DOPC  H15X16747   3.375   2.583  15.233 -1.0141 -0.3314  1.0711
  141DOPC  H15Y16748   3.282   2.524  15.086 -0.5194  1.0808  0.8697
  141DOPC  C31616749   3.479   2.428  15.121  0.3282  0.1573 -0.4377
  141DOPC  H16X16750   3.562   2.502  15.110  0.1569  0.4525  0.2177
  141DOPC  H16Y16751   3.506   2.352  15.197 -1.5423  0.0069  0.0997
  141DOPC  C31716752   3.478   2.366  14.983  0.8451 -0.1725  0.1143
  141DOPC  H17X16753   3.408   2.280  14.986  0.8804 -0.1783  1.0905
  141DOPC  H17Y16754   3.448   2.433  14.900  1.0688 -0.6159 -0.3267
  141DOPC  C31816755   3.608   2.303  14.938 -0.1454 -0.7612  0.2082
  141DOPC  H18X16756   3.606   2.269  14.833  0.1489  2.8694 -1.0900
  141DOPC  H18Y16757   3.697   2.369  14.946 -0.0667 -0.7417 -0.7147
  141DOPC  H18Z16758   3.632   2.213  15.000  1.5906 -1.7069 -1.7328
  142DOPC     N16759   2.867   3.087  17.339 -0.1247 -0.3278  0.7549
  142DOPC   C1216760   2.856   3.130  17.197  0.0375  1.3073 -0.0571
  142DOPC  H12A16761   2.859   3.237  17.188  0.8696  1.3211  0.2895
  142DOPC  H12B16762   2.760   3.093  17.166  1.2805 -2.7769  0.3859
  142DOPC   C1316763   2.888   2.937  17.359  0.5664 -0.4955 -0.5029
  142DOPC  H13A16764   2.895   2.905  17.462  0.2705 -0.9081 -0.6104
  142DOPC  H13B16765   2.803   2.890  17.311 -0.4980  0.4398  0.3786
  142DOPC  H13C16766   2.977   2.912  17.304  2.4392 -1.4520  2.7204
  142DOPC   C1416767   2.736   3.123  17.405 -0.1430 -1.2965  0.7102
  142DOPC  H14A16768   2.729   3.093  17.508  0.5204  0.0413  1.1744
  142DOPC  H14B16769   2.729   3.231  17.398 -0.4837 -1.3500  0.1046
  142DOPC  H14C16770   2.653   3.085  17.347  1.3494 -0.3085 -2.2932
  142DOPC   C1516771   2.976   3.159  17.417 -0.4763  0.0305  0.8969
  142DOPC  H15A16772   2.994   3.116  17.514 -0.8416  0.9029  1.3587
  142DOPC  H15B16773   2.963   3.264  17.438  0.4291 -0.1407  2.4825
  142DOPC  H15C16774   3.069   3.151  17.363 -0.3284 -0.6732  1.2378
  142DOPC   C1116775   2.963   3.086  17.094  0.7906  0.3626  0.1228
  142DOPC  H11A16776   2.950   2.977  17.077 -0.8860  0.4701  0.5422
  142DOPC  H11B16777   2.948   3.146  17.002 -0.5947 -1.0929 -0.6362
  142DOPC     P16778   3.164   3.253  17.119 -0.2033 -0.1444 -0.3627
  142DOPC   O1316779   3.309   3.239  17.144 -0.0673 -0.6580  0.3380
  142DOPC   O1416780   3.086   3.355  17.191  0.0975  0.5547 -0.0730
  142DOPC   O1216781   3.095   3.111  17.148  0.2949  0.4277 -0.1297
  142DOPC   O1116782   3.151   3.263  16.963 -0.0637 -0.1773  0.1208
  142DOPC    C116783   3.169   3.391  16.904  0.0372 -0.7294 -0.6557
  142DOPC    HA16784   3.273   3.414  16.875  0.1311 -0.2875  0.0141
  142DOPC    HB16785   3.132   3.473  16.969 -1.6016 -1.4333 -0.6505
  142DOPC    C216786   3.096   3.403  16.769 -0.5735 -0.1712 -0.6445
  142DOPC    HS16787   2.988   3.384  16.787 -0.4075 -0.6797 -0.2063
  142DOPC   O2116788   3.153   3.298  16.684 -0.1619  0.7571  0.5520
  142DOPC   C2116789   3.080   3.266  16.575  0.1980 -0.5623 -0.4997
  142DOPC   O2216790   2.973   3.315  16.533  0.0482  0.5330 -0.1682
  142DOPC   C2216791   3.154   3.150  16.505 -0.2689  0.6476 -0.6650
  142DOPC   H2R16792   3.183   3.074  16.581  2.2405  0.8259 -1.3664
  142DOPC   H2S16793   3.251   3.182  16.462  0.5351  0.5596  0.9792
  142DOPC    C316794   3.109   3.551  16.709 -0.3919  0.1087  0.1835
  142DOPC    HX16795   3.093   3.629  16.786  1.4526  0.9530 -0.2031
  142DOPC    HY16796   3.027   3.566  16.636 -1.2806 -1.7521  0.7675
  142DOPC   O3116797   3.238   3.558  16.635  0.0972  0.0975  0.3098
  142DOPC   C3116798   3.345   3.601  16.711 -0.1065  0.3318 -0.4383
  142DOPC   O3216799   3.338   3.645  16.824 -0.3660  0.1979  0.0621
  142DOPC   C3216800   3.479   3.593  16.631 -0.2649  0.1191  0.0410
  142DOPC   H2X16801   3.519   3.697  16.635  1.6959 -0.5866 -0.2743
  142DOPC   H2Y16802   3.542   3.532  16.700 -0.5334 -1.3377 -0.9642
  142DOPC   C2316803   3.075   3.086  16.391  0.1779  0.4882  0.0132
  142DOPC   H3R16804   3.054   3.159  16.311 -0.2143 -1.3276 -1.6062
  142DOPC   H3S16805   2.976   3.048  16.424  0.3660 -2.6241 -2.5698
  142DOPC   C2416806   3.157   2.963  16.335  0.2748  0.1605  0.0451
  142DOPC   H4R16807   3.165   2.884  16.412  0.0738 -0.6928 -0.7946
  142DOPC   H4S16808   3.261   2.997  16.318 -0.5391  1.5516 -2.7922
  142DOPC   C2516809   3.108   2.898  16.204  0.0333 -0.1936 -0.5509
  142DOPC   H5R16810   3.105   2.989  16.141  0.5564 -0.6262 -1.2170
  142DOPC   H5S16811   3.003   2.861  16.206  0.3193 -1.0410 -0.7985
  142DOPC   C2616812   3.212   2.801  16.144  0.3178  0.8514 -0.1032
  142DOPC   H6R16813   3.224   2.713  16.211  0.7132 -0.6101 -1.9750
  142DOPC   H6S16814   3.311   2.847  16.128  0.6277  0.1896 -0.1186
  142DOPC   C2716815   3.166   2.747  16.006 -0.2873 -0.2349  0.2349
  142DOPC   H7R16816   3.060   2.780  16.008 -0.2010  0.0361  0.5770
  142DOPC   H7S16817   3.164   2.636  16.006  3.0698 -0.3935  0.9964
  142DOPC   C2816818   3.235   2.809  15.887  0.8458  0.6585  0.4708
  142DOPC   H8R16819   3.345   2.812  15.901  0.7032 -0.1977  1.9760
  142DOPC   H8S16820   3.197   2.911  15.869  0.3384  0.6200  1.2802
  142DOPC   C2916821   3.193   2.731  15.764  0.6070  0.3092  0.9527
  142DOPC   H9R16822   3.084   2.740  15.754  0.7897  0.1819 -2.2294
  142DOPC  C21016823   3.273   2.658  15.674 -0.3020  0.8816 -1.1076
  142DOPC  H10R16824   3.226   2.597  15.596 -2.8092  1.0872  0.1336
  142DOPC  C21116825   3.426   2.627  15.691  0.5219 -0.2022  0.3937
  142DOPC  H11R16826   3.442   2.523  15.657 -1.4692 -0.2276 -0.6424
  142DOPC  H11S16827   3.452   2.658  15.794 -0.4334  1.5038  0.1716
  142DOPC  C21216828   3.489   2.725  15.598 -0.2470  0.1805  0.3054
  142DOPC  H12R16829   3.474   2.835  15.608  0.4934  0.2773  0.3973
  142DOPC  H12S16830   3.461   2.708  15.492  0.2162  0.7487  0.0875
  142DOPC  C21316831   3.649   2.713  15.595 -0.5194 -0.4076 -0.5760
  142DOPC  H13R16832   3.698   2.759  15.684 -0.6751 -1.2273 -0.0517
  142DOPC  H13S16833   3.671   2.786  15.514 -0.6638 -0.2988 -0.5163
  142DOPC  C21416834   3.713   2.571  15.575 -0.0660  0.0097 -0.9549
  142DOPC  H14R16835   3.717   2.514  15.670 -1.2963 -1.8289 -1.9431
  142DOPC  H14S16836   3.817   2.575  15.535 -0.3952 -0.6134 -1.9111
  142DOPC  C21516837   3.639   2.494  15.462 -0.5981  0.3474  0.2127
  142DOPC  H15R16838   3.631   2.573  15.383  1.5657  1.9346  1.4808
  142DOPC  H15S16839   3.535   2.465  15.489 -0.5005  0.0828  0.3063
  142DOPC  C21616840   3.733   2.397  15.386  0.5731  0.4572  0.2913
  142DOPC  H16R16841   3.825   2.444  15.346  0.6756  0.0271  0.0170
  142DOPC  H16S16842   3.668   2.365  15.302  1.2816 -1.6035  0.4499
  142DOPC  C21716843   3.778   2.278  15.471  0.3000  0.3531 -0.0116
  142DOPC  H17R16844   3.692   2.214  15.499 -0.7118  2.3562  1.7897
  142DOPC  H17S16845   3.834   2.300  15.565 -0.8109  1.3826  0.4197
  142DOPC  C21816846   3.877   2.182  15.402 -0.3432  0.0742  0.3769
  142DOPC  H18R16847   3.840   2.173  15.298 -0.8259  2.0936  0.3256
  142DOPC  H18S16848   3.873   2.079  15.443 -1.9277  1.0082  2.8176
  142DOPC  H18T16849   3.978   2.229  15.400 -0.5787  0.8247  2.7124
  142DOPC   C3316850   3.478   3.545  16.485  0.0857 -0.2830  0.1744
  142DOPC   H3X16851   3.542   3.610  16.421 -2.5771  2.0931 -0.2507
  142DOPC   H3Y16852   3.376   3.567  16.448  0.2126  0.2324  0.1120
  142DOPC   C3416853   3.503   3.395  16.478  0.3129  0.4166  0.1226
  142DOPC   H4X16854   3.445   3.342  16.557  1.0795  1.4357  1.4046
  142DOPC   H4Y16855   3.610   3.381  16.502  0.4064 -1.9199 -1.3558
  142DOPC   C3516856   3.462   3.335  16.342  0.6540 -0.6189 -0.3013
  142DOPC   H5X16857   3.357   3.363  16.317  0.6602 -1.1514 -0.9318
  142DOPC   H5Y16858   3.469   3.224  16.342 -0.6020 -0.7206 -1.4601
  142DOPC   C3616859   3.542   3.382  16.219 -0.2892  0.2550  0.5016
  142DOPC   H6X16860   3.523   3.491  16.214 -0.7787  0.1837  0.7163
  142DOPC   H6Y16861   3.649   3.353  16.221  0.0893  1.4456 -0.6527
  142DOPC   C3716862   3.486   3.307  16.089 -0.0852 -0.5510 -1.3386
  142DOPC   H7X16863   3.379   3.336  16.084 -0.6091 -1.8740  0.9130
  142DOPC   H7Y16864   3.538   3.356  16.004  0.5019  2.4016  0.5556
  142DOPC   C3816865   3.513   3.157  16.095  0.3285  0.7414  0.2508
  142DOPC   H8X16866   3.457   3.104  16.174  2.1213 -0.8349  0.5172
  142DOPC   H8Y16867   3.619   3.147  16.128 -0.1965  0.8935  2.0828
  142DOPC   C3916868   3.469   3.089  15.967 -0.3965  0.5785  0.2004
  142DOPC   H9X16869   3.361   3.075  15.946 -0.0226 -0.7998 -0.9944
  142DOPC  C31016870   3.555   3.069  15.861  0.5596  0.9267  0.0251
  142DOPC  H10X16871   3.512   3.008  15.779 -1.9899 -0.5621  2.2888
  142DOPC  C31116872   3.699   3.113  15.857  0.5295  0.8501  0.0062
  142DOPC  H11X16873   3.760   3.025  15.830 -0.0314  0.9762 -1.8403
  142DOPC  H11Y16874   3.739   3.135  15.958 -0.0076 -0.6215  0.5683
  142DOPC  C31216875   3.733   3.238  15.767  0.0544 -0.4368 -0.1666
  142DOPC  H12X16876   3.844   3.228  15.758  0.0062 -0.1561 -1.1324
  142DOPC  H12Y16877   3.708   3.332  15.820  1.1001 -0.1042 -0.2408
  142DOPC  C31316878   3.666   3.227  15.632  0.4080  0.7464 -0.3747
  142DOPC  H13X16879   3.700   3.134  15.584 -0.4465  1.7603 -3.1128
  142DOPC  H13Y16880   3.556   3.224  15.651  0.4167 -2.1943 -0.4572
  142DOPC  C31416881   3.700   3.330  15.526  0.2018 -0.2760 -0.5596
  142DOPC  H14X16882   3.646   3.424  15.551  1.6545  0.8902 -1.6420
  142DOPC  H14Y16883   3.809   3.352  15.518  0.6040 -1.9860 -0.1806
  142DOPC  C31516884   3.674   3.291  15.378  0.0954 -1.1752  0.1354
  142DOPC  H15X16885   3.670   3.181  15.360 -1.2732 -1.0630 -0.3307
  142DOPC  H15Y16886   3.764   3.325  15.322  0.5186  0.2886  1.6157
  142DOPC  C31616887   3.546   3.355  15.331  0.0117 -0.3825 -0.6464
  142DOPC  H16X16888   3.468   3.299  15.388  3.2236 -2.0110  2.5741
  142DOPC  H16Y16889   3.537   3.460  15.366 -1.8633 -1.2999  2.0568
  142DOPC  C31716890   3.529   3.342  15.184 -0.3500 -0.1599  0.0354
  142DOPC  H17X16891   3.608   3.393  15.124 -0.3291 -1.0998 -0.7544
  142DOPC  H17Y16892   3.539   3.235  15.154 -0.1907 -0.0620 -0.2708
  142DOPC  C31816893   3.396   3.401  15.131  0.0019 -0.6206 -0.4160
  142DOPC  H18X16894   3.310   3.337  15.160  1.4087 -1.9360  1.0697
  142DOPC  H18Y16895   3.380   3.501  15.177  1.9576 -0.1958 -0.5401
  142DOPC  H18Z16896   3.406   3.409  15.020 -0.2033  1.7665 -0.3122
  143DOPC     N16897   0.755   3.114  16.978  0.3806 -0.2037 -0.2004
  143DOPC   C1216898   0.676   3.223  16.909  0.1569  0.2303 -0.0950
  143DOPC  H12A16899   0.633   3.276  16.993  0.2872  1.9295 -1.0479
  143DOPC  H12B16900   0.600   3.171  16.852  0.0814 -2.2663  2.1124
  143DOPC   C1316901   0.668   3.041  17.080  0.8123 -0.3806  0.4148
  143DOPC  H13A16902   0.578   3.007  17.032  0.1580 -1.1920  2.1457
  143DOPC  H13B16903   0.717   2.952  17.118  2.9327  0.5243 -0.0608
  143DOPC  H13C16904   0.642   3.113  17.156  1.7903  0.1820  0.2444
  143DOPC   C1416905   0.869   3.165  17.058 -0.3209 -0.8150  0.7630
  143DOPC  H14A16906   0.941   3.205  16.988 -2.2323 -0.1334 -0.8912
  143DOPC  H14B16907   0.839   3.248  17.121 -1.4655  0.2251 -1.0788
  143DOPC  H14C16908   0.908   3.079  17.110 -0.0399 -1.8510 -1.1100
  143DOPC   C1516909   0.799   3.016  16.877  0.9725  0.5410 -0.0019
  143DOPC  H15A16910   0.720   2.944  16.862  1.8511 -0.2735 -0.8777
  143DOPC  H15B16911   0.880   2.954  16.913  0.5637 -0.0476 -0.0836
  143DOPC  H15C16912   0.828   3.067  16.787  1.1297  0.5799  0.0701
  143DOPC   C1116913   0.759   3.330  16.825 -0.6585 -0.4586 -0.0456
  143DOPC  H11A16914   0.827   3.269  16.762 -0.8848 -0.3727 -0.3725
  143DOPC  H11B16915   0.691   3.394  16.766  2.7599  2.0155 -1.6620
  143DOPC     P16916   0.967   3.486  16.859 -0.0894 -0.5252  0.2701
  143DOPC   O1316917   1.056   3.378  16.811  0.1063  0.2528  0.5422
  143DOPC   O1416918   1.030   3.577  16.961 -0.4801  0.4728 -0.1561
  143DOPC   O1216919   0.835   3.411  16.915 -0.5237  0.3639 -0.0833
  143DOPC   O1116920   0.911   3.574  16.741 -0.3813 -0.2466  0.8625
  143DOPC    C116921   0.935   3.567  16.603  0.6209 -0.1887 -0.5979
  143DOPC    HA16922   0.850   3.611  16.548 -0.4248 -0.0386  1.0701
  143DOPC    HB16923   0.941   3.461  16.571  0.2466 -0.5308  0.4372
  143DOPC    C216924   1.073   3.623  16.556  0.4400  0.7073 -0.1577
  143DOPC    HS16925   1.145   3.562  16.615  0.2814 -0.3058 -0.9967
  143DOPC   O2116926   1.080   3.757  16.594 -0.4314 -0.5682  0.7258
  143DOPC   C2116927   1.207   3.809  16.590 -0.7165  0.7120  0.7902
  143DOPC   O2216928   1.308   3.748  16.554  0.0980 -0.1322 -0.9110
  143DOPC   C2216929   1.206   3.953  16.636  1.1948 -0.7633 -0.2967
  143DOPC   H2R16930   1.240   3.957  16.742 -3.3713  1.2113  1.3426
  143DOPC   H2S16931   1.099   3.982  16.640  0.8198 -2.1738  1.1152
  143DOPC    C316932   1.090   3.595  16.406 -0.2464 -0.8363  0.1847
  143DOPC    HX16933   1.185   3.638  16.366 -0.3016 -0.0137  0.9173
  143DOPC    HY16934   0.999   3.642  16.363  0.6475  0.1817 -0.6685
  143DOPC   O3116935   1.081   3.454  16.374 -0.0057  0.4980 -0.3988
  143DOPC   C3116936   1.074   3.436  16.237  0.5159  0.2646 -0.4488
  143DOPC   O3216937   1.088   3.525  16.154  0.2920  0.0718 -0.0137
  143DOPC   C3216938   1.054   3.286  16.205 -0.2577  0.6749  0.7981
  143DOPC   H2X16939   1.118   3.242  16.285  2.1186  0.6241 -1.0178
  143DOPC   H2Y16940   0.952   3.241  16.202 -0.2976  0.7428  1.1264
  143DOPC   C2316941   1.292   4.048  16.553  0.6781  0.1898 -0.0669
  143DOPC   H3R16942   1.397   4.015  16.552  0.6519 -0.0605  1.9691
  143DOPC   H3S16943   1.289   4.147  16.603 -1.9574 -1.2725  3.0342
  143DOPC   C2416944   1.245   4.070  16.405  0.0549 -0.0319 -0.0089
  143DOPC   H4R16945   1.148   4.123  16.409 -0.4042 -0.8967  0.5124
  143DOPC   H4S16946   1.231   3.975  16.349 -0.2668  1.7584 -3.1932
  143DOPC   C2516947   1.348   4.141  16.309 -0.2808  0.3027 -0.3998
  143DOPC   H5R16948   1.447   4.108  16.346 -0.6979 -0.7353 -0.1624
  143DOPC   H5S16949   1.335   4.250  16.326  0.5533  0.5813 -1.4823
  143DOPC   C2616950   1.349   4.107  16.161  0.2639  0.0420  0.2718
  143DOPC   H6R16951   1.266   4.160  16.110 -1.0809 -1.8001  0.4433
  143DOPC   H6S16952   1.341   3.999  16.137 -1.4092  0.0821  0.4996
  143DOPC   C2716953   1.473   4.148  16.093 -0.0836 -0.2100  0.7533
  143DOPC   H7R16954   1.546   4.075  16.134  0.2278 -0.1661  0.2869
  143DOPC   H7S16955   1.503   4.252  16.119  0.4110 -0.6719  2.1013
  143DOPC   C2816956   1.468   4.125  15.935  0.8052 -0.0202 -0.2047
  143DOPC   H8R16957   1.556   4.181  15.898  1.1424  0.3990  1.1585
  143DOPC   H8S16958   1.372   4.175  15.910  0.7402 -1.0376 -2.2009
  143DOPC   C2916959   1.479   3.983  15.885  0.4826 -0.3416 -0.0843
  143DOPC   H9R16960   1.545   3.920  15.946 -0.2723 -2.1547 -1.0541
  143DOPC  C21016961   1.404   3.929  15.784 -0.0344  0.0104 -0.5466
  143DOPC  H10R16962   1.422   3.827  15.748  0.1658 -0.8130  1.7399
  143DOPC  C21116963   1.300   4.000  15.702 -0.2803 -0.7436 -0.3813
  143DOPC  H11R16964   1.294   4.107  15.734  1.6094 -0.6791 -0.1075
  143DOPC  H11S16965   1.210   3.941  15.731  0.6489 -1.2023  1.7897
  143DOPC  C21216966   1.322   3.992  15.556  0.2646 -0.0609  0.4450
  143DOPC  H12R16967   1.363   3.898  15.516 -0.9314 -0.9469  1.2242
  143DOPC  H12S16968   1.395   4.068  15.521  0.7870 -1.0162 -0.5972
  143DOPC  C21316969   1.189   4.022  15.475 -0.4163  0.6508 -0.1266
  143DOPC  H13R16970   1.142   4.119  15.502 -1.3748  0.5583 -1.3338
  143DOPC  H13S16971   1.119   3.939  15.501  1.5408 -1.1518 -0.3406
  143DOPC  C21416972   1.221   4.029  15.319 -0.2142  0.1112  0.3347
  143DOPC  H14R16973   1.262   3.928  15.295  2.1003  0.6714  1.6920
  143DOPC  H14S16974   1.310   4.092  15.300  0.1202 -0.1111  1.1473
  143DOPC  C21516975   1.105   4.060  15.226 -0.3438 -0.5533  0.4936
  143DOPC  H15R16976   1.062   4.155  15.266 -0.0531 -0.2683  0.1330
  143DOPC  H15S16977   1.027   3.981  15.225 -0.3405 -0.5592  0.6790
  143DOPC  C21616978   1.163   4.073  15.081 -0.1152 -0.9302  0.1176
  143DOPC  H16R16979   1.204   3.974  15.054  0.6978 -0.9612  1.3571
  143DOPC  H16S16980   1.249   4.143  15.083 -0.9587  0.1498 -0.5263
  143DOPC  C21716981   1.056   4.125  14.983  0.8259 -0.3109  0.7081
  143DOPC  H17R16982   0.982   4.045  14.956  1.0545 -1.1363  2.3886
  143DOPC  H17S16983   1.112   4.143  14.890  1.7328  0.9978  1.4833
  143DOPC  C21816984   0.973   4.252  15.027 -0.4648  0.0923  0.4612
  143DOPC  H18R16985   1.039   4.338  15.053 -1.3359  0.5374  1.2498
  143DOPC  H18S16986   0.915   4.231  15.119 -3.0676  1.5151 -0.7259
  143DOPC  H18T16987   0.909   4.271  14.937 -1.1945  1.6672  1.2792
  143DOPC   C3316988   1.128   3.251  16.075 -0.6815 -0.0249  0.4694
  143DOPC   H3X16989   1.145   3.144  16.050  1.7191  0.2665  0.5872
  143DOPC   H3Y16990   1.228   3.301  16.075  0.3197 -1.9290  1.2815
  143DOPC   C3416991   1.050   3.285  15.952 -0.4925  0.1250 -0.1396
  143DOPC   H4X16992   1.037   3.396  15.948 -0.1769  0.1781  0.2320
  143DOPC   H4Y16993   0.949   3.242  15.969 -0.3568 -0.2290 -0.2190
  143DOPC   C3516994   1.105   3.241  15.817 -0.3883 -0.4694 -0.4207
  143DOPC   H5X16995   1.147   3.139  15.829  1.0485  0.0687 -0.5723
  143DOPC   H5Y16996   1.192   3.309  15.802  1.0445 -2.0032  0.5758
  143DOPC   C3616997   1.008   3.243  15.702 -0.3289 -0.0507  0.4355
  143DOPC   H6X16998   0.910   3.202  15.734  0.0635 -0.4029  1.2127
  143DOPC   H6Y16999   0.991   3.348  15.671  1.1494 -0.5327 -2.3776
  143DOPC   C3717000   1.049   3.151  15.582 -0.0162  0.3350  0.2205
  143DOPC   H7X17001   0.983   3.175  15.497  1.6787  0.5132 -1.0888
  143DOPC   H7Y17002   1.153   3.179  15.555 -0.6134  1.0218 -1.4401
  143DOPC   C3817003   1.038   3.002  15.608  0.4620  0.6743  0.3143
  143DOPC   H8X17004   1.090   2.984  15.705  0.2336 -0.5468  0.2166
  143DOPC   H8Y17005   1.102   2.950  15.533 -1.9087  1.5047 -2.4577
  143DOPC   C3917006   0.894   2.954  15.617 -0.4829 -0.0884 -0.6620
  143DOPC   H9X17007   0.849   2.938  15.519  0.1472  1.5656 -1.2544
  143DOPC  C31017008   0.826   2.924  15.731  0.1081  0.2250  0.2587
  143DOPC  H10X17009   0.723   2.888  15.722  0.0595  0.6172 -0.9287
  143DOPC  C31117010   0.883   2.925  15.871 -0.1285  0.2266  1.0921
  143DOPC  H11X17011   0.826   2.987  15.944 -0.0466 -1.0813  2.3136
  143DOPC  H11Y17012   0.989   2.955  15.873 -0.0462  0.1170 -0.3850
  143DOPC  C31217013   0.883   2.780  15.912  0.3968 -0.7347 -0.3426
  143DOPC  H12X17014   0.788   2.723  15.910  0.3021 -0.5772 -0.3474
  143DOPC  H12Y17015   0.902   2.789  16.021  1.2813 -1.0754 -0.4603
  143DOPC  C31317016   1.002   2.708  15.863 -0.0359  0.2434  0.1189
  143DOPC  H13X17017   0.999   2.712  15.752  1.6737  2.2449  0.0969
  143DOPC  H13Y17018   1.094   2.764  15.890 -0.6386  1.5157 -0.3968
  143DOPC  C31417019   1.020   2.564  15.918 -0.4552 -0.4173  0.2912
  143DOPC  H14X17020   1.034   2.581  16.027  0.4363  2.0463 -0.1299
  143DOPC  H14Y17021   0.927   2.505  15.899 -0.0077 -0.9126 -0.4185
  143DOPC  C31517022   1.143   2.500  15.852 -0.0704 -0.7496 -0.5288
  143DOPC  H15X17023   1.204   2.472  15.940 -0.5454  1.6707  0.6720
  143DOPC  H15Y17024   1.211   2.578  15.810 -1.8125  0.9642 -0.3050
  143DOPC  C31617025   1.102   2.379  15.764 -0.3959 -0.4697 -0.2654
  143DOPC  H16X17026   1.198   2.323  15.751 -0.2188 -0.1949 -0.1413
  143DOPC  H16Y17027   1.030   2.310  15.812 -0.5745 -0.7606 -0.9401
  143DOPC  C31717028   1.046   2.407  15.619 -0.1962 -0.0354 -0.0215
  143DOPC  H17X17029   0.936   2.416  15.628 -0.0942  2.0629 -0.2519
  143DOPC  H17Y17030   1.081   2.505  15.579  0.8290  0.2127  1.4147
  143DOPC  C31817031   1.070   2.296  15.518 -0.5140 -0.4368 -0.2738
  143DOPC  H18X17032   1.023   2.336  15.425 -0.2612 -0.5584 -0.4537
  143DOPC  H18Y17033   1.179   2.286  15.504  0.0544  3.8302 -0.2106
  143DOPC  H18Z17034   1.020   2.204  15.556 -1.3279  0.1771  0.1798
  144DOPC     N17035   2.667   2.192  17.099 -0.0004  0.1876 -0.5505
  144DOPC   C1217036   2.703   2.080  17.001  0.4014  0.7988 -0.2053
  144DOPC  H12A17037   2.674   1.988  17.049 -1.0788  1.2773 -0.1336
  144DOPC  H12B17038   2.811   2.071  16.998  0.7489  1.6592  4.1396
  144DOPC   C1317039   2.521   2.194  17.117  0.3981 -0.3017  0.0106
  144DOPC  H13A17040   2.486   2.258  17.197  1.6268 -1.7946  1.8077
  144DOPC  H13B17041   2.467   2.210  17.025  2.3063  2.3443 -0.7790
  144DOPC  H13C17042   2.476   2.100  17.144 -0.7614  0.6648  1.6576
  144DOPC   C1417043   2.713   2.331  17.046 -0.0504  0.2764  0.2912
  144DOPC  H14A17044   2.820   2.329  17.033  0.1301  1.8902  1.2568
  144DOPC  H14B17045   2.664   2.347  16.951  0.2825  3.1269  0.5151
  144DOPC  H14C17046   2.678   2.405  17.117 -2.2508  2.1759 -2.5339
  144DOPC   C1517047   2.739   2.161  17.227  0.1878  0.3778  0.3821
  144DOPC  H15A17048   2.731   2.246  17.292  0.3996  0.9969 -0.3885
  144DOPC  H15B17049   2.841   2.132  17.204 -0.7306 -2.1448 -0.8732
  144DOPC  H15C17050   2.685   2.084  17.279 -1.2536  1.6682  0.8416
  144DOPC   C1117051   2.641   2.073  16.858  0.0646 -0.0014  0.3181
  144DOPC  H11A17052   2.676   2.163  16.802  0.4029 -1.6778 -2.3679
  144DOPC  H11B17053   2.685   1.989  16.801  0.8756  1.0077 -0.5910
  144DOPC     P17054   2.408   1.958  16.900 -0.2489 -0.2266 -0.1279
  144DOPC   O1317055   2.272   1.999  16.861  0.4259 -0.1524  0.9071
  144DOPC   O1417056   2.432   1.926  17.044 -0.7865  0.0112 -0.2506
  144DOPC   O1217057   2.498   2.082  16.866  0.0367  0.0292  0.0763
  144DOPC   O1117058   2.470   1.857  16.804  0.2706  0.2959 -0.0425
  144DOPC    C117059   2.392   1.769  16.716  0.2161  0.4350 -0.0486
  144DOPC    HA17060   2.282   1.785  16.724  0.1534 -0.2643  0.5834
  144DOPC    HB17061   2.409   1.662  16.742 -0.0027 -0.5826 -3.6161
  144DOPC    C217062   2.414   1.808  16.567  0.5133  0.6373  0.5146
  144DOPC    HS17063   2.372   1.725  16.505  1.3631  0.5592  0.0391
  144DOPC   O2117064   2.552   1.825  16.544  0.1865 -0.2941  0.0291
  144DOPC   C2117065   2.625   1.709  16.541 -0.3167  0.9772 -0.6411
  144DOPC   O2217066   2.579   1.597  16.557  0.4156  0.7066  0.3551
  144DOPC   C2217067   2.768   1.741  16.558 -0.1640  0.4811 -0.3734
  144DOPC   H2R17068   2.799   1.716  16.661 -0.2687 -1.7845 -0.8473
  144DOPC   H2S17069   2.784   1.849  16.534  2.1372  0.3342  0.2223
  144DOPC    C317070   2.340   1.942  16.527 -0.1666  0.3796  0.1288
  144DOPC    HX17071   2.407   2.012  16.580  3.4845 -0.8993 -2.4161
  144DOPC    HY17072   2.234   1.933  16.560 -0.8662  2.8739 -1.1886
  144DOPC   O3117073   2.336   1.964  16.378  0.0018 -0.6355  0.0492
  144DOPC   C3117074   2.436   2.040  16.323 -0.6437  0.1228  0.4689
  144DOPC   O3217075   2.526   2.090  16.384  0.1739 -0.3441 -0.0000
  144DOPC   C3217076   2.414   2.038  16.173 -0.2854  0.4340  0.7352
  144DOPC   H2X17077   2.392   1.934  16.140 -0.4729 -0.1258  2.4943
  144DOPC   H2Y17078   2.325   2.099  16.146  0.0088  0.8710  0.7477
  144DOPC   C2317079   2.864   1.658  16.466  0.9440 -0.2348  0.4805
  144DOPC   H3R17080   2.845   1.550  16.452  2.6287 -0.6168  0.9243
  144DOPC   H3S17081   2.968   1.658  16.507  1.9600 -1.6098 -1.8849
  144DOPC   C2417082   2.853   1.728  16.326  0.0320  0.3607 -0.1293
  144DOPC   H4R17083   2.880   1.836  16.328 -1.6432  0.8149 -0.7872
  144DOPC   H4S17084   2.749   1.735  16.288  0.6301  0.9092 -1.7629
  144DOPC   C2517085   2.932   1.658  16.216  0.1464  0.4041 -0.0054
  144DOPC   H5R17086   3.043   1.663  16.227  0.2236  0.6666 -0.7910
  144DOPC   H5S17087   2.912   1.713  16.121 -2.7638 -0.4463  0.0199
  144DOPC   C2617088   2.902   1.511  16.197 -0.1792  0.1831  0.6509
  144DOPC   H6R17089   2.952   1.451  16.276  1.0903  2.0906  1.3479
  144DOPC   H6S17090   2.946   1.469  16.103 -1.2974 -1.1169  0.6705
  144DOPC   C2717091   2.750   1.474  16.186  0.2661 -0.1820  0.4225
  144DOPC   H7R17092   2.710   1.507  16.284 -1.1692 -2.5391  0.7077
  144DOPC   H7S17093   2.738   1.364  16.179 -0.9153 -0.0742  0.6407
  144DOPC   C2817094   2.674   1.542  16.064  0.3329 -0.1463  0.2081
  144DOPC   H8R17095   2.725   1.519  15.968 -2.8452 -1.6429 -1.2834
  144DOPC   H8S17096   2.686   1.652  16.075 -1.0729 -0.0651  1.2694
  144DOPC   C2917097   2.531   1.492  16.076 -0.6593  0.1798 -0.3835
  144DOPC   H9R17098   2.478   1.532  16.164 -1.7454 -0.2819 -0.8088
  144DOPC  C21017099   2.468   1.404  16.005  0.1482  0.0139  0.1414
  144DOPC  H10R17100   2.371   1.367  16.042  0.3844 -0.9376 -0.1713
  144DOPC  C21117101   2.523   1.340  15.880 -0.2208 -0.2328  0.3447
  144DOPC  H11R17102   2.527   1.229  15.893 -1.4095 -0.3088  0.1781
  144DOPC  H11S17103   2.627   1.372  15.859 -0.3866  1.5275  2.0325
  144DOPC  C21217104   2.427   1.375  15.759 -0.2745 -0.7724 -0.2882
  144DOPC  H12R17105   2.463   1.472  15.718 -2.4840 -0.3814 -1.4792
  144DOPC  H12S17106   2.320   1.390  15.787 -0.3371  1.2078 -1.3708
  144DOPC  C21317107   2.441   1.264  15.650 -0.1751 -0.1594 -0.5973
  144DOPC  H13R17108   2.380   1.180  15.688  1.1204 -0.1895  1.5610
  144DOPC  H13S17109   2.547   1.231  15.644 -0.2819 -0.8658  1.0782
  144DOPC  C21417110   2.379   1.303  15.522  0.9171 -0.3463  0.0176
  144DOPC  H14R17111   2.452   1.368  15.468  1.1624 -1.0715 -0.5283
  144DOPC  H14S17112   2.285   1.362  15.523  1.2416  0.1739  0.3418
  144DOPC  C21517113   2.353   1.184  15.431 -0.5027 -0.0655 -0.4823
  144DOPC  H15R17114   2.310   1.111  15.503 -0.4938  1.7025  1.4007
  144DOPC  H15S17115   2.450   1.140  15.399  0.6167  1.0601  1.1703
  144DOPC  C21617116   2.262   1.216  15.306  0.3095 -0.2338 -0.7708
  144DOPC  H16R17117   2.314   1.299  15.252  0.4794  0.1973  0.0359
  144DOPC  H16S17118   2.166   1.249  15.351  0.7984 -1.0452  0.9463
  144DOPC  C21717119   2.237   1.097  15.221  0.2474  0.5168  0.0493
  144DOPC  H17R17120   2.220   1.015  15.294  1.3328 -1.2691 -1.6173
  144DOPC  H17S17121   2.325   1.068  15.160 -0.6488  1.1050 -1.6068
  144DOPC  C21817122   2.120   1.099  15.124  0.2724 -0.9677  0.6183
  144DOPC  H18R17123   2.025   1.123  15.176  0.0480  1.8947 -0.8900
  144DOPC  H18S17124   2.100   1.004  15.069 -0.7336 -0.5969  0.3414
  144DOPC  H18T17125   2.139   1.176  15.046  0.0122 -1.3350  0.1862
  144DOPC   C3317126   2.547   2.083  16.105 -0.0485  0.0800 -0.2330
  144DOPC   H3X17127   2.540   2.058  15.997  1.2227  2.3635 -0.8988
  144DOPC   H3Y17128   2.628   2.025  16.153  0.8050  0.9238 -0.6363
  144DOPC   C3417129   2.577   2.230  16.116 -0.1524 -0.4467  0.3870
  144DOPC   H4X17130   2.676   2.257  16.072  0.4260 -0.6365  1.5469
  144DOPC   H4Y17131   2.581   2.257  16.223 -1.0150 -0.7348  0.4999
  144DOPC   C3517132   2.471   2.316  16.053 -0.9102  0.1033 -0.2366
  144DOPC   H5X17133   2.472   2.417  16.100  2.2503  0.8712 -1.7331
  144DOPC   H5Y17134   2.371   2.277  16.082 -1.9059  0.5197 -2.7632
  144DOPC   C3617135   2.477   2.318  15.903 -0.0687 -0.2040  0.2410
  144DOPC   H6X17136   2.579   2.346  15.869  0.7787 -2.1881  0.9807
  144DOPC   H6Y17137   2.457   2.220  15.854 -0.5957  1.8832 -4.2937
  144DOPC   C3717138   2.371   2.414  15.845  0.0375 -0.4232 -0.2760
  144DOPC   H7X17139   2.270   2.380  15.877 -0.8480  0.2746 -2.2167
  144DOPC   H7Y17140   2.386   2.516  15.888 -0.8021  0.1344 -1.2584
  144DOPC   C3817141   2.392   2.409  15.690 -0.3846  0.4856 -1.0375
  144DOPC   H8X17142   2.397   2.301  15.664  0.7829  0.6011 -1.3549
  144DOPC   H8Y17143   2.492   2.450  15.666  0.1612  0.4092  0.9855
  144DOPC   C3917144   2.293   2.480  15.607  0.1414  0.2491 -0.5923
  144DOPC   H9X17145   2.252   2.569  15.658  0.8184  0.5284 -0.5225
  144DOPC  C31017146   2.229   2.431  15.491 -0.1487 -0.1495 -0.2073
  144DOPC  H10X17147   2.149   2.485  15.439 -0.8061 -0.7528  0.1646
  144DOPC  C31117148   2.254   2.299  15.424  0.1357  0.0749 -0.0487
  144DOPC  H11X17149   2.348   2.248  15.455  1.9817  0.5262 -4.1731
  144DOPC  H11Y17150   2.264   2.301  15.313  0.5842 -0.2658 -0.0152
  144DOPC  C31217151   2.117   2.231  15.469  0.5219 -0.2538 -0.0720
  144DOPC  H12X17152   2.028   2.288  15.434  0.7306 -1.1653 -2.2532
  144DOPC  H12Y17153   2.121   2.223  15.580  0.7362 -1.7314 -0.1746
  144DOPC  C31317154   2.113   2.085  15.418 -0.5392 -0.7971  0.0590
  144DOPC  H13X17155   2.124   2.092  15.308  1.9933  2.2635  0.3668
  144DOPC  H13Y17156   2.201   2.036  15.465  0.2290 -1.0478 -1.5602
  144DOPC  C31417157   1.983   2.012  15.465 -1.1357 -0.2417  0.4378
  144DOPC  H14X17158   1.967   2.032  15.573  1.7941  2.1010  0.5664
  144DOPC  H14Y17159   1.898   2.053  15.405 -2.1123 -1.6664  0.7943
  144DOPC  C31517160   2.000   1.861  15.453 -0.0693  0.0743  0.8182
  144DOPC  H15X17161   2.097   1.826  15.496  0.9481  1.0549 -0.5839
  144DOPC  H15Y17162   2.022   1.850  15.345  2.7694  0.8017  1.2306
  144DOPC  C31617163   1.885   1.763  15.494 -0.1854 -0.1008 -0.1137
  144DOPC  H16X17164   1.905   1.660  15.456  3.0549  0.1341  0.6124
  144DOPC  H16Y17165   1.885   1.757  15.605 -0.4815 -0.2804 -0.1225
  144DOPC  C31717166   1.748   1.811  15.442  0.7007 -0.4398  0.1939
  144DOPC  H17X17167   1.675   1.736  15.479  0.4442 -0.4930 -0.4256
  144DOPC  H17Y17168   1.725   1.904  15.499  1.0780 -1.0629  1.4193
  144DOPC  C31817169   1.724   1.814  15.298  0.5303 -0.4577 -0.5969
  144DOPC  H18X17170   1.706   1.710  15.262 -1.1253  0.3244 -2.1594
  144DOPC  H18Y17171   1.627   1.862  15.275 -1.0647 -2.9635  0.4254
  144DOPC  H18Z17172   1.804   1.870  15.246  0.8149  0.9155  1.2286
  145DOPC     N17173   2.558   3.870  16.975  0.5390 -1.2745 -0.1829
  145DOPC   C1217174   2.706   3.894  16.948 -0.4132 -0.5175  0.0117
  145DOPC  H12A17175   2.727   3.820  16.872 -0.2075  0.1815 -0.6171
  145DOPC  H12B17176   2.761   3.867  17.037 -0.4508 -1.5462 -0.2652
  145DOPC   C1317177   2.474   3.893  16.855  0.2560  0.6280 -0.4992
  145DOPC  H13A17178   2.481   3.991  16.811 -1.6280  0.5841 -0.9458
  145DOPC  H13B17179   2.498   3.822  16.777 -2.9366 -0.4994 -0.5894
  145DOPC  H13C17180   2.375   3.864  16.887  2.0744 -4.0898  1.8306
  145DOPC   C1417181   2.492   3.951  17.090 -0.0129 -0.1377  0.5156
  145DOPC  H14A17182   2.402   3.906  17.130  0.0778 -0.2620  0.5801
  145DOPC  H14B17183   2.558   3.963  17.175  0.2366 -0.2129  0.3319
  145DOPC  H14C17184   2.469   4.055  17.071  1.7980  0.2180  0.1542
  145DOPC   C1517185   2.539   3.728  17.006 -0.5806 -0.0114 -0.3679
  145DOPC  H15A17186   2.578   3.666  16.927 -1.3726 -1.3648  0.2594
  145DOPC  H15B17187   2.436   3.694  17.000  0.2883 -2.9036 -0.6806
  145DOPC  H15C17188   2.583   3.704  17.102 -1.4809  0.5454  0.2069
  145DOPC   C1117189   2.758   4.032  16.901 -0.3028 -0.4903  0.4242
  145DOPC  H11A17190   2.860   4.045  16.860 -0.8729  1.2609 -0.5698
  145DOPC  H11B17191   2.688   4.054  16.817  2.2256  2.5397 -1.0951
  145DOPC     P17192   2.829   4.112  17.138 -0.2426 -0.2320 -0.3320
  145DOPC   O1317193   2.790   3.987  17.210  1.1576 -0.0286 -0.3856
  145DOPC   O1417194   2.821   4.238  17.210  0.6115  0.1454  0.2440
  145DOPC   O1217195   2.740   4.131  17.007  0.0100  0.4296 -0.1275
  145DOPC   O1117196   2.970   4.093  17.072  0.3746  0.4500 -0.1851
  145DOPC    C117197   3.069   4.192  17.055 -0.0064 -1.0273 -0.1211
  145DOPC    HA17198   3.167   4.158  17.016 -0.3461 -2.3188  0.1113
  145DOPC    HB17199   3.105   4.214  17.158  0.7616  0.8177 -0.7331
  145DOPC    C217200   3.023   4.323  16.973 -0.5811  0.0015 -0.2720
  145DOPC    HS17201   2.930   4.367  17.015 -0.1653  0.0826  0.5679
  145DOPC   O2117202   3.003   4.270  16.835  0.4254  0.0242 -0.7387
  145DOPC   C2117203   2.913   4.333  16.759  0.5221  0.1667  0.1382
  145DOPC   O2217204   2.829   4.413  16.799  0.8002 -0.5787  0.0724
  145DOPC   C2217205   2.939   4.299  16.613  0.1192 -0.4537  0.4965
  145DOPC   H2R17206   3.047   4.276  16.605  0.6499  2.1503 -0.7184
  145DOPC   H2S17207   2.918   4.381  16.541  0.1115 -0.3365  0.6329
  145DOPC    C317208   3.132   4.432  16.974  0.2081  1.0293  0.0346
  145DOPC    HX17209   3.231   4.400  16.935 -0.1302  0.2986 -0.2481
  145DOPC    HY17210   3.151   4.453  17.082  2.4321 -0.6872  0.0618
  145DOPC   O3117211   3.087   4.548  16.906  0.0208  0.3038 -0.0155
  145DOPC   C3117212   3.019   4.645  16.974 -0.3435 -0.2511  0.1617
  145DOPC   O3217213   2.994   4.638  17.094 -0.5155 -0.0097  0.1753
  145DOPC   C3217214   2.997   4.772  16.886  0.0154  0.2796  0.2527
  145DOPC   H2X17215   2.935   4.842  16.945  0.9492  0.3819  1.1434
  145DOPC   H2Y17216   3.097   4.818  16.872  0.3071 -0.6737 -1.0069
  145DOPC   C2317217   2.867   4.167  16.570  0.0601  0.4779  0.4785
  145DOPC   H3R17218   2.759   4.183  16.594  0.3509  1.3176  1.3229
  145DOPC   H3S17219   2.908   4.083  16.630  1.1158 -0.8459 -1.9826
  145DOPC   C2417220   2.873   4.139  16.416  0.2801  0.7136 -0.2867
  145DOPC   H4R17221   2.800   4.211  16.374 -1.5369 -0.9174 -0.0418
  145DOPC   H4S17222   2.825   4.039  16.407  1.9638 -0.0472 -1.4415
  145DOPC   C2517223   3.009   4.146  16.362  0.2664 -0.8546 -0.5822
  145DOPC   H5R17224   3.078   4.104  16.439  0.0813 -1.0138 -0.5018
  145DOPC   H5S17225   3.038   4.253  16.359  0.9564 -1.0114  0.1348
  145DOPC   C2617226   3.038   4.081  16.226  0.7464  0.4647  0.0045
  145DOPC   H6R17227   3.010   3.973  16.233  1.1842  0.3731  0.3739
  145DOPC   H6S17228   3.148   4.094  16.217  0.8767  0.0743  0.9110
  145DOPC   C2717229   2.940   4.135  16.123  0.1841  0.1833  0.3311
  145DOPC   H7R17230   2.957   4.244  16.132  2.0889 -0.1490  1.4594
  145DOPC   H7S17231   2.834   4.116  16.148  0.1768 -0.2362 -0.0000
  145DOPC   C2817232   2.967   4.102  15.974  0.1732 -0.3124 -0.4044
  145DOPC   H8R17233   3.073   4.126  15.953  0.1841 -2.4422 -3.3305
  145DOPC   H8S17234   2.892   4.163  15.919  1.3527  1.2120 -0.3895
  145DOPC   C2917235   2.949   3.953  15.941  0.5919 -0.3659  0.4215
  145DOPC   H9R17236   2.851   3.932  15.895  1.6069 -2.7306 -0.8181
  145DOPC  C21017237   3.041   3.858  15.938  0.1691  0.2979 -0.5151
  145DOPC  H10R17238   3.002   3.759  15.910  1.5908  0.0187 -1.6575
  145DOPC  C21117239   3.187   3.865  15.982 -0.2580 -0.4654  0.2112
  145DOPC  H11R17240   3.210   3.796  16.066  0.3403 -0.0422  0.3985
  145DOPC  H11S17241   3.203   3.967  16.022  1.7154 -0.0254 -1.5386
  145DOPC  C21217242   3.288   3.828  15.866  0.5562  0.5053  0.4792
  145DOPC  H12R17243   3.298   3.908  15.790  1.5849 -2.1032 -2.3238
  145DOPC  H12S17244   3.266   3.734  15.812 -0.6628  2.4013 -2.6095
  145DOPC  C21317245   3.439   3.809  15.907  0.0994 -0.5345  0.3828
  145DOPC  H13R17246   3.452   3.713  15.963  0.7523 -0.7646 -0.1499
  145DOPC  H13S17247   3.473   3.896  15.967  1.3524  0.0416 -1.1048
  145DOPC  C21417248   3.533   3.793  15.788  0.2125  0.1993  0.5084
  145DOPC  H14R17249   3.506   3.857  15.701 -0.8725  0.3237  0.9271
  145DOPC  H14S17250   3.538   3.689  15.749 -1.2084  0.3048  0.0139
  145DOPC  C21517251   3.682   3.820  15.830  0.2474  0.0140  0.4593
  145DOPC  H15R17252   3.681   3.929  15.853  1.0139  0.9284 -3.2577
  145DOPC  H15S17253   3.746   3.797  15.743 -0.2226  0.9190 -0.1354
  145DOPC  C21617254   3.732   3.736  15.946 -0.2968  0.2820 -0.0461
  145DOPC  H16R17255   3.677   3.777  16.034  1.1771  2.0180  0.1063
  145DOPC  H16S17256   3.834   3.772  15.970 -0.9981  2.1276  0.3128
  145DOPC  C21717257   3.704   3.581  15.937  0.0628  0.4027 -0.4800
  145DOPC  H17R17258   3.751   3.541  15.845  0.2761  0.0098 -0.2006
  145DOPC  H17S17259   3.598   3.549  15.943  0.0938  0.3484 -0.1853
  145DOPC  C21817260   3.780   3.514  16.048 -0.3288 -0.5894  0.0798
  145DOPC  H18R17261   3.889   3.518  16.025 -0.5699 -0.8549 -1.1939
  145DOPC  H18S17262   3.766   3.403  16.047  0.0345 -0.6458 -1.3259
  145DOPC  H18T17263   3.760   3.550  16.151  0.0788  2.5617 -0.8319
  145DOPC   C3317264   2.917   4.744  16.752 -0.1628 -0.0114 -0.1244
  145DOPC   H3X17265   2.867   4.837  16.716  1.8888  0.7286 -1.2072
  145DOPC   H3Y17266   2.833   4.674  16.776  0.4270 -0.0029  2.1224
  145DOPC   C3417267   3.003   4.681  16.639 -0.0976  0.3299 -0.1107
  145DOPC   H4X17268   3.045   4.582  16.664  0.7208  0.5277 -0.6349
  145DOPC   H4Y17269   3.083   4.756  16.617 -1.3421  1.3327 -1.4428
  145DOPC   C3517270   2.929   4.654  16.506 -0.2825 -0.5986 -0.2040
  145DOPC   H5X17271   2.871   4.747  16.489 -1.5992 -1.3144  0.1440
  145DOPC   H5Y17272   2.848   4.579  16.521 -1.2961  0.4831 -0.1648
  145DOPC   C3617273   3.012   4.616  16.394  0.6508 -0.1643  0.0170
  145DOPC   H6X17274   3.072   4.706  16.369 -0.7873  0.7018 -0.4523
  145DOPC   H6Y17275   3.084   4.536  16.421 -0.1705 -0.4818  1.3791
  145DOPC   C3717276   2.939   4.585  16.263 -0.1535  0.4658 -0.0592
  145DOPC   H7X17277   2.869   4.501  16.278 -1.9666  1.3464 -2.8680
  145DOPC   H7Y17278   2.883   4.679  16.247  2.2495  2.4438  2.2357
  145DOPC   C3817279   3.026   4.557  16.146  0.0011 -0.3383  0.0590
  145DOPC   H8X17280   2.948   4.510  16.081 -1.2591 -0.4416  1.5872
  145DOPC   H8Y17281   3.100   4.478  16.169  0.1591 -0.2559 -0.1638
  145DOPC   C3917282   3.097   4.677  16.083 -0.6661  0.0790  1.0806
  145DOPC   H9X17283   3.192   4.702  16.132  0.2518  1.8720 -1.4168
  145DOPC  C31017284   3.073   4.733  15.967  0.1714 -0.3336  0.1052
  145DOPC  H10X17285   3.140   4.808  15.923  0.0965 -0.9662 -1.1408
  145DOPC  C31117286   2.969   4.689  15.870 -0.3315  0.3394 -0.5032
  145DOPC  H11X17287   2.937   4.773  15.804  1.5947 -0.7248 -2.9788
  145DOPC  H11Y17288   2.879   4.648  15.921  1.1691 -1.7686  0.6503
  145DOPC  C31217289   3.020   4.573  15.776  0.6056 -0.4776 -0.2995
  145DOPC  H12X17290   2.929   4.532  15.726  0.3444  0.9391 -1.0545
  145DOPC  H12Y17291   3.052   4.494  15.846 -1.7081  0.0355  1.4582
  145DOPC  C31317292   3.105   4.613  15.655  0.4588 -0.4845 -0.5773
  145DOPC  H13X17293   3.211   4.634  15.679  0.1994  0.4974 -0.2238
  145DOPC  H13Y17294   3.111   4.529  15.582  2.2557 -0.1709 -0.8314
  145DOPC  C31417295   3.043   4.729  15.574  0.5742 -0.1341  0.1607
  145DOPC  H14X17296   2.932   4.726  15.566  0.4846  0.3454  1.0954
  145DOPC  H14Y17297   3.054   4.828  15.622 -1.4555 -0.9607  2.5307
  145DOPC  C31517298   3.094   4.744  15.429 -0.8538 -0.1926  0.0557
  145DOPC  H15X17299   3.126   4.647  15.385  0.0690  0.0505  0.1668
  145DOPC  H15Y17300   3.197   4.785  15.442 -0.2866 -1.7223  0.5346
  145DOPC  C31617301   3.007   4.833  15.342  0.1083 -0.0284 -0.0175
  145DOPC  H16X17302   3.039   4.834  15.235 -0.1529 -2.1336 -0.1668
  145DOPC  H16Y17303   2.906   4.788  15.331  0.5241 -0.8505 -0.5736
  145DOPC  C31717304   3.000   4.976  15.394  0.3637 -0.9926  0.3046
  145DOPC  H17X17305   2.946   4.983  15.492  0.0906  0.5847  0.0690
  145DOPC  H17Y17306   3.101   5.015  15.418 -0.1601  0.8775 -0.3406
  145DOPC  C31817307   2.942   5.071  15.291 -0.4804 -0.1197  0.8066
  145DOPC  H18X17308   2.838   5.049  15.258 -0.3498  1.4906 -0.8188
  145DOPC  H18Y17309   2.937   5.169  15.344 -1.2883 -0.9087  2.2704
  145DOPC  H18Z17310   3.007   5.088  15.203  0.9094  0.5501  1.9376
  146DOPC     N17311   4.057   2.809  17.202  0.0120 -0.3286 -0.3032
  146DOPC   C1217312   4.158   2.848  17.097  0.5675  0.5795  0.7318
  146DOPC  H12A17313   4.237   2.775  17.088 -2.3922 -2.7799 -0.3082
  146DOPC  H12B17314   4.222   2.930  17.124  2.4936 -0.3805 -0.7042
  146DOPC   C1317315   4.100   2.824  17.338  0.7346 -0.1338  0.0660
  146DOPC  H13A17316   4.128   2.924  17.369 -0.2222 -0.0325  0.6390
  146DOPC  H13B17317   4.026   2.786  17.406  1.4172 -1.5422  0.0637
  146DOPC  H13C17318   4.191   2.767  17.348  0.5352 -0.5285 -0.3564
  146DOPC   C1417319   4.010   2.658  17.187 -0.3340 -0.8902  0.2779
  146DOPC  H14A17320   3.967   2.622  17.279 -0.4693 -0.1912  0.4913
  146DOPC  H14B17321   3.947   2.649  17.100 -1.3394  5.0683 -0.0021
  146DOPC  H14C17322   4.097   2.594  17.175  0.4102 -0.2879  2.0939
  146DOPC   C1517323   3.927   2.887  17.178  0.6608 -0.0854  0.0659
  146DOPC  H15A17324   3.950   2.988  17.206  1.8165 -0.8845  2.1759
  146DOPC  H15B17325   3.848   2.847  17.241  1.0237  0.8111  1.1200
  146DOPC  H15C17326   3.901   2.877  17.073  1.0568  1.6518 -0.2209
  146DOPC   C1117327   4.095   2.868  16.958 -0.1500 -0.2033  0.2364
  146DOPC  H11A17328   4.044   2.966  16.955  1.3291  0.5672 -0.8494
  146DOPC  H11B17329   4.186   2.874  16.894  0.5480  0.7295  1.2927
  146DOPC     P17330   3.879   2.772  16.844 -0.1416 -0.0956  0.2346
  146DOPC   O1317331   3.786   2.854  16.927  0.0196 -0.2134 -0.4215
  146DOPC   O1417332   3.833   2.636  16.805 -0.2991  0.3394 -0.6235
  146DOPC   O1217333   4.009   2.755  16.923 -0.2072 -0.3849 -0.1495
  146DOPC   O1117334   3.910   2.858  16.708 -0.0727  0.2230  0.0912
  146DOPC    C117335   3.965   2.780  16.602  0.5856 -0.2200  0.7595
  146DOPC    HA17336   3.926   2.827  16.509  1.1161  1.6155  1.4191
  146DOPC    HB17337   3.928   2.677  16.584  1.0257 -0.1768 -0.5413
  146DOPC    C217338   4.119   2.767  16.601 -0.6156  0.2631 -0.1869
  146DOPC    HS17339   4.149   2.690  16.674 -0.8740  1.1487  0.8870
  146DOPC   O2117340   4.180   2.892  16.641  0.0231  0.2703  0.8466
  146DOPC   C2117341   4.311   2.890  16.666 -0.4453  0.0948  0.0950
  146DOPC   O2217342   4.376   2.787  16.663  0.3070  0.2922 -0.3853
  146DOPC   C2217343   4.358   3.040  16.679 -0.1699 -0.5460 -0.4437
  146DOPC   H2R17344   4.401   3.050  16.781 -0.0956 -1.1917 -0.4134
  146DOPC   H2S17345   4.275   3.115  16.677  1.0978  0.9195 -0.2711
  146DOPC    C317346   4.162   2.724  16.459  0.2287 -0.6847  0.2936
  146DOPC    HX17347   4.271   2.719  16.439  0.0666  2.6399 -2.4386
  146DOPC    HY17348   4.142   2.818  16.403  2.4817 -0.8067 -0.8219
  146DOPC   O3117349   4.083   2.610  16.408 -0.5857  0.3895  0.2213
  146DOPC   C3117350   4.123   2.489  16.436  0.1196  0.4446 -1.0047
  146DOPC   O3217351   4.216   2.459  16.506  0.1898  0.4212  0.1331
  146DOPC   C3217352   4.035   2.390  16.363  0.1519 -0.4069  0.2752
  146DOPC   H2X17353   4.083   2.374  16.264 -0.4147  1.0782 -0.2709
  146DOPC   H2Y17354   4.033   2.289  16.408  1.7079 -1.5528 -2.0086
  146DOPC   C2317355   4.474   3.087  16.588  0.3564 -0.1770  0.0949
  146DOPC   H3R17356   4.433   3.097  16.486  0.9156  2.4055  0.0525
  146DOPC   H3S17357   4.562   3.019  16.587 -0.2667 -1.0000 -0.7851
  146DOPC   C2417358   4.524   3.227  16.614  0.0279 -0.5327 -0.0959
  146DOPC   H4R17359   4.602   3.255  16.540 -0.4580  0.5188 -0.2345
  146DOPC   H4S17360   4.588   3.226  16.704  0.8236 -2.2526 -0.6462
  146DOPC   C2517361   4.424   3.345  16.608  0.6837 -0.1915 -0.0781
  146DOPC   H5R17362   4.364   3.332  16.701  2.5377 -0.9888  1.0669
  146DOPC   H5S17363   4.358   3.325  16.520 -1.1767  1.2521  0.9108
  146DOPC   C2617364   4.482   3.486  16.612 -0.5183 -0.2493  0.0267
  146DOPC   H6R17365   4.585   3.472  16.651 -0.3579 -1.0278 -0.6454
  146DOPC   H6S17366   4.427   3.552  16.682  3.0235  1.1848  1.6830
  146DOPC   C2717367   4.485   3.565  16.479 -0.4139 -0.7409 -0.0898
  146DOPC   H7R17368   4.520   3.669  16.491  1.2958 -1.1506 -1.1902
  146DOPC   H7S17369   4.385   3.563  16.431 -0.2416 -0.2528 -0.4741
  146DOPC   C2817370   4.584   3.516  16.368 -0.5435 -0.4020 -0.1967
  146DOPC   H8R17371   4.680   3.486  16.415  0.7292  1.3923 -1.5193
  146DOPC   H8S17372   4.617   3.609  16.317  2.9096  0.1035  2.5694
  146DOPC   C2917373   4.517   3.416  16.282 -0.1271  0.2079 -0.1053
  146DOPC   H9R17374   4.450   3.341  16.326 -2.2154  1.6292 -0.7329
  146DOPC  C21017375   4.533   3.416  16.154 -0.8050  0.7004 -0.2980
  146DOPC  H10R17376   4.499   3.326  16.101 -0.1818  0.6841 -0.6850
  146DOPC  C21117377   4.606   3.512  16.058  0.6807 -0.5725 -0.2337
  146DOPC  H11R17378   4.634   3.609  16.104  0.0887 -0.3062 -0.4285
  146DOPC  H11S17379   4.536   3.542  15.978 -0.9702  1.1352  1.7332
  146DOPC  C21217380   4.730   3.442  16.000  0.8224 -0.3011  0.3314
  146DOPC  H12R17381   4.690   3.355  15.943  1.5488  0.0370 -0.7339
  146DOPC  H12S17382   4.786   3.392  16.081  2.3518  1.2748  0.3060
  146DOPC  C21317383   4.813   3.536  15.912 -0.2653 -0.0940  0.2688
  146DOPC  H13R17384   4.903   3.477  15.884  0.5098  0.7511  0.9485
  146DOPC  H13S17385   4.848   3.625  15.968 -0.4204  0.2519 -0.1725
  146DOPC  C21417386   4.740   3.592  15.787 -0.3117 -0.0863  0.6187
  146DOPC  H14R17387   4.814   3.656  15.735 -1.5357  1.1955  0.3842
  146DOPC  H14S17388   4.657   3.662  15.813  1.5654  2.7557 -0.5141
  146DOPC  C21517389   4.678   3.490  15.687 -0.1718  0.2521 -0.1923
  146DOPC  H15R17390   4.612   3.549  15.620 -1.5654 -0.2213  0.7005
  146DOPC  H15S17391   4.611   3.415  15.735  0.7201 -1.8532 -2.1056
  146DOPC  C21617392   4.790   3.423  15.614 -0.6624 -0.2208 -0.1418
  146DOPC  H16R17393   4.860   3.385  15.692 -1.5308  1.2896  1.4264
  146DOPC  H16S17394   4.857   3.490  15.556  0.4059 -1.7045 -0.6825
  146DOPC  C21717395   4.746   3.328  15.508 -0.0121  1.0614  0.2881
  146DOPC  H17R17396   4.688   3.387  15.434 -0.9576  0.5221  0.5702
  146DOPC  H17S17397   4.668   3.260  15.549 -0.1121  0.3685 -1.0139
  146DOPC  C21817398   4.862   3.245  15.444 -0.6403  1.3166 -0.4649
  146DOPC  H18R17399   4.910   3.309  15.366 -0.0216 -1.0163 -2.0999
  146DOPC  H18S17400   4.826   3.161  15.382 -1.2640 -0.0012  1.5833
  146DOPC  H18T17401   4.934   3.204  15.518 -0.8552  0.4997 -0.7046
  146DOPC   C3317402   3.894   2.449  16.338 -0.6491 -0.1752  0.6622
  146DOPC   H3X17403   3.906   2.521  16.254  0.4466 -0.9792  0.0938
  146DOPC   H3Y17404   3.852   2.497  16.429  0.4861 -0.4431  1.3560
  146DOPC   C3417405   3.802   2.342  16.290  1.1700  0.3216 -0.0880
  146DOPC   H4X17406   3.777   2.266  16.367  1.1854 -0.1069 -0.4969
  146DOPC   H4Y17407   3.850   2.287  16.206  0.6764  0.6060 -0.5621
  146DOPC   C3517408   3.668   2.407  16.245  0.1383  0.1820 -0.5734
  146DOPC   H5X17409   3.697   2.482  16.168  2.8944  0.2126  0.3834
  146DOPC   H5Y17410   3.621   2.466  16.326 -2.2955 -1.1178 -0.9404
  146DOPC   C3617411   3.571   2.305  16.194  0.1211  0.1311 -0.4975
  146DOPC   H6X17412   3.621   2.234  16.125 -0.4201  0.5096 -1.2820
  146DOPC   H6Y17413   3.538   2.237  16.276  3.9867 -1.3606  0.0243
  146DOPC   C3717414   3.455   2.363  16.110 -0.4706 -0.3342 -0.3411
  146DOPC   H7X17415   3.377   2.396  16.182 -0.0997 -1.4169  0.5920
  146DOPC   H7Y17416   3.481   2.450  16.047 -4.2979 -0.4174 -2.2907
  146DOPC   C3817417   3.405   2.254  16.018  0.2230  0.8163  0.1245
  146DOPC   H8X17418   3.361   2.172  16.079 -2.2311  2.0851  0.1654
  146DOPC   H8Y17419   3.488   2.213  15.956 -1.4773 -0.6240 -1.3761
  146DOPC   C3917420   3.300   2.298  15.924  0.9861 -0.1706  0.4012
  146DOPC   H9X17421   3.218   2.361  15.962  0.9468  0.3129 -0.4807
  146DOPC  C31017422   3.286   2.256  15.796  0.3381  0.3005 -0.5326
  146DOPC  H10X17423   3.213   2.297  15.724  1.0840  2.4622 -0.1192
  146DOPC  C31117424   3.374   2.161  15.722  0.3803 -0.3187  0.6585
  146DOPC  H11X17425   3.370   2.063  15.774 -3.0640 -0.1338  1.0005
  146DOPC  H11Y17426   3.473   2.211  15.725 -0.0949  0.6843  0.1003
  146DOPC  C31217427   3.332   2.119  15.575  0.4748 -0.2993  0.2557
  146DOPC  H12X17428   3.415   2.053  15.540  0.7701 -0.1723  0.7023
  146DOPC  H12Y17429   3.318   2.204  15.505  0.1843 -2.1381 -2.0603
  146DOPC  C31317430   3.211   2.028  15.560  0.2786 -0.4851  0.3002
  146DOPC  H13X17431   3.224   1.945  15.632  0.9669  0.1202  0.8888
  146DOPC  H13Y17432   3.118   2.073  15.601  0.0491 -1.3178  0.7053
  146DOPC  C31417433   3.197   1.982  15.412  0.5754  0.6038  0.3913
  146DOPC  H14X17434   3.207   2.059  15.332  2.5902 -0.6390 -0.6407
  146DOPC  H14Y17435   3.283   1.915  15.389  1.0403  1.0989  0.6635
  146DOPC  C31517436   3.072   1.892  15.399 -0.6480  0.3093 -0.0709
  146DOPC  H15X17437   2.983   1.953  15.425 -1.5808 -0.4049 -1.4404
  146DOPC  H15Y17438   3.087   1.818  15.480  0.3015 -1.4881 -1.8132
  146DOPC  C31617439   3.061   1.818  15.271 -0.2107  0.1882 -1.1930
  146DOPC  H16X17440   3.031   1.873  15.179  0.4370 -1.5254 -2.4756
  146DOPC  H16Y17441   3.159   1.766  15.263  0.5576  0.7518  2.7269
  146DOPC  C31717442   2.957   1.704  15.286  0.8527 -0.4033  0.1012
  146DOPC  H17X17443   2.997   1.623  15.351 -2.4151 -0.7132  2.0021
  146DOPC  H17Y17444   2.870   1.750  15.338  1.5251  0.4601  0.4860
  146DOPC  C31817445   2.915   1.646  15.154 -0.2030 -0.0167  0.3631
  146DOPC  H18X17446   2.884   1.734  15.092  2.3699  1.3289  0.8211
  146DOPC  H18Y17447   2.989   1.583  15.102 -1.5241 -2.5137  1.3674
  146DOPC  H18Z17448   2.831   1.574  15.165 -0.2418 -0.1551 -0.7313
  147DOPC     N17449   0.070   1.804  16.858  0.0911  1.2723 -0.2032
  147DOPC   C1217450   0.204   1.806  16.931  0.0200  0.2747 -0.5811
  147DOPC  H12A17451   0.239   1.710  16.965 -1.9995  0.3515  1.9936
  147DOPC  H12B17452   0.181   1.859  17.022 -0.5546  1.6673 -1.5081
  147DOPC   C1317453  -0.026   1.702  16.924 -0.0927  0.0535  0.3552
  147DOPC  H13A17454   0.004   1.599  16.911 -0.6165 -0.1519  0.7182
  147DOPC  H13B17455  -0.030   1.717  17.031  0.6791 -2.1724  0.7408
  147DOPC  H13C17456  -0.119   1.705  16.870  0.2699 -1.9552 -0.4788
  147DOPC   C1417457   0.095   1.735  16.719 -0.1251 -0.0916  0.3861
  147DOPC  H14A17458   0.159   1.795  16.656  0.5010 -0.6928  0.4309
  147DOPC  H14B17459   0.138   1.636  16.726  0.3181  0.2014  2.2521
  147DOPC  H14C17460  -0.006   1.723  16.683 -0.3718 -2.0044  1.5793
  147DOPC   C1517461   0.004   1.938  16.841 -0.4111  0.4060  0.6604
  147DOPC  H15A17462   0.022   2.011  16.919  1.3933 -0.4860  1.1193
  147DOPC  H15B17463  -0.102   1.921  16.830 -0.2045 -1.3011  1.0635
  147DOPC  H15C17464   0.033   1.989  16.750 -1.4707  1.4335  0.8755
  147DOPC   C1117465   0.321   1.872  16.861  0.2208 -0.2688  0.1023
  147DOPC  H11A17466   0.412   1.869  16.924 -0.0080 -3.9736  0.4704
  147DOPC  H11B17467   0.355   1.824  16.766  0.3375 -1.3894  0.6966
  147DOPC     P17468   0.321   2.117  16.943  0.2967 -0.5576  0.2920
  147DOPC   O1317469   0.383   2.061  17.060 -0.3498  0.4945 -0.0561
  147DOPC   O1417470   0.209   2.207  16.957  0.3396 -0.4613 -0.0749
  147DOPC   O1217471   0.290   2.005  16.829 -0.6086 -0.0960 -0.5375
  147DOPC   O1117472   0.424   2.207  16.871  0.2541 -0.0457  0.2016
  147DOPC    C117473   0.556   2.152  16.819 -0.5346 -0.4263 -0.3573
  147DOPC    HA17474   0.562   2.042  16.807 -1.0300 -0.8954  2.7416
  147DOPC    HB17475   0.638   2.173  16.892  0.1717 -0.7847 -1.0356
  147DOPC    C217476   0.601   2.223  16.685  0.3100  0.2312  0.6478
  147DOPC    HS17477   0.588   2.333  16.698  2.2946  0.5940 -0.1569
  147DOPC   O2117478   0.515   2.181  16.576 -0.4520 -0.2555 -0.2399
  147DOPC   C2117479   0.389   2.220  16.568 -0.0729 -0.0055 -0.0793
  147DOPC   O2217480   0.349   2.332  16.608 -0.1961 -0.4871  0.0037
  147DOPC   C2217481   0.303   2.109  16.503 -0.1040  0.4218  0.4236
  147DOPC   H2R17482   0.247   2.056  16.583  1.0414 -1.7264 -0.1240
  147DOPC   H2S17483   0.369   2.032  16.458  0.0067  1.0455 -0.5118
  147DOPC    C317484   0.745   2.193  16.655 -0.0918  0.1142  0.3535
  147DOPC    HX17485   0.757   2.083  16.644 -0.3348 -0.0242  1.4419
  147DOPC    HY17486   0.808   2.227  16.739  2.4178 -0.8031 -1.0370
  147DOPC   O3117487   0.793   2.266  16.535 -0.0141  0.3542 -0.1397
  147DOPC   C3117488   0.901   2.201  16.479 -0.1828 -0.1592  0.2772
  147DOPC   O3217489   0.964   2.115  16.535 -0.2343 -0.0955 -0.6364
  147DOPC   C3217490   0.933   2.260  16.341  0.2520 -0.9646 -0.4429
  147DOPC   H2X17491   0.858   2.212  16.273 -0.2069 -0.8858  0.0049
  147DOPC   H2Y17492   0.902   2.365  16.357  0.7917 -1.0725  1.5647
  147DOPC   C2317493   0.228   2.160  16.375 -0.2443  0.0791 -0.6228
  147DOPC   H3R17494   0.233   2.074  16.304  0.7163 -1.5177  1.2787
  147DOPC   H3S17495   0.270   2.255  16.338 -0.9225  1.3365  1.6302
  147DOPC   C2417496   0.079   2.176  16.414  0.0634  0.8682  0.6551
  147DOPC   H4R17497   0.023   2.224  16.332  0.8023  1.9687  0.7734
  147DOPC   H4S17498   0.065   2.242  16.502  1.8585  1.6326  0.3995
  147DOPC   C2517499   0.003   2.037  16.434 -0.5726 -0.3401  0.4541
  147DOPC   H5R17500  -0.091   2.060  16.490 -0.6171  0.8516 -0.0747
  147DOPC   H5S17501   0.073   1.977  16.495  2.3142 -1.6001 -3.6473
  147DOPC   C2617502  -0.033   1.960  16.307 -0.1341 -0.0624  0.3474
  147DOPC   H6R17503   0.046   1.986  16.233  0.2388 -1.0286  0.3894
  147DOPC   H6S17504  -0.128   2.009  16.276 -0.6122 -0.2400  1.4835
  147DOPC   C2717505  -0.051   1.812  16.336 -0.1879  0.4156  0.0572
  147DOPC   H7R17506  -0.126   1.791  16.416 -0.2907 -0.7559 -0.3146
  147DOPC   H7S17507   0.039   1.774  16.389 -1.5061  0.0710  2.2017
  147DOPC   C2817508  -0.071   1.715  16.212 -0.6831 -0.1107 -0.2309
  147DOPC   H8R17509  -0.071   1.609  16.245 -0.5824 -0.0670 -0.0906
  147DOPC   H8S17510   0.016   1.737  16.147 -0.5092  0.2603  0.1219
  147DOPC   C2917511  -0.198   1.745  16.135  0.4166 -0.8528  0.1610
  147DOPC   H9R17512  -0.201   1.844  16.087 -2.4770  0.2559  2.2972
  147DOPC  C21017513  -0.302   1.665  16.107  0.3306  0.1247 -0.8407
  147DOPC  H10R17514  -0.398   1.700  16.066  1.3644  1.7174 -1.9949
  147DOPC  C21117515  -0.313   1.526  16.156 -0.5004  0.1962  0.1107
  147DOPC  H11R17516  -0.370   1.518  16.251  1.3698 -0.1374  1.2587
  147DOPC  H11S17517  -0.211   1.485  16.172 -1.3442 -2.3566 -0.4539
  147DOPC  C21217518  -0.377   1.433  16.047 -0.0532  0.4204  0.1896
  147DOPC  H12R17519  -0.292   1.421  15.977  1.9106 -1.7515  2.7388
  147DOPC  H12S17520  -0.469   1.476  16.001 -2.5885 -3.0646  1.5003
  147DOPC  C21317521  -0.404   1.290  16.103  0.2939  0.0118  0.4942
  147DOPC  H13R17522  -0.322   1.250  16.167 -0.1293 -0.8958  0.4808
  147DOPC  H13S17523  -0.414   1.233  16.008  0.2025  0.2999  0.3318
  147DOPC  C21417524  -0.540   1.284  16.183 -0.0021  0.5953  0.2548
  147DOPC  H14R17525  -0.623   1.338  16.132  0.3028 -0.0824 -1.0119
  147DOPC  H14S17526  -0.515   1.330  16.280 -0.8188 -0.9600  1.2495
  147DOPC  C21517527  -0.583   1.140  16.215 -0.4353  0.6453 -0.0033
  147DOPC  H15R17528  -0.648   1.150  16.305  0.1213 -0.6495  0.5636
  147DOPC  H15S17529  -0.499   1.068  16.226 -0.3980  0.7236  0.2300
  147DOPC  C21617530  -0.672   1.086  16.104 -0.1107  0.6669  0.3519
  147DOPC  H16R17531  -0.617   1.087  16.008 -1.6336  0.5482 -0.5415
  147DOPC  H16S17532  -0.756   1.158  16.093  0.8112  1.9284  1.1845
  147DOPC  C21717533  -0.739   0.958  16.139 -0.1679  0.3016 -0.1731
  147DOPC  H17R17534  -0.806   0.974  16.226 -0.4007  1.2217 -0.5195
  147DOPC  H17S17535  -0.660   0.883  16.161 -0.7512 -0.0354  0.8696
  147DOPC  C21817536  -0.820   0.894  16.029 -0.1730 -0.8234  0.1360
  147DOPC  H18R17537  -0.760   0.889  15.936 -0.8995  1.7118 -0.5594
  147DOPC  H18S17538  -0.915   0.949  16.010 -0.7068 -1.6108  0.4738
  147DOPC  H18T17539  -0.834   0.791  16.069  0.1773 -1.1500 -0.5505
  147DOPC   C3317540   1.080   2.240  16.296 -0.6388 -0.6100 -0.3571
  147DOPC   H3X17541   1.096   2.130  16.299 -2.1730 -0.8452  0.5367
  147DOPC   H3Y17542   1.157   2.292  16.358 -2.2633  0.3657  0.9277
  147DOPC   C3417543   1.104   2.289  16.151  0.0812 -0.0817  0.1190
  147DOPC   H4X17544   1.123   2.398  16.155  0.7307 -0.1229 -1.0762
  147DOPC   H4Y17545   1.021   2.265  16.081  1.2235 -1.0403 -0.9765
  147DOPC   C3517546   1.234   2.237  16.088 -0.0193  0.1294  0.1155
  147DOPC   H5X17547   1.236   2.253  15.978  3.1889 -1.0998 -0.0968
  147DOPC   H5Y17548   1.244   2.129  16.112  0.0761  0.0931 -0.0836
  147DOPC   C3617549   1.360   2.311  16.145  0.1923 -0.0085 -0.4124
  147DOPC   H6X17550   1.345   2.419  16.119  0.0594 -0.5948 -3.1378
  147DOPC   H6Y17551   1.363   2.290  16.254  0.2957 -1.5858 -0.6984
  147DOPC   C3717552   1.496   2.273  16.085  0.8653  1.0922 -0.0346
  147DOPC   H7X17553   1.534   2.171  16.107  2.7760  1.5323 -1.0538
  147DOPC   H7Y17554   1.485   2.272  15.974 -0.3240  1.0115  0.0723
  147DOPC   C3817555   1.599   2.370  16.132 -0.5098 -0.4769 -0.4430
  147DOPC   H8X17556   1.563   2.475  16.130 -0.3630 -0.3987  0.4462
  147DOPC   H8Y17557   1.690   2.374  16.068  0.0648  2.2636  0.4124
  147DOPC   C3917558   1.646   2.345  16.276  0.3053 -0.0854  0.2949
  147DOPC   H9X17559   1.578   2.386  16.353  1.0239 -0.8237  1.3468
  147DOPC  C31017560   1.762   2.291  16.317 -0.8149  1.0737  0.1100
  147DOPC  H10X17561   1.793   2.284  16.422 -0.8041  1.3860  0.1287
  147DOPC  C31117562   1.862   2.227  16.220  0.6649 -0.5482  0.5298
  147DOPC  H11X17563   1.953   2.291  16.219  0.8794 -0.8505 -0.0159
  147DOPC  H11Y17564   1.828   2.224  16.115  0.9353  1.1448  0.3611
  147DOPC  C31217565   1.912   2.096  16.271  0.0545 -0.0332  0.3490
  147DOPC  H12X17566   1.979   2.109  16.358  2.6368  1.3239 -1.7157
  147DOPC  H12Y17567   1.980   2.068  16.188  0.3634  1.7987 -0.0465
  147DOPC  C31317568   1.803   1.989  16.293  0.2989 -0.6485 -0.3428
  147DOPC  H13X17569   1.722   2.038  16.350 -0.1636 -0.1249 -1.4210
  147DOPC  H13Y17570   1.755   1.969  16.195  0.7509 -1.4728 -0.4003
  147DOPC  C31417571   1.854   1.859  16.355  0.3859 -0.0335  0.0894
  147DOPC  H14X17572   1.780   1.778  16.337  1.0009 -0.5339 -0.2189
  147DOPC  H14Y17573   1.941   1.824  16.295 -0.3075 -0.9216 -0.4357
  147DOPC  C31517574   1.900   1.891  16.495  0.5304 -1.0108 -0.0057
  147DOPC  H15X17575   1.833   1.968  16.540 -0.6129 -1.6490 -0.5697
  147DOPC  H15Y17576   2.005   1.927  16.501 -1.0448  4.4333  0.3540
  147DOPC  C31617577   1.894   1.761  16.579 -0.2543 -0.4364 -0.6741
  147DOPC  H16X17578   1.789   1.725  16.584 -0.6011  0.7177  1.2563
  147DOPC  H16Y17579   1.957   1.676  16.542  1.4496  1.4255 -2.2870
  147DOPC  C31717580   1.933   1.776  16.726 -0.2852  0.6012  0.5152
  147DOPC  H17X17581   2.044   1.765  16.728 -0.0520  2.5848  0.3721
  147DOPC  H17Y17582   1.909   1.878  16.763 -0.1771  0.1021  2.0368
  147DOPC  C31817583   1.856   1.678  16.815 -0.3502  0.4650  0.4103
  147DOPC  H18X17584   1.858   1.574  16.777  1.5458  0.1479  1.2461
  147DOPC  H18Y17585   1.915   1.671  16.909  0.0867 -1.7832  0.0259
  147DOPC  H18Z17586   1.758   1.720  16.845 -1.8163 -2.5240  0.1481
  148DOPC     N17587   2.635   4.847  17.245 -0.0387 -0.2607 -0.1828
  148DOPC   C1217588   2.541   4.931  17.151 -0.0826  0.2234 -0.3630
  148DOPC  H12A17589   2.585   5.029  17.139 -1.7684  1.4476  2.4246
  148DOPC  H12B17590   2.450   4.950  17.205 -0.7306 -2.6655 -0.2660
  148DOPC   C1317591   2.755   4.801  17.173  0.4602  0.6017 -0.1703
  148DOPC  H13A17592   2.827   4.865  17.124  3.3970 -1.3698  1.2704
  148DOPC  H13B17593   2.809   4.736  17.240  0.5484 -0.0304 -0.8383
  148DOPC  H13C17594   2.723   4.726  17.102 -2.2575 -0.0565  1.5932
  148DOPC   C1417595   2.561   4.730  17.308 -0.0087 -0.3820  0.2511
  148DOPC  H14A17596   2.468   4.760  17.353 -1.0697 -0.4869 -1.7465
  148DOPC  H14B17597   2.545   4.658  17.229 -1.0912 -1.1073  1.1086
  148DOPC  H14C17598   2.625   4.687  17.383  0.5801  0.4384  0.2423
  148DOPC   C1517599   2.679   4.930  17.356 -0.1000 -0.1042 -0.0120
  148DOPC  H15A17600   2.590   4.961  17.410  0.0061 -1.2061  0.8299
  148DOPC  H15B17601   2.731   5.023  17.337  0.3741 -0.1313  1.0716
  148DOPC  H15C17602   2.734   4.874  17.430 -3.0796 -2.4777  0.5959
  148DOPC   C1117603   2.500   4.877  17.013 -0.2461  0.2744  0.0635
  148DOPC  H11A17604   2.474   4.949  16.932 -0.4185  0.0631 -0.0736
  148DOPC  H11B17605   2.591   4.832  16.968  1.4866  1.4189  2.2716
  148DOPC     P17606   2.260   4.835  17.084  0.2358 -0.1957  0.0124
  148DOPC   O1317607   2.280   4.901  17.213 -0.6721  0.8090 -0.3186
  148DOPC   O1417608   2.162   4.726  17.071  0.3248 -0.2646  0.1174
  148DOPC   O1217609   2.390   4.788  17.024 -0.2622  0.2490 -0.2221
  148DOPC   O1117610   2.228   4.957  16.987  0.1236  0.1018 -0.1569
  148DOPC    C117611   2.207   4.933  16.845  0.0708 -0.7454  0.0777
  148DOPC    HA17612   2.113   4.879  16.818 -0.9295  0.9178  0.1284
  148DOPC    HB17613   2.291   4.876  16.799  0.5271  0.9378 -1.3108
  148DOPC    C217614   2.184   5.066  16.763 -0.0967  0.1920 -0.1963
  148DOPC    HS17615   2.268   5.131  16.798 -0.1365  1.0418 -1.5842
  148DOPC   O2117616   2.059   5.116  16.801  0.8596 -1.0274  0.7134
  148DOPC   C2117617   2.035   5.247  16.773 -0.0578 -0.0112  0.2242
  148DOPC   O2217618   2.108   5.321  16.710  0.4356 -0.2118 -0.2192
  148DOPC   C2217619   1.898   5.291  16.832  0.3608  0.3343 -0.2197
  148DOPC   H2R17620   1.930   5.340  16.927 -2.1103 -0.6940  1.2546
  148DOPC   H2S17621   1.838   5.201  16.856  0.8344 -0.0888 -0.5891
  148DOPC    C317622   2.212   5.060  16.607 -0.6161  0.3670 -0.4215
  148DOPC    HX17623   2.245   5.160  16.570  0.4516  0.6358  1.1533
  148DOPC    HY17624   2.115   5.024  16.565 -0.4664 -1.5707  0.7620
  148DOPC   O3117625   2.304   4.949  16.583 -0.1324  0.0330  0.2887
  148DOPC   C3117626   2.431   4.981  16.595  0.0841 -0.0398 -0.2755
  148DOPC   O3217627   2.477   5.093  16.624  0.6564 -0.1125  0.1023
  148DOPC   C3217628   2.513   4.849  16.579 -0.3227 -0.6686 -0.4141
  148DOPC   H2X17629   2.556   4.828  16.679  0.5712  1.6163 -0.2557
  148DOPC   H2Y17630   2.450   4.766  16.538 -1.7356  0.4584 -0.6098
  148DOPC   C2317631   1.823   5.397  16.750 -0.0567  0.1583  0.1956
  148DOPC   H3R17632   1.891   5.473  16.706  0.1123  0.8157  1.5633
  148DOPC   H3S17633   1.762   5.459  16.819 -1.7224  1.0410 -1.9646
  148DOPC   C2417634   1.727   5.341  16.643  0.1383 -0.9378  0.0837
  148DOPC   H4R17635   1.658   5.426  16.623  0.1029 -1.3296 -1.6560
  148DOPC   H4S17636   1.667   5.268  16.700 -0.0958 -0.5630  0.3186
  148DOPC   C2517637   1.794   5.265  16.527 -0.0288 -0.0465 -0.3289
  148DOPC   H5R17638   1.707   5.246  16.461 -0.5436 -1.1298  0.6079
  148DOPC   H5S17639   1.845   5.170  16.555  3.0023  1.4110 -0.4361
  148DOPC   C2617640   1.878   5.360  16.445  0.2598 -0.4477  0.3443
  148DOPC   H6R17641   1.972   5.379  16.503  0.5213  0.6266 -0.3997
  148DOPC   H6S17642   1.826   5.455  16.422  1.3300  0.0239 -0.2152
  148DOPC   C2717643   1.921   5.297  16.309 -0.3335 -0.1701 -0.8059
  148DOPC   H7R17644   1.957   5.194  16.331  0.2091  0.5374  1.9704
  148DOPC   H7S17645   2.010   5.359  16.284 -1.7186  1.7529 -1.2084
  148DOPC   C2817646   1.826   5.306  16.192  0.6870  0.0411  0.2007
  148DOPC   H8R17647   1.798   5.413  16.181 -0.6448 -0.3204 -0.1176
  148DOPC   H8S17648   1.733   5.250  16.217  1.0458 -1.0422 -0.8054
  148DOPC   C2917649   1.898   5.257  16.068  0.4999  0.0298 -0.0485
  148DOPC   H9R17650   2.005   5.284  16.071  0.7334 -0.7393 -0.9044
  148DOPC  C21017651   1.846   5.209  15.950  0.1793  0.0745 -0.0287
  148DOPC  H10R17652   1.920   5.186  15.872 -0.4790  1.4322 -1.0860
  148DOPC  C21117653   1.703   5.173  15.926  0.6868  0.2189 -0.2895
  148DOPC  H11R17654   1.659   5.136  16.021  1.1420 -0.7956 -0.4641
  148DOPC  H11S17655   1.695   5.079  15.868 -0.7365  0.8762 -1.2212
  148DOPC  C21217656   1.613   5.283  15.863  0.0397 -0.5854  0.3969
  148DOPC  H12R17657   1.602   5.369  15.932 -0.6582  1.1822 -1.8085
  148DOPC  H12S17658   1.514   5.234  15.852 -0.1133  0.1592 -2.0786
  148DOPC  C21317659   1.658   5.330  15.724  0.5514  0.0909 -0.2571
  148DOPC  H13R17660   1.759   5.375  15.737  1.9140 -3.2151  2.2642
  148DOPC  H13S17661   1.589   5.410  15.690  2.8267  2.2599 -0.0337
  148DOPC  C21417662   1.660   5.220  15.623 -0.0327 -0.1240  0.0309
  148DOPC  H14R17663   1.564   5.166  15.611 -0.9913  1.2125  1.3611
  148DOPC  H14S17664   1.726   5.141  15.665  0.6964 -0.1537 -1.1255
  148DOPC  C21517665   1.715   5.260  15.490 -0.2939 -0.2459  0.2000
  148DOPC  H15R17666   1.818   5.300  15.503 -0.1286 -0.5862 -0.0570
  148DOPC  H15S17667   1.651   5.344  15.454  1.5962 -0.4230 -4.1795
  148DOPC  C21617668   1.717   5.151  15.385 -0.2220 -0.8743  0.1850
  148DOPC  H16R17669   1.609   5.137  15.365 -0.9675  1.8531  1.7724
  148DOPC  H16S17670   1.737   5.052  15.431 -0.8519 -0.0715  2.3248
  148DOPC  C21717671   1.806   5.190  15.258  0.4118  0.6455  0.3763
  148DOPC  H17R17672   1.908   5.198  15.300 -0.5364 -2.4363  3.8580
  148DOPC  H17S17673   1.768   5.292  15.236  0.1230  0.6960  1.1055
  148DOPC  C21817674   1.798   5.086  15.143 -0.5054 -0.4578  0.0418
  148DOPC  H18R17675   1.710   5.020  15.156  0.4645 -1.4478  1.9902
  148DOPC  H18S17676   1.876   5.008  15.153 -1.5460 -1.7044 -1.2990
  148DOPC  H18T17677   1.808   5.131  15.041 -1.5514  1.1527  0.6066
  148DOPC   C3317678   2.614   4.849  16.463 -0.1180  0.1912 -0.1039
  148DOPC   H3X17679   2.648   4.745  16.444 -1.6657 -0.1436 -1.3202
  148DOPC   H3Y17680   2.704   4.904  16.496 -0.6012  1.9447 -1.5417
  148DOPC   C3417681   2.570   4.923  16.341  0.1936 -0.5393  0.3252
  148DOPC   H4X17682   2.548   5.031  16.360 -0.7032 -0.2049 -2.1949
  148DOPC   H4Y17683   2.478   4.869  16.312  0.7720 -0.2132 -2.3058
  148DOPC   C3517684   2.674   4.916  16.224 -0.2398 -0.1705  0.4667
  148DOPC   H5X17685   2.690   4.809  16.196  1.2297  0.7089 -2.5387
  148DOPC   H5Y17686   2.772   4.955  16.259 -0.9508  0.2161  2.0884
  148DOPC   C3617687   2.636   4.988  16.094  0.4468 -0.2016  0.3087
  148DOPC   H6X17688   2.527   4.973  16.080  0.2818  1.6027 -0.5864
  148DOPC   H6Y17689   2.663   5.095  16.106  0.9368 -0.5168  2.4042
  148DOPC   C3717690   2.714   4.932  15.969  0.7800  0.7665  0.6717
  148DOPC   H7X17691   2.816   4.907  16.005 -0.0607 -0.2548  2.4676
  148DOPC   H7Y17692   2.669   4.833  15.948  1.8965  0.3344  0.2373
  148DOPC   C3817693   2.719   5.027  15.848 -0.1723 -0.2754  1.0419
  148DOPC   H8X17694   2.773   4.971  15.769 -0.0505  1.8937 -0.4915
  148DOPC   H8Y17695   2.785   5.115  15.863 -0.3287  0.3410 -1.4279
  148DOPC   C3917696   2.576   5.061  15.806  0.8969 -0.9018 -0.0732
  148DOPC   H9X17697   2.540   5.129  15.884  2.2451  0.1070 -0.2970
  148DOPC  C31017698   2.513   5.006  15.703 -0.1562  0.4447 -0.4782
  148DOPC  H10X17699   2.406   5.021  15.684 -0.6163 -1.8222  0.0978
  148DOPC  C31117700   2.563   4.906  15.601 -0.0328 -0.6020 -0.4396
  148DOPC  H11X17701   2.482   4.835  15.572 -0.1018 -1.7686  2.3182
  148DOPC  H11Y17702   2.642   4.851  15.656  0.6518  0.6388 -0.1375
  148DOPC  C31217703   2.633   4.978  15.484  0.1122 -0.1847 -0.4446
  148DOPC  H12X17704   2.695   4.908  15.424 -1.2554 -2.0695  0.2531
  148DOPC  H12Y17705   2.695   5.060  15.526  0.2688 -1.5100  2.1200
  148DOPC  C31317706   2.530   5.041  15.386 -0.1974  0.6303  0.0545
  148DOPC  H13X17707   2.460   5.102  15.446 -1.0435  0.0634 -0.3311
  148DOPC  H13Y17708   2.592   5.096  15.313  1.6998 -0.0206  1.0803
  148DOPC  C31417709   2.449   4.938  15.307 -0.3683  0.1132 -0.1983
  148DOPC  H14X17710   2.526   4.886  15.246 -0.2202  1.1803 -0.9477
  148DOPC  H14Y17711   2.396   4.872  15.379  1.5197  1.7026  2.8565
  148DOPC  C31517712   2.349   5.013  15.214  1.0404  0.4249  0.0405
  148DOPC  H15X17713   2.398   5.101  15.168  0.7247  0.1731 -0.7855
  148DOPC  H15Y17714   2.259   5.039  15.274 -0.6321 -0.5690 -1.9299
  148DOPC  C31617715   2.294   4.929  15.092 -0.4251  0.4924  0.4278
  148DOPC  H16X17716   2.375   4.888  15.028 -0.5691 -0.9747  1.1320
  148DOPC  H16Y17717   2.245   4.839  15.136  0.0597 -0.2490 -0.5036
  148DOPC  C31717718   2.189   5.010  15.017  0.1736  0.1945  1.3609
  148DOPC  H17X17719   2.098   5.015  15.081  0.9663  0.8832  2.4636
  148DOPC  H17Y17720   2.238   5.109  15.028  0.1099  0.0970  2.6857
  148DOPC  C31817721   2.175   4.981  14.868 -0.5873  0.0715 -0.6002
  148DOPC  H18X17722   2.095   5.046  14.828 -1.4438 -0.4627  0.1930
  148DOPC  H18Y17723   2.267   4.991  14.807 -0.5182 -0.7047 -0.6348
  148DOPC  H18Z17724   2.137   4.877  14.855 -3.2971  0.6383  1.9419
  149DOPC     N17725   1.755   0.911  17.522  0.2404 -0.4067 -1.1828
  149DOPC   C1217726   1.708   0.979  17.390 -0.5855 -0.6159 -0.5533
  149DOPC  H12A17727   1.679   1.077  17.422  0.4620 -1.2835  2.8194
  149DOPC  H12B17728   1.621   0.921  17.360  0.6272 -2.8205 -0.0573
  149DOPC   C1317729   1.801   0.769  17.495  0.7418 -0.5345  0.7825
  149DOPC  H13A17730   1.844   0.736  17.589  1.8994  0.8798  0.7916
  149DOPC  H13B17731   1.710   0.719  17.466 -0.1452  2.2153 -1.5922
  149DOPC  H13C17732   1.880   0.756  17.423  1.1611  1.6829  0.7732
  149DOPC   C1417733   1.635   0.911  17.616 -0.0759  0.0952 -0.3417
  149DOPC  H14A17734   1.551   0.862  17.570 -1.1560  1.2456  0.3531
  149DOPC  H14B17735   1.667   0.862  17.707  0.3608 -0.1033 -0.5980
  149DOPC  H14C17736   1.599   1.009  17.642 -0.2423  0.0062 -0.2339
  149DOPC   C1517737   1.871   0.992  17.592  0.2365 -0.2271  0.0881
  149DOPC  H15A17738   1.844   1.093  17.617 -0.2209 -0.4378  0.4703
  149DOPC  H15B17739   1.957   0.996  17.527  0.4586  0.2793  0.4057
  149DOPC  H15C17740   1.910   0.941  17.678 -0.8499 -0.6180  0.3659
  149DOPC   C1117741   1.797   0.978  17.268  0.0287  0.1757 -0.5768
  149DOPC  H11A17742   1.808   0.876  17.225  1.0515 -0.2937  0.7442
  149DOPC  H11B17743   1.738   1.034  17.192 -1.0813 -0.7791 -0.4597
  149DOPC     P17744   1.943   1.196  17.296 -0.2704  0.0866  0.3136
  149DOPC   O1317745   2.017   1.231  17.423 -0.1407 -0.2777 -0.0088
  149DOPC   O1417746   1.809   1.254  17.285 -0.1573  0.7845  0.5304
  149DOPC   O1217747   1.925   1.036  17.289  0.0094 -0.0295 -0.5867
  149DOPC   O1117748   2.030   1.229  17.168  0.4869 -0.0572  0.0041
  149DOPC    C117749   2.143   1.155  17.126  0.3114  0.2253  0.2628
  149DOPC    HA17750   2.166   1.072  17.195  0.0934 -0.2718 -0.2516
  149DOPC    HB17751   2.237   1.214  17.123  1.5604 -1.7028 -0.2444
  149DOPC    C217752   2.114   1.095  16.975 -0.2661 -0.2805 -1.1111
  149DOPC    HS17753   2.202   1.039  16.935  0.4463  1.0440 -1.4855
  149DOPC   O2117754   2.078   1.196  16.879 -0.3482  0.4151  0.2140
  149DOPC   C2117755   2.174   1.262  16.838  0.4026  0.2762  0.1115
  149DOPC   O2217756   2.295   1.265  16.874  0.2941  0.1374  0.0796
  149DOPC   C2217757   2.124   1.337  16.721  0.3703  0.0484  0.0940
  149DOPC   H2R17758   2.067   1.420  16.769  0.3497  0.7551 -1.1222
  149DOPC   H2S17759   2.055   1.285  16.651  1.7272 -1.5694 -0.0917
  149DOPC    C317760   2.006   0.990  16.980  1.1020 -0.1417  0.2844
  149DOPC    HX17761   1.914   1.047  17.002 -0.6049 -1.2407 -3.2349
  149DOPC    HY17762   2.028   0.912  17.056  0.6743 -2.9307 -2.2535
  149DOPC   O3117763   1.990   0.909  16.862 -0.2703  0.4245 -0.0900
  149DOPC   C3117764   1.871   0.855  16.844 -0.5683 -0.1779  0.6872
  149DOPC   O3217765   1.790   0.828  16.925  0.2816  0.4293 -0.6940
  149DOPC   C3217766   1.846   0.819  16.695 -0.4271 -0.7550 -0.3525
  149DOPC   H2X17767   1.737   0.796  16.690 -0.8504  0.4433  1.9313
  149DOPC   H2Y17768   1.858   0.911  16.634  2.0247 -0.5508  0.3512
  149DOPC   C2317769   2.237   1.409  16.646 -0.2865  0.3792  0.7262
  149DOPC   H3R17770   2.310   1.335  16.606 -0.0765  1.2461 -0.5524
  149DOPC   H3S17771   2.282   1.476  16.723 -1.2312  0.9798  0.7657
  149DOPC   C2417772   2.187   1.480  16.518  0.1029  0.8386 -1.0230
  149DOPC   H4R17773   2.175   1.586  16.548  0.4053  0.0216  2.4836
  149DOPC   H4S17774   2.087   1.438  16.492 -0.0504  1.3292 -1.2428
  149DOPC   C2517775   2.283   1.470  16.409 -0.9388 -0.9416 -0.0898
  149DOPC   H5R17776   2.309   1.365  16.385 -1.2527 -1.4710  1.7199
  149DOPC   H5S17777   2.377   1.521  16.438 -0.5820 -2.5384  1.8278
  149DOPC   C2617778   2.222   1.536  16.277 -0.2414  0.0680  0.1804
  149DOPC   H6R17779   2.116   1.506  16.265 -0.2370  0.2006 -0.2064
  149DOPC   H6S17780   2.279   1.487  16.196  0.1126 -1.1002  1.1089
  149DOPC   C2717781   2.247   1.690  16.265  0.4734 -0.0077  0.3749
  149DOPC   H7R17782   2.354   1.722  16.266  0.9096 -1.2984 -1.1860
  149DOPC   H7S17783   2.205   1.731  16.359 -2.0194 -2.6944  0.5847
  149DOPC   C2817784   2.170   1.746  16.143 -0.4294  0.1051 -0.1368
  149DOPC   H8R17785   2.152   1.855  16.154 -3.1142 -0.3115  0.2174
  149DOPC   H8S17786   2.068   1.704  16.156 -0.3287  0.0579  0.5928
  149DOPC   C2917787   2.233   1.707  16.014  0.2068  0.2310  0.0806
  149DOPC   H9R17788   2.304   1.624  16.022 -0.4527 -0.2083  1.6495
  149DOPC  C21017789   2.204   1.782  15.907  0.2233 -1.0128  0.0313
  149DOPC  H10R17790   2.239   1.741  15.811 -0.6718 -0.9269 -0.3395
  149DOPC  C21117791   2.116   1.907  15.901  0.2078  0.0149 -0.2145
  149DOPC  H11R17792   2.141   1.952  15.802  0.5290  0.9458  0.2779
  149DOPC  H11S17793   2.132   1.988  15.975  1.4716 -2.0857  1.9775
  149DOPC  C21217794   1.971   1.873  15.906  0.7650  0.1333 -0.3763
  149DOPC  H12R17795   1.934   1.831  16.002  0.6642 -1.1476 -0.9531
  149DOPC  H12S17796   1.937   1.793  15.836  0.3062 -0.5668  0.6235
  149DOPC  C21317797   1.873   1.990  15.894  0.9398  0.1205 -0.1150
  149DOPC  H13R17798   1.895   2.049  15.802  0.6433  0.8137  0.2547
  149DOPC  H13S17799   1.886   2.048  15.988  1.1892 -0.5937  0.2985
  149DOPC  C21417800   1.725   1.956  15.881 -0.0155  0.1145  0.1518
  149DOPC  H14R17801   1.683   1.930  15.980 -0.6688  1.5171  0.2652
  149DOPC  H14S17802   1.703   1.872  15.812 -0.3408 -1.3911  2.0234
  149DOPC  C21517803   1.636   2.079  15.822 -0.6462  0.0585  0.4915
  149DOPC  H15R17804   1.688   2.129  15.737 -2.2655 -1.0187 -1.2202
  149DOPC  H15S17805   1.638   2.159  15.899  0.1448  0.8269 -0.3055
  149DOPC  C21617806   1.494   2.041  15.769  1.1393  0.5788 -0.0683
  149DOPC  H16R17807   1.431   2.018  15.858 -1.9675  1.6977 -1.8357
  149DOPC  H16S17808   1.511   1.948  15.710  0.2708  0.0587  0.4802
  149DOPC  C21717809   1.421   2.159  15.692  0.4323 -0.0653 -0.9309
  149DOPC  H17R17810   1.434   2.251  15.752  0.6231 -1.1419  0.7397
  149DOPC  H17S17811   1.314   2.130  15.686  0.6139 -0.8387 -0.5588
  149DOPC  C21817812   1.476   2.184  15.547  0.2362  0.1524  0.1832
  149DOPC  H18R17813   1.474   2.089  15.490  0.5774 -1.7516  3.1664
  149DOPC  H18S17814   1.578   2.227  15.553 -0.1834  1.0338  1.3196
  149DOPC  H18T17815   1.404   2.253  15.497  0.5963  0.4539  0.0751
  149DOPC   C3317816   1.925   0.706  16.632  0.0109  0.3599 -0.5968
  149DOPC   H3X17817   1.870   0.616  16.667  0.4893  0.3062  0.0445
  149DOPC   H3Y17818   2.025   0.690  16.679 -2.1555  0.8935  4.9987
  149DOPC   C3417819   1.947   0.713  16.481 -0.3082 -0.1037 -0.1936
  149DOPC   H4X17820   1.860   0.747  16.420  0.6252 -1.3575 -2.3160
  149DOPC   H4Y17821   1.976   0.609  16.454  2.0783  0.7538 -1.1881
  149DOPC   C3517822   2.061   0.804  16.439  0.3864 -0.0599  0.5436
  149DOPC   H5X17823   2.155   0.780  16.493 -0.3850  0.0687  1.9947
  149DOPC   H5Y17824   2.041   0.910  16.464  0.5341  0.2601 -0.6296
  149DOPC   C3617825   2.087   0.797  16.289  0.3275  0.4682  0.6353
  149DOPC   H6X17826   1.995   0.842  16.247  0.4039  0.3868  0.3851
  149DOPC   H6Y17827   2.167   0.870  16.266  0.3075  0.7546  1.4267
  149DOPC   C3717828   2.130   0.667  16.220  0.1263 -0.8072 -0.3574
  149DOPC   H7X17829   2.227   0.623  16.253  0.4273  0.0323 -0.0911
  149DOPC   H7Y17830   2.049   0.593  16.240 -0.8830  0.3587 -0.0486
  149DOPC   C3817831   2.125   0.684  16.070 -0.2784  0.4661  0.6283
  149DOPC   H8X17832   2.021   0.706  16.036 -0.3702 -1.7640 -0.7416
  149DOPC   H8Y17833   2.160   0.588  16.024 -4.0614 -0.8469  0.1103
  149DOPC   C3917834   2.209   0.793  16.006  1.0981  0.9291 -0.2903
  149DOPC   H9X17835   2.246   0.875  16.070  0.6342 -0.1445  1.4411
  149DOPC  C31017836   2.240   0.790  15.873  0.3608  0.5605 -0.1788
  149DOPC  H10X17837   2.291   0.877  15.828 -0.2966  0.1204 -1.8408
  149DOPC  C31117838   2.195   0.692  15.771  0.2746  0.1579  0.0609
  149DOPC  H11X17839   2.090   0.714  15.744  1.0973  1.3142 -2.5436
  149DOPC  H11Y17840   2.193   0.589  15.811  0.6048 -0.0826 -0.5219
  149DOPC  C31217841   2.271   0.702  15.644 -0.2426  0.1490 -0.3045
  149DOPC  H12X17842   2.274   0.804  15.599  1.2559 -0.1460 -0.9293
  149DOPC  H12Y17843   2.233   0.634  15.565 -1.3484  3.1009 -2.5221
  149DOPC  C31317844   2.424   0.661  15.675 -0.1199  0.3025  0.2759
  149DOPC  H13X17845   2.460   0.726  15.758 -0.9814  1.5994 -0.3239
  149DOPC  H13Y17846   2.433   0.555  15.704 -1.2512 -0.1275 -0.8468
  149DOPC  C31417847   2.516   0.673  15.549 -0.0729  0.1536  0.4797
  149DOPC  H14X17848   2.507   0.772  15.500 -0.3642 -0.0878  0.0487
  149DOPC  H14Y17849   2.617   0.655  15.594 -0.5566 -2.5460  0.6676
  149DOPC  C31517850   2.488   0.563  15.449  0.4288 -0.1455  0.9763
  149DOPC  H15X17851   2.380   0.573  15.426  0.6511  1.5107  0.5316
  149DOPC  H15Y17852   2.507   0.459  15.483  0.7652 -0.0214  1.1744
  149DOPC  C31617853   2.570   0.581  15.318 -0.0087 -0.4024  0.6503
  149DOPC  H16X17854   2.555   0.683  15.277 -0.0066 -0.8442 -0.4949
  149DOPC  H16Y17855   2.676   0.576  15.349  0.2425  0.3806 -0.0338
  149DOPC  C31717856   2.533   0.479  15.212  0.2561  0.0283 -0.1715
  149DOPC  H17X17857   2.507   0.379  15.252  1.7691 -1.3566 -2.4455
  149DOPC  H17Y17858   2.430   0.504  15.177  0.2823  2.6250  1.3798
  149DOPC  C31817859   2.622   0.473  15.091 -0.1870 -0.0052  0.2810
  149DOPC  H18X17860   2.599   0.381  15.033  0.9494 -0.4477  0.5076
  149DOPC  H18Y17861   2.606   0.550  15.012 -1.7441  1.0689  1.5791
  149DOPC  H18Z17862   2.732   0.461  15.104 -0.1986 -0.3901  0.0228
  150DOPC     N17863   5.189   3.946  16.962  0.4015  0.0245 -0.7688
  150DOPC   C1217864   5.146   3.908  16.824  0.5126 -0.0433  0.0636
  150DOPC  H12A17865   5.160   3.803  16.804 -0.9816 -0.4995  1.2048
  150DOPC  H12B17866   5.211   3.962  16.757  0.1432  1.5852  0.9706
  150DOPC   C1317867   5.179   4.094  16.998  0.3121 -1.0774 -0.1506
  150DOPC  H13A17868   5.081   4.133  16.978  0.6688  1.2129  2.0639
  150DOPC  H13B17869   5.183   4.117  17.104 -1.2286  2.7074 -0.7565
  150DOPC  H13C17870   5.261   4.145  16.949 -0.1149  0.6742  0.8597
  150DOPC   C1417871   5.338   3.906  16.982 -0.0899 -0.4171  0.0304
  150DOPC  H14A17872   5.402   3.951  16.907  1.5510 -0.8353  1.1306
  150DOPC  H14B17873   5.378   3.948  17.073  0.8059  0.7559 -0.8628
  150DOPC  H14C17874   5.351   3.799  16.977 -2.9407 -0.9386  1.8429
  150DOPC   C1517875   5.106   3.874  17.065 -0.1298 -0.4209  0.4937
  150DOPC  H15A17876   5.161   3.863  17.157  0.9157 -1.5098 -0.2219
  150DOPC  H15B17877   5.096   3.775  17.023  1.0221  0.8401 -3.1299
  150DOPC  H15C17878   5.012   3.925  17.076 -0.9408 -1.5795 -0.7673
  150DOPC   C1117879   4.999   3.923  16.779 -0.1107 -0.0216 -0.1327
  150DOPC  H11A17880   4.979   3.895  16.674 -0.0274  2.7781 -0.9733
  150DOPC  H11B17881   4.943   3.850  16.842  0.3134 -1.0832 -0.9489
  150DOPC     P17882   4.842   4.113  16.876  0.5431 -0.2400  0.4758
  150DOPC   O1317883   4.880   4.228  16.964 -0.4793 -0.1318 -0.3740
  150DOPC   O1417884   4.769   3.996  16.941  0.1979 -0.2440  0.5735
  150DOPC   O1217885   4.962   4.063  16.790 -0.1348  0.5561  0.4407
  150DOPC   O1117886   4.760   4.175  16.756 -0.8138 -0.3901 -0.1269
  150DOPC    C117887   4.754   4.315  16.730 -0.2420 -0.8106 -0.6292
  150DOPC    HA17888   4.833   4.373  16.784 -1.5626  1.1550 -0.6925
  150DOPC    HB17889   4.661   4.359  16.772  1.1777  1.2390  0.5896
  150DOPC    C217890   4.750   4.334  16.576 -0.4954  0.2007  0.2092
  150DOPC    HS17891   4.763   4.442  16.550  3.3556 -0.0822  0.3789
  150DOPC   O2117892   4.629   4.281  16.522  0.4376 -0.2070  0.0963
  150DOPC   C2117893   4.528   4.353  16.551  0.7649  0.6197  0.3488
  150DOPC   O2217894   4.524   4.462  16.605  0.2414  0.7596  0.3742
  150DOPC   C2217895   4.399   4.274  16.510 -0.4483  0.2762 -0.3741
  150DOPC   H2R17896   4.333   4.254  16.596 -0.2987  0.9238 -0.1081
  150DOPC   H2S17897   4.434   4.175  16.473 -0.7370 -0.4089  1.1122
  150DOPC    C317898   4.865   4.260  16.505 -0.3258  0.0101 -0.2510
  150DOPC    HX17899   4.863   4.153  16.535  1.9374 -0.1031 -0.3141
  150DOPC    HY17900   4.961   4.305  16.540  0.7907 -2.6594  0.3904
  150DOPC   O3117901   4.861   4.281  16.359  0.1240  0.2398 -0.0201
  150DOPC   C3117902   4.910   4.184  16.287  0.1384  0.8488 -0.1015
  150DOPC   O3217903   4.969   4.086  16.328 -0.3595  0.3956 -0.0299
  150DOPC   C3217904   4.879   4.199  16.140 -0.1317 -0.8247 -0.8052
  150DOPC   H2X17905   4.968   4.249  16.095 -2.2717  1.6035 -2.6636
  150DOPC   H2Y17906   4.883   4.093  16.108  3.2693 -0.6180 -1.4629
  150DOPC   C2317907   4.322   4.342  16.401  0.4744 -0.5040  0.5033
  150DOPC   H3R17908   4.297   4.449  16.419 -1.9627 -1.4543  3.8183
  150DOPC   H3S17909   4.223   4.298  16.378  0.4479  0.2692 -1.0020
  150DOPC   C2417910   4.402   4.340  16.264  0.6952 -0.0091 -0.2992
  150DOPC   H4R17911   4.443   4.239  16.246 -1.3531 -0.5166 -2.6581
  150DOPC   H4S17912   4.484   4.415  16.257  1.5660 -1.0949 -2.9467
  150DOPC   C2517913   4.306   4.364  16.142  0.4357 -0.0087  0.5812
  150DOPC   H5R17914   4.234   4.449  16.142  1.4141  0.8438  0.0682
  150DOPC   H5S17915   4.241   4.274  16.145 -1.4216  1.2478 -0.0421
  150DOPC   C2617916   4.383   4.359  16.002  0.5080 -0.4562  0.3689
  150DOPC   H6R17917   4.438   4.264  15.995 -0.9316 -1.4516  1.7365
  150DOPC   H6S17918   4.450   4.447  16.010 -1.8898  1.6126 -0.7833
  150DOPC   C2717919   4.288   4.379  15.888 -0.1546  0.1006 -0.8467
  150DOPC   H7R17920   4.217   4.462  15.909 -0.1398 -0.4047  1.4502
  150DOPC   H7S17921   4.221   4.290  15.879  0.5444 -0.3730 -1.4906
  150DOPC   C2817922   4.353   4.404  15.754 -0.6754 -0.0586  0.0914
  150DOPC   H8R17923   4.447   4.345  15.745 -1.5657 -1.3629 -0.9705
  150DOPC   H8S17924   4.391   4.508  15.752  1.6758 -0.8581  0.2623
  150DOPC   C2917925   4.267   4.372  15.637 -0.0654  0.1437 -0.6472
  150DOPC   H9R17926   4.165   4.333  15.648 -0.0883  0.2057 -0.6430
  150DOPC  C21017927   4.289   4.412  15.511  0.6488 -0.0461  0.0530
  150DOPC  H10R17928   4.218   4.381  15.433  1.1113 -0.2552 -0.2885
  150DOPC  C21117929   4.409   4.483  15.456  0.1006 -0.2453 -0.9791
  150DOPC  H11R17930   4.487   4.478  15.535 -1.0202 -0.2239  0.1648
  150DOPC  H11S17931   4.389   4.591  15.442  0.0505 -0.1358 -0.1231
  150DOPC  C21217932   4.470   4.417  15.327 -0.9174  0.2834 -0.3619
  150DOPC  H12R17933   4.483   4.309  15.351  1.0558  0.3890 -0.7540
  150DOPC  H12S17934   4.576   4.452  15.324 -0.2991 -1.5225 -2.3400
  150DOPC  C21317935   4.396   4.437  15.191  0.1860 -0.0552 -0.5133
  150DOPC  H13R17936   4.294   4.393  15.190 -0.0185  0.2517 -3.6494
  150DOPC  H13S17937   4.447   4.391  15.104 -0.6934 -0.0701 -1.0339
  150DOPC  C21417938   4.390   4.585  15.151  0.2258 -0.5755 -1.0739
  150DOPC  H14R17939   4.475   4.645  15.191 -0.9054 -1.1269  2.5066
  150DOPC  H14S17940   4.297   4.624  15.196  0.4749 -0.6490 -0.4953
  150DOPC  C21517941   4.385   4.613  15.000  0.0370  0.8734 -0.0396
  150DOPC  H15R17942   4.472   4.559  14.955 -0.4703  0.8805 -1.0515
  150DOPC  H15S17943   4.398   4.720  14.973 -0.1073  1.2481  1.3179
  150DOPC  C21617944   4.243   4.568  14.947  0.1058  0.0092 -0.1074
  150DOPC  H16R17945   4.164   4.617  15.008 -0.9886  1.4885 -2.5431
  150DOPC  H16S17946   4.233   4.458  14.959 -1.8795  0.0275 -1.2732
  150DOPC  C21717947   4.224   4.610  14.805  0.2286 -0.1002  0.5107
  150DOPC  H17R17948   4.147   4.554  14.748  0.6730  0.0275 -0.2303
  150DOPC  H17S17949   4.320   4.580  14.758 -0.1829  2.3488 -2.1505
  150DOPC  C21817950   4.194   4.759  14.772 -0.0730 -0.6293  0.0486
  150DOPC  H18R17951   4.091   4.779  14.808  0.3062 -1.1951  1.5304
  150DOPC  H18S17952   4.195   4.782  14.664  0.5469 -0.7609  0.0217
  150DOPC  H18T17953   4.271   4.824  14.820  2.1573 -2.0800 -1.3829
  150DOPC   C3317954   4.758   4.279  16.098  0.0822  0.7485  0.4843
  150DOPC   H3X17955   4.752   4.374  16.155 -0.8204  0.1749  1.3787
  150DOPC   H3Y17956   4.660   4.228  16.111  0.8009 -0.6423  0.6748
  150DOPC   C3417957   4.755   4.300  15.946  0.3760 -0.2622 -0.2091
  150DOPC   H4X17958   4.657   4.349  15.926  0.7147 -0.1651 -1.7270
  150DOPC   H4Y17959   4.759   4.201  15.895 -0.5715 -1.2541  1.5445
  150DOPC   C3517960   4.875   4.385  15.894  0.1109  0.1816 -0.1306
  150DOPC   H5X17961   4.962   4.318  15.876  0.9003  0.4464  2.3856
  150DOPC   H5Y17962   4.909   4.450  15.977 -0.3069 -0.0485  0.2233
  150DOPC   C3617963   4.847   4.477  15.778 -0.1507 -0.7265  0.1159
  150DOPC   H6X17964   4.752   4.530  15.800 -0.8354 -0.6853 -2.6801
  150DOPC   H6Y17965   4.923   4.552  15.749  1.0828 -2.1174 -0.4059
  150DOPC   C3717966   4.840   4.402  15.644 -0.0732 -0.7245  0.3157
  150DOPC   H7X17967   4.940   4.357  15.629 -0.0913 -0.6439 -0.0484
  150DOPC   H7Y17968   4.774   4.315  15.665  1.5335 -1.7241  1.4826
  150DOPC   C3817969   4.784   4.477  15.522  0.3101 -0.2423  0.1721
  150DOPC   H8X17970   4.712   4.558  15.545  1.5398  0.8901  0.1504
  150DOPC   H8Y17971   4.742   4.401  15.453  1.2296 -1.2021  0.6308
  150DOPC   C3917972   4.899   4.527  15.439  0.3173  0.2181  0.0385
  150DOPC   H9X17973   4.973   4.453  15.406 -1.4548 -0.8093 -1.8179
  150DOPC  C31017974   4.906   4.649  15.386  0.9559  0.4060  0.6973
  150DOPC  H10X17975   4.984   4.672  15.312  0.9049 -2.9195 -0.5572
  150DOPC  C31117976   4.789   4.746  15.373  0.3411  0.6200 -1.2717
  150DOPC  H11X17977   4.818   4.824  15.446  1.0847  0.6304 -1.5706
  150DOPC  H11Y17978   4.694   4.697  15.403  0.6324  0.1604 -1.0850
  150DOPC  C31217979   4.766   4.818  15.241 -0.6576  0.2652  0.1716
  150DOPC  H12X17980   4.706   4.754  15.173  0.5753 -0.9524  0.1714
  150DOPC  H12Y17981   4.861   4.837  15.186  0.3902 -2.7471  0.7627
  150DOPC  C31317982   4.684   4.947  15.255 -0.4966  0.1244 -0.2766
  150DOPC  H13X17983   4.736   4.997  15.340  0.7303 -1.2809 -0.1713
  150DOPC  H13Y17984   4.706   5.009  15.165  1.8053 -0.4696 -0.1897
  150DOPC  C31417985   4.538   4.933  15.291  0.1965 -0.3153 -0.1266
  150DOPC  H14X17986   4.487   4.861  15.223 -0.6616 -2.2174  2.3469
  150DOPC  H14Y17987   4.539   4.884  15.391  4.3841  0.6851  0.5048
  150DOPC  C31517988   4.476   5.068  15.297 -0.2951  0.1322 -0.5422
  150DOPC  H15X17989   4.477   5.102  15.191  0.2194  0.6214 -0.3806
  150DOPC  H15Y17990   4.541   5.135  15.357 -0.2556  1.7633 -2.3221
  150DOPC  C31617991   4.327   5.064  15.342 -0.5997 -0.1649  0.1416
  150DOPC  H16X17992   4.263   5.022  15.262 -0.4594  0.3988 -0.2738
  150DOPC  H16Y17993   4.309   4.997  15.428  0.3327 -0.7492 -0.1046
  150DOPC  C31717994   4.287   5.205  15.372  0.6903  0.3363 -0.6727
  150DOPC  H17X17995   4.350   5.231  15.460 -1.1689 -0.8184  1.1037
  150DOPC  H17Y17996   4.305   5.268  15.283 -1.0317  1.1337 -0.4926
  150DOPC  C31817997   4.141   5.215  15.415  1.5283  0.1822 -0.3892
  150DOPC  H18X17998   4.120   5.156  15.507  0.1656 -1.0290 -1.4277
  150DOPC  H18Y17999   4.104   5.318  15.433  0.7408 -0.0420 -0.6589
  150DOPC  H18Z18000   4.074   5.172  15.337 -0.5696  1.1462  0.8303
  151DOPC     N18001   0.658   3.708  17.083 -0.2226 -0.2967 -0.3369
  151DOPC   C1218002   0.657   3.766  16.947 -0.5885 -0.6936  0.5263
  151DOPC  H12A18003   0.711   3.697  16.885 -0.1570 -0.5121  0.7022
  151DOPC  H12B18004   0.701   3.865  16.954  0.2061 -1.1568  3.9161
  151DOPC   C1318005   0.796   3.710  17.146 -0.0610 -0.7250 -0.1382
  151DOPC  H13A18006   0.840   3.808  17.144  0.8136 -1.1099 -0.1195
  151DOPC  H13B18007   0.791   3.700  17.254 -0.4983  0.2219 -0.0615
  151DOPC  H13C18008   0.861   3.643  17.093 -1.7931 -3.3932  0.8919
  151DOPC   C1418009   0.615   3.568  17.074 -0.0789  0.1639 -0.2063
  151DOPC  H14A18010   0.689   3.500  17.036 -1.9781 -1.6344 -0.8715
  151DOPC  H14B18011   0.605   3.523  17.172 -2.3683 -0.9205 -0.8785
  151DOPC  H14C18012   0.518   3.561  17.027 -0.6449  1.8128  0.6362
  151DOPC   C1518013   0.559   3.774  17.174 -0.1800  0.5803  0.4853
  151DOPC  H15A18014   0.455   3.760  17.148 -0.4406  1.4848  0.9785
  151DOPC  H15B18015   0.586   3.879  17.173  0.9597  0.2954 -0.6056
  151DOPC  H15C18016   0.565   3.731  17.273  0.8151 -2.0109 -0.6240
  151DOPC   C1118017   0.518   3.773  16.876  0.4341  0.9617  0.3292
  151DOPC  H11A18018   0.437   3.811  16.940 -0.3594 -1.0584  0.6153
  151DOPC  H11B18019   0.526   3.839  16.787  0.0477  0.3349 -0.1854
  151DOPC     P18020   0.355   3.602  16.759  0.3175  0.0713  0.3080
  151DOPC   O1318021   0.249   3.671  16.834  0.3858  0.0835  0.3246
  151DOPC   O1418022   0.337   3.458  16.741  0.2961 -0.1953  0.4601
  151DOPC   O1218023   0.490   3.638  16.823 -0.3094  0.3873  0.5864
  151DOPC   O1118024   0.366   3.664  16.618  0.5968  0.6560 -0.0880
  151DOPC    C118025   0.495   3.702  16.563 -0.1000 -0.1924 -0.2144
  151DOPC    HA18026   0.583   3.656  16.613  0.6963  1.5886  0.1341
  151DOPC    HB18027   0.518   3.811  16.563 -0.2591 -0.1570 -0.7198
  151DOPC    C218028   0.512   3.654  16.418 -0.1949  0.2020  0.6956
  151DOPC    HS18029   0.619   3.677  16.395  0.4323 -2.2818  0.7972
  151DOPC   O2118030   0.427   3.713  16.322  0.5305 -0.2214  0.3442
  151DOPC   C2118031   0.470   3.748  16.200 -0.2572 -0.6873  0.5360
  151DOPC   O2218032   0.576   3.728  16.151 -0.4097 -0.0856  0.6665
  151DOPC   C2218033   0.349   3.779  16.117 -0.1523  0.4505 -0.9950
  151DOPC   H2R18034   0.272   3.817  16.187  0.6167 -3.6082  2.5296
  151DOPC   H2S18035   0.321   3.675  16.088  1.8934 -0.1587 -0.9204
  151DOPC    C318036   0.498   3.498  16.416 -0.0828  0.6031  0.4134
  151DOPC    HX18037   0.392   3.476  16.440 -0.2407 -1.6357 -1.8869
  151DOPC    HY18038   0.549   3.447  16.501 -2.7592  0.6075  2.1319
  151DOPC   O3118039   0.528   3.435  16.291 -0.5854 -0.7213 -0.5407
  151DOPC   C3118040   0.656   3.415  16.279  0.5054 -0.2763 -0.5928
  151DOPC   O3218041   0.743   3.437  16.363  0.2428  0.0732  0.2509
  151DOPC   C3218042   0.684   3.365  16.135 -1.0700 -0.4357 -0.1657
  151DOPC   H2X18043   0.794   3.372  16.132 -1.1528  0.6020 -1.3761
  151DOPC   H2Y18044   0.661   3.257  16.123  2.3922 -1.1258 -1.6520
  151DOPC   C2318045   0.373   3.875  16.001  0.3946 -0.0149 -0.3090
  151DOPC   H3R18046   0.470   3.846  15.956  1.2314  0.5133  1.0876
  151DOPC   H3S18047   0.379   3.981  16.035 -3.1029 -0.1497  1.1977
  151DOPC   C2418048   0.259   3.860  15.899 -0.0849  0.1500  0.2624
  151DOPC   H4R18049   0.193   3.950  15.897  1.2870  1.2484  1.8344
  151DOPC   H4S18050   0.199   3.770  15.924  1.6588 -1.0472  0.2691
  151DOPC   C2518051   0.313   3.834  15.758 -0.7299  0.0378  0.0605
  151DOPC   H5R18052   0.390   3.755  15.768  1.1315  1.9338  1.5078
  151DOPC   H5S18053   0.366   3.922  15.716 -2.3429  0.3394 -1.5041
  151DOPC   C2618054   0.210   3.777  15.665 -0.5344  0.1114  0.6666
  151DOPC   H6R18055   0.191   3.672  15.698  0.2279 -0.6909 -1.2525
  151DOPC   H6S18056   0.260   3.776  15.565  1.6150  0.4193  1.6809
  151DOPC   C2718057   0.082   3.860  15.649 -0.1251 -0.0414 -0.1137
  151DOPC   H7R18058   0.100   3.947  15.583 -0.9040  1.2678  1.3444
  151DOPC   H7S18059   0.052   3.894  15.750 -0.5390  0.5006 -0.4176
  151DOPC   C2818060  -0.028   3.758  15.585  0.1178 -0.5198 -0.5675
  151DOPC   H8R18061  -0.028   3.679  15.663  2.1362  2.2453  2.4898
  151DOPC   H8S18062   0.000   3.713  15.487  0.9183  1.7912 -1.4656
  151DOPC   C2918063  -0.158   3.827  15.574 -0.0342 -0.6237  0.4941
  151DOPC   H9R18064  -0.153   3.921  15.516  0.9388 -1.1131 -0.2381
  151DOPC  C21018065  -0.269   3.799  15.639 -0.4486 -0.4348  0.4821
  151DOPC  H10R18066  -0.358   3.862  15.628 -0.6771 -0.6824  0.8795
  151DOPC  C21118067  -0.290   3.682  15.730 -0.8740 -0.1566  0.5527
  151DOPC  H11R18068  -0.342   3.715  15.822  0.2901  0.5822  0.9776
  151DOPC  H11S18069  -0.191   3.637  15.752  0.3423  2.3886  0.6794
  151DOPC  C21218070  -0.383   3.581  15.667 -0.1306 -0.3411 -0.0768
  151DOPC  H12R18071  -0.399   3.493  15.733  0.2335  0.6377  1.3646
  151DOPC  H12S18072  -0.333   3.544  15.575 -0.6835 -1.6192  0.1069
  151DOPC  C21318073  -0.525   3.641  15.617 -0.8337 -0.3990  0.0309
  151DOPC  H13R18074  -0.498   3.732  15.559  0.2745 -1.8827 -1.8815
  151DOPC  H13S18075  -0.585   3.665  15.707 -0.3101 -1.9237  0.8220
  151DOPC  C21418076  -0.609   3.545  15.534  0.6841 -0.2009  0.6394
  151DOPC  H14R18077  -0.535   3.473  15.491  0.3507 -0.6346  0.7828
  151DOPC  H14S18078  -0.652   3.594  15.445  1.2845  2.0290  1.5054
  151DOPC  C21518079  -0.719   3.470  15.614 -0.4733 -0.3476 -0.2361
  151DOPC  H15R18080  -0.677   3.436  15.711  0.4822  2.0423  0.2571
  151DOPC  H15S18081  -0.735   3.376  15.556 -1.7976  0.8736 -1.9585
  151DOPC  C21618082  -0.848   3.550  15.625 -0.3325 -0.0608 -0.0746
  151DOPC  H16R18083  -0.867   3.608  15.532  1.1444 -0.1517 -0.4661
  151DOPC  H16S18084  -0.845   3.621  15.711  0.4514 -2.1010  1.6910
  151DOPC  C21718085  -0.975   3.465  15.648  0.5283 -0.1292  0.4913
  151DOPC  H17R18086  -0.972   3.381  15.576 -1.5092  0.7602 -0.7385
  151DOPC  H17S18087  -1.063   3.530  15.628 -1.4802 -2.3233  1.5383
  151DOPC  C21818088  -0.986   3.408  15.791  0.2175 -0.0171 -0.2181
  151DOPC  H18R18089  -0.899   3.344  15.816 -0.2263 -0.7562 -0.5138
  151DOPC  H18S18090  -1.074   3.344  15.817  1.6726 -0.9726  2.8262
  151DOPC  H18T18091  -0.995   3.489  15.865  0.3021 -0.3445  0.1545
  151DOPC   C3318092   0.612   3.436  16.026 -0.3312 -0.3878 -0.3365
  151DOPC   H3X18093   0.658   3.536  16.010 -3.0329  1.0451  0.2345
  151DOPC   H3Y18094   0.505   3.461  16.047 -0.0423  1.9281 -1.2323
  151DOPC   C3418095   0.619   3.367  15.884  0.3192  0.5720  0.4994
  151DOPC   H4X18096   0.582   3.262  15.890 -0.3588  0.7274 -0.6381
  151DOPC   H4Y18097   0.726   3.366  15.853  0.7297 -2.3313  1.6846
  151DOPC   C3518098   0.523   3.438  15.781  0.0725 -0.0058  0.0931
  151DOPC   H5X18099   0.543   3.547  15.788 -0.9721  0.0665  3.5982
  151DOPC   H5Y18100   0.418   3.418  15.811 -0.1099  2.1889  1.0299
  151DOPC   C3618101   0.538   3.394  15.637 -0.5481  0.8588 -0.2977
  151DOPC   H6X18102   0.507   3.288  15.622  0.5537  0.2648  1.3796
  151DOPC   H6Y18103   0.477   3.462  15.574 -2.4145  0.0943  0.5937
  151DOPC   C3718104   0.681   3.395  15.584  0.1051  0.2837  0.0279
  151DOPC   H7X18105   0.729   3.490  15.616  2.4793 -1.5524  2.4301
  151DOPC   H7Y18106   0.744   3.317  15.633 -3.0700 -0.9087  2.5583
  151DOPC   C3818107   0.686   3.394  15.427  0.1241  0.5061  0.4650
  151DOPC   H8X18108   0.795   3.390  15.404  0.6322  0.1031  2.6654
  151DOPC   H8Y18109   0.636   3.480  15.377  1.1159  0.6825 -0.2480
  151DOPC   C3918110   0.644   3.259  15.365 -0.6257  0.2811 -0.3332
  151DOPC   H9X18111   0.700   3.171  15.402  1.6788  1.5622 -0.5677
  151DOPC  C31018112   0.543   3.246  15.282 -0.6950 -0.1904 -0.5710
  151DOPC  H10X18113   0.520   3.148  15.236 -0.9947 -0.7357  0.6969
  151DOPC  C31118114   0.460   3.366  15.237 -0.2462  0.6394 -0.1232
  151DOPC  H11X18115   0.517   3.461  15.244  1.0798 -0.2418  2.5792
  151DOPC  H11Y18116   0.366   3.382  15.294  0.1268  1.0286  0.3917
  151DOPC  C31218117   0.416   3.353  15.091 -0.0354  0.6616  0.3977
  151DOPC  H12X18118   0.356   3.260  15.082  1.1341 -0.3276  2.1849
  151DOPC  H12Y18119   0.514   3.348  15.037  0.2121 -0.8742  0.9191
  151DOPC  C31318120   0.333   3.469  15.046  0.1580 -0.6405  0.0037
  151DOPC  H13X18121   0.375   3.570  15.062  0.4406 -0.7095 -0.2873
  151DOPC  H13Y18122   0.315   3.485  14.938 -1.9820 -0.4550  0.3389
  151DOPC  C31418123   0.194   3.484  15.107 -0.0235  0.0059  0.7366
  151DOPC  H14X18124   0.138   3.403  15.056 -0.8840  1.0943 -0.1055
  151DOPC  H14Y18125   0.190   3.461  15.216 -0.9370 -1.8959  0.3474
  151DOPC  C31518126   0.122   3.622  15.073 -0.6499  0.3691 -0.4074
  151DOPC  H15X18127   0.189   3.690  15.129  1.8839 -4.2117  2.7283
  151DOPC  H15Y18128   0.028   3.607  15.131  0.5485 -1.6215  1.1380
  151DOPC  C31618129   0.104   3.666  14.932  0.3741  0.2544  0.5123
  151DOPC  H16X18130   0.059   3.767  14.945 -2.4965 -0.9104  0.3622
  151DOPC  H16Y18131   0.203   3.671  14.882  0.2669  0.9759  0.3609
  151DOPC  C31718132   0.019   3.577  14.839  0.4624  0.1356 -0.2348
  151DOPC  H17X18133   0.068   3.486  14.799 -0.3482 -0.6614  0.5352
  151DOPC  H17Y18134  -0.082   3.552  14.878  1.0893 -0.4724  1.0471
  151DOPC  C31818135  -0.001   3.667  14.719  0.0739 -0.1634  0.2091
  151DOPC  H18X18136  -0.077   3.743  14.745 -1.1114 -1.4973  0.7970
  151DOPC  H18Y18137   0.088   3.718  14.677  0.9201 -3.0702 -1.9043
  151DOPC  H18Z18138  -0.056   3.623  14.633 -1.3934  1.0531  0.4798
  152DOPC     N18139   4.076   7.307  17.195  0.3010  0.8309 -0.0506
  152DOPC   C1218140   3.994   7.324  17.067 -0.4731 -0.2918 -0.2196
  152DOPC  H12A18141   4.063   7.385  17.010  2.7772 -3.1341  0.3234
  152DOPC  H12B18142   3.900   7.374  17.087  0.8035  1.1009  3.1983
  152DOPC   C1318143   4.019   7.207  17.289 -0.8122 -0.6717  0.3483
  152DOPC  H13A18144   4.086   7.186  17.371 -0.0491  2.4761  0.6526
  152DOPC  H13B18145   3.936   7.252  17.342 -2.0851  0.9447 -2.7470
  152DOPC  H13C18146   3.994   7.112  17.244  0.5004 -2.2539  2.7097
  152DOPC   C1418147   4.093   7.432  17.271 -0.2036 -0.3829  0.4303
  152DOPC  H14A18148   4.155   7.408  17.357  0.3414 -1.7410 -0.3078
  152DOPC  H14B18149   4.150   7.501  17.211  0.5154 -0.5883  0.8598
  152DOPC  H14C18150   4.003   7.484  17.298 -0.6542 -1.0632  0.2560
  152DOPC   C1518151   4.211   7.251  17.162 -0.3220 -0.7476  0.1610
  152DOPC  H15A18152   4.220   7.146  17.137  1.2292 -1.0900  1.9301
  152DOPC  H15B18153   4.282   7.276  17.239  0.9755 -1.3747 -0.7820
  152DOPC  H15C18154   4.257   7.305  17.080  0.6943 -0.6732  0.7722
  152DOPC   C1118155   3.965   7.196  16.985 -0.3813  0.6554 -0.4745
  152DOPC  H11A18156   3.929   7.228  16.884 -0.7395  2.2865  0.1405
  152DOPC  H11B18157   4.052   7.128  16.974 -0.3031  0.4785  1.0334
  152DOPC     P18158   3.715   7.169  17.071  0.1339 -0.6730 -0.2374
  152DOPC   O1318159   3.714   7.314  17.109  0.0980 -0.3055  0.3880
  152DOPC   O1418160   3.647   7.077  17.156  0.0105 -0.3772 -0.1346
  152DOPC   O1218161   3.867   7.121  17.052 -0.2806  0.0110  0.0098
  152DOPC   O1118162   3.651   7.142  16.929  0.4160 -0.1375 -0.3235
  152DOPC    C118163   3.526   7.203  16.885 -0.0430  0.2855 -0.2430
  152DOPC    HA18164   3.504   7.304  16.926  1.3665  1.0313 -1.2577
  152DOPC    HB18165   3.445   7.136  16.921  1.5284 -1.0772  0.9114
  152DOPC    C218166   3.520   7.220  16.727  0.3616  0.0432 -0.0030
  152DOPC    HS18167   3.419   7.252  16.692  0.9647  1.3734 -0.5934
  152DOPC   O2118168   3.551   7.099  16.662  0.1611 -0.3130  0.3235
  152DOPC   C2118169   3.467   6.997  16.691 -0.4576 -0.0272  1.3736
  152DOPC   O2218170   3.366   7.002  16.755 -0.3853 -0.2267  0.4216
  152DOPC   C2218171   3.519   6.871  16.623 -0.5250 -0.0082 -0.0777
  152DOPC   H2R18172   3.588   6.822  16.695  0.8013  2.5624  0.4940
  152DOPC   H2S18173   3.573   6.902  16.531 -0.1288  0.4658  0.3082
  152DOPC    C318174   3.600   7.345  16.684  0.0253 -0.0911  0.3963
  152DOPC    HX18175   3.699   7.340  16.734 -0.7671  0.3145  2.0876
  152DOPC    HY18176   3.546   7.441  16.701 -0.5549 -0.5492  1.1906
  152DOPC   O3118177   3.634   7.337  16.542 -0.2565 -0.6336  0.2037
  152DOPC   C3118178   3.576   7.392  16.435 -0.4049 -0.0155  0.3979
  152DOPC   O3218179   3.484   7.467  16.432  0.2169 -0.6276  0.2544
  152DOPC   C3218180   3.645   7.337  16.305  0.2121 -1.3017 -0.5730
  152DOPC   H2X18181   3.751   7.362  16.324 -0.6029  2.3504 -0.0501
  152DOPC   H2Y18182   3.631   7.227  16.298 -0.6635 -1.1571 -1.2954
  152DOPC   C2318183   3.413   6.771  16.588 -0.0116  0.0441 -0.4211
  152DOPC   H3R18184   3.340   6.818  16.518  0.8458  2.6496  0.3212
  152DOPC   H3S18185   3.349   6.747  16.676  1.9057  0.6660  1.2051
  152DOPC   C2418186   3.473   6.642  16.533  0.3034 -0.1681  0.3368
  152DOPC   H4R18187   3.387   6.575  16.510 -1.2390  1.3691  1.3466
  152DOPC   H4S18188   3.543   6.594  16.604  0.4425 -0.3774  0.0563
  152DOPC   C2518189   3.551   6.669  16.400  0.3145  0.1230 -0.1890
  152DOPC   H5R18190   3.640   6.735  16.416  0.2806 -0.0597  0.8165
  152DOPC   H5S18191   3.485   6.715  16.324  0.9458  1.4200  0.0103
  152DOPC   C2618192   3.607   6.532  16.341 -1.2170  0.4119  0.4574
  152DOPC   H6R18193   3.675   6.557  16.258 -0.0349 -3.7099  0.0089
  152DOPC   H6S18194   3.520   6.474  16.303  0.0121 -0.6442 -0.8095
  152DOPC   C2718195   3.682   6.446  16.441 -0.2041  0.1491  0.0045
  152DOPC   H7R18196   3.614   6.396  16.513 -3.2444  3.7170 -0.0787
  152DOPC   H7S18197   3.754   6.505  16.502  0.2810 -1.4542  1.0355
  152DOPC   C2818198   3.770   6.344  16.375 -0.8547  0.6694  0.5244
  152DOPC   H8R18199   3.815   6.273  16.447 -0.5553  0.3599  0.0423
  152DOPC   H8S18200   3.859   6.391  16.327  0.2847 -2.1485 -0.3243
  152DOPC   C2918201   3.698   6.258  16.274  0.3993  0.5242  0.1545
  152DOPC   H9R18202   3.617   6.204  16.325  1.0719  1.6141  2.5128
  152DOPC  C21018203   3.723   6.238  16.146 -0.3691 -0.3205  0.0456
  152DOPC  H10R18204   3.659   6.164  16.094 -0.1686  0.0684 -0.7737
  152DOPC  C21118205   3.844   6.284  16.066 -0.7106  0.0766  0.7894
  152DOPC  H11R18206   3.863   6.218  15.978  2.5261  0.2288  1.2323
  152DOPC  H11S18207   3.934   6.270  16.129 -0.2315  0.5779  0.2333
  152DOPC  C21218208   3.835   6.426  16.014  0.4270  0.1751  0.6215
  152DOPC  H12R18209   3.843   6.489  16.105  2.0987 -0.5949  1.0318
  152DOPC  H12S18210   3.737   6.435  15.961  0.6391 -0.2367  0.1518
  152DOPC  C21318211   3.935   6.474  15.901  0.4593 -0.1167  0.2287
  152DOPC  H13R18212   4.037   6.446  15.933  0.9228  1.3439  0.1352
  152DOPC  H13S18213   3.909   6.582  15.894 -1.6125 -0.5467  0.5347
  152DOPC  C21418214   3.901   6.415  15.759  0.0445 -0.4703  1.2988
  152DOPC  H14R18215   3.925   6.490  15.680  1.4558 -1.8362  0.3623
  152DOPC  H14S18216   3.793   6.390  15.748 -0.2341  0.9145  0.7012
  152DOPC  C21518217   3.984   6.289  15.733  0.4850  0.3535  0.1416
  152DOPC  H15R18218   3.941   6.202  15.786  0.8349  0.3433  0.4142
  152DOPC  H15S18219   4.088   6.291  15.774  0.6034 -2.7220  0.2135
  152DOPC  C21618220   3.983   6.254  15.590 -0.2540 -0.0546 -0.1706
  152DOPC  H16R18221   3.976   6.348  15.532 -2.3683  0.6197  1.0852
  152DOPC  H16S18222   3.889   6.197  15.572 -0.8247  0.6237  0.6057
  152DOPC  C21718223   4.093   6.155  15.548  0.4865 -0.4511 -0.3141
  152DOPC  H17R18224   4.071   6.065  15.609 -0.8824 -0.4033 -0.7218
  152DOPC  H17S18225   4.198   6.181  15.575  1.0775 -2.2950 -0.6516
  152DOPC  C21818226   4.082   6.120  15.396 -0.2443  0.0926 -0.0311
  152DOPC  H18R18227   4.077   6.200  15.319  1.6151 -1.2161 -1.6234
  152DOPC  H18S18228   3.981   6.073  15.387 -0.1954 -0.0910  0.3513
  152DOPC  H18T18229   4.166   6.052  15.369 -1.9093 -2.2002  0.2380
  152DOPC   C3318230   3.598   7.399  16.167 -0.5874  0.4464 -0.6329
  152DOPC   H3X18231   3.599   7.510  16.167  0.8910  0.4580 -0.6198
  152DOPC   H3Y18232   3.500   7.363  16.130 -0.0544 -1.4670 -0.3152
  152DOPC   C3418233   3.705   7.347  16.066  0.2736 -0.0665 -0.3461
  152DOPC   H4X18234   3.730   7.239  16.073  1.6581  0.2874  0.3494
  152DOPC   H4Y18235   3.795   7.399  16.104  0.6977 -1.5703  0.7998
  152DOPC   C3518236   3.689   7.399  15.922  0.2235  0.3881 -0.4103
  152DOPC   H5X18237   3.709   7.508  15.914  0.2662  0.8159  3.4782
  152DOPC   H5Y18238   3.582   7.395  15.893  0.5348 -1.3708 -1.4714
  152DOPC   C3618239   3.769   7.321  15.822 -0.4909 -0.6568 -0.0134
  152DOPC   H6X18240   3.872   7.307  15.860  0.4508  0.6621 -1.8968
  152DOPC   H6Y18241   3.718   7.225  15.799 -0.6036 -0.7681  0.6820
  152DOPC   C3718242   3.774   7.397  15.687 -0.2326 -0.5237  0.0271
  152DOPC   H7X18243   3.679   7.398  15.629 -0.7236  0.3784  0.8175
  152DOPC   H7Y18244   3.814   7.500  15.701 -0.5408 -0.4089  0.0622
  152DOPC   C3818245   3.890   7.353  15.589 -0.4515  0.0222  0.2926
  152DOPC   H8X18246   3.855   7.249  15.570  0.3218  0.3260 -3.4469
  152DOPC   H8Y18247   3.980   7.364  15.653  0.1739 -2.5170 -0.0713
  152DOPC   C3918248   3.899   7.440  15.461 -0.0667 -0.5052 -0.2987
  152DOPC   H9X18249   3.831   7.526  15.453  0.0685  0.3722  4.5922
  152DOPC  C31018250   3.966   7.395  15.358 -0.4033  0.0985 -0.9078
  152DOPC  H10X18251   3.976   7.452  15.264  3.9573  0.7138 -0.3018
  152DOPC  C31118252   4.069   7.290  15.371  0.0001  0.8055 -0.1033
  152DOPC  H11X18253   4.033   7.195  15.326 -0.8765 -0.3512  2.8093
  152DOPC  H11Y18254   4.081   7.260  15.477  0.8692  0.3699 -0.3195
  152DOPC  C31218255   4.215   7.324  15.319 -0.5653 -0.3613 -0.3000
  152DOPC  H12X18256   4.271   7.228  15.314 -0.8609 -0.5223 -0.5219
  152DOPC  H12Y18257   4.283   7.381  15.386  2.5577 -2.1674 -1.7155
  152DOPC  C31318258   4.225   7.389  15.176  1.3068 -0.2739 -0.3289
  152DOPC  H13X18259   4.159   7.326  15.110 -1.1952  0.2093  1.5533
  152DOPC  H13Y18260   4.187   7.491  15.195  1.4709 -0.6098  2.0674
  152DOPC  C31418261   4.373   7.398  15.127  0.3335  0.5544  0.5663
  152DOPC  H14X18262   4.430   7.428  15.217 -0.9344  1.2170  1.1701
  152DOPC  H14Y18263   4.393   7.291  15.103  0.0153  0.8072 -0.9586
  152DOPC  C31518264   4.389   7.487  15.008 -0.1609 -0.1891  0.3027
  152DOPC  H15X18265   4.317   7.475  14.925  0.7447  4.5833 -1.5333
  152DOPC  H15Y18266   4.495   7.482  14.976  0.0231 -1.6979  1.0549
  152DOPC  C31618267   4.383   7.641  15.035 -0.5068  0.4500  0.8569
  152DOPC  H16X18268   4.398   7.691  14.937 -1.9959  1.2948  1.0220
  152DOPC  H16Y18269   4.276   7.663  15.055 -0.4784  0.6040  0.8451
  152DOPC  C31718270   4.474   7.696  15.139  0.2579  0.7983  0.1229
  152DOPC  H17X18271   4.444   7.637  15.228  3.3272 -0.0974  0.6927
  152DOPC  H17Y18272   4.581   7.670  15.120 -0.2415 -0.9120 -0.5533
  152DOPC  C31818273   4.459   7.843  15.146  0.0965  0.6759  0.2298
  152DOPC  H18X18274   4.534   7.885  15.216 -0.2109 -2.6061  2.7521
  152DOPC  H18Y18275   4.464   7.884  15.042  0.8297 -0.3262 -0.1395
  152DOPC  H18Z18276   4.361   7.853  15.198 -0.7642 -0.0261 -1.1899
  153DOPC     N18277   5.469   6.322  17.552  0.0423  0.6412  0.3200
  153DOPC   C1218278   5.422   6.183  17.492  0.3481 -0.0883  0.3742
  153DOPC  H12A18279   5.320   6.194  17.460  0.9107  1.8934 -0.9248
  153DOPC  H12B18280   5.423   6.103  17.565  1.1994 -0.1104  0.3456
  153DOPC   C1318281   5.605   6.297  17.604 -0.3679  0.1432  0.2295
  153DOPC  H13A18282   5.679   6.270  17.530 -2.4694  1.5842 -2.5839
  153DOPC  H13B18283   5.649   6.380  17.655  0.0718  0.2801 -0.3643
  153DOPC  H13C18284   5.610   6.223  17.683 -2.2795  0.0271  0.2940
  153DOPC   C1418285   5.381   6.379  17.658 -0.1769  0.1146  0.3726
  153DOPC  H14A18286   5.423   6.476  17.681  1.0315 -0.6435  1.5720
  153DOPC  H14B18287   5.278   6.388  17.628  0.4316  0.7028 -1.7274
  153DOPC  H14C18288   5.389   6.313  17.743 -1.8588  2.0239  2.1393
  153DOPC   C1518289   5.469   6.423  17.445 -0.5895 -0.5256 -0.5494
  153DOPC  H15A18290   5.374   6.445  17.399 -0.9639 -1.6715 -0.3423
  153DOPC  H15B18291   5.532   6.378  17.370  1.1221 -1.2874  1.2618
  153DOPC  H15C18292   5.514   6.511  17.488  1.1565 -2.0213  0.8042
  153DOPC   C1118293   5.503   6.137  17.376 -0.1118  0.3466  0.7999
  153DOPC  H11A18294   5.610   6.150  17.405  0.1675 -0.5194  0.2212
  153DOPC  H11B18295   5.489   6.027  17.366  2.8524 -0.1928  1.5967
  153DOPC     P18296   5.344   6.189  17.170 -0.0849 -0.0349 -0.6505
  153DOPC   O1318297   5.346   6.299  17.078  0.4867 -0.0103 -0.0791
  153DOPC   O1418298   5.218   6.169  17.248 -0.2350 -0.3754  0.4013
  153DOPC   O1218299   5.471   6.217  17.263  0.2894  0.2187  0.3870
  153DOPC   O1118300   5.379   6.051  17.099  0.2562  0.1368 -0.1754
  153DOPC    C118301   5.297   5.982  17.006 -0.0291 -0.6482 -0.2178
  153DOPC    HA18302   5.192   6.016  17.016  0.3011  0.2910  0.1345
  153DOPC    HB18303   5.305   5.875  17.035  1.2135 -0.3544  0.6143
  153DOPC    C218304   5.346   5.992  16.855 -0.1074 -0.3724 -0.4801
  153DOPC    HS18305   5.456   5.981  16.852 -0.0626  0.2633 -1.4064
  153DOPC   O2118306   5.304   6.124  16.811 -0.0184  0.4996 -0.4006
  153DOPC   C2118307   5.402   6.203  16.759 -0.3667 -0.3730  0.3841
  153DOPC   O2218308   5.512   6.166  16.723  0.0098  0.4269 -0.0287
  153DOPC   C2218309   5.344   6.349  16.747  0.1372 -0.4844  0.5619
  153DOPC   H2R18310   5.314   6.378  16.850 -1.3422  0.8135 -0.1826
  153DOPC   H2S18311   5.254   6.331  16.684  0.5422  0.0664 -0.1954
  153DOPC    C318312   5.278   5.877  16.773 -0.3179 -0.0998 -0.2454
  153DOPC    HX18313   5.169   5.864  16.785  0.0300 -4.0064  0.0622
  153DOPC    HY18314   5.325   5.784  16.812 -2.3835 -0.3867  1.7410
  153DOPC   O3118315   5.305   5.894  16.631 -0.6062 -0.7496  0.6842
  153DOPC   C3118316   5.428   5.873  16.586  0.0885 -0.1685 -0.1040
  153DOPC   O3218317   5.526   5.841  16.653 -0.2016 -0.6078  0.0100
  153DOPC   C3218318   5.421   5.899  16.439 -0.2178 -0.3780 -0.2600
  153DOPC   H2X18319   5.334   5.960  16.409  0.5722  1.1966  0.5272
  153DOPC   H2Y18320   5.517   5.947  16.410  0.0293 -0.2925  0.6573
  153DOPC   C2318321   5.445   6.449  16.685 -0.0503 -0.1852  0.1350
  153DOPC   H3R18322   5.549   6.434  16.720  0.1152  2.3894  0.9494
  153DOPC   H3S18323   5.415   6.551  16.714  0.0351  0.4940 -1.9999
  153DOPC   C2418324   5.442   6.455  16.523  0.2512 -0.0315 -0.8699
  153DOPC   H4R18325   5.510   6.538  16.495  1.3006 -0.5391  0.1106
  153DOPC   H4S18326   5.341   6.495  16.499 -0.1478 -0.3868  0.1701
  153DOPC   C2518327   5.479   6.318  16.448  0.2093 -0.1347  0.2168
  153DOPC   H5R18328   5.409   6.240  16.485 -0.2719  1.0216  1.8768
  153DOPC   H5S18329   5.580   6.293  16.487  0.4980 -0.1797 -0.5458
  153DOPC   C2618330   5.476   6.345  16.298  0.0523  0.5920  0.7768
  153DOPC   H6R18331   5.566   6.407  16.277  0.3968 -0.3974 -0.8169
  153DOPC   H6S18332   5.378   6.392  16.275  1.1534  2.0674 -1.2573
  153DOPC   C2718333   5.453   6.212  16.224 -0.5200 -0.6218 -0.3183
  153DOPC   H7R18334   5.357   6.164  16.251  0.4433 -2.2041  0.4861
  153DOPC   H7S18335   5.528   6.139  16.262  0.8751  1.3371  0.8949
  153DOPC   C2818336   5.457   6.225  16.071 -0.5355  0.1913 -0.9645
  153DOPC   H8R18337   5.547   6.279  16.035  0.0397  0.0785  0.2191
  153DOPC   H8S18338   5.370   6.282  16.033  0.6643  2.6252 -0.2613
  153DOPC   C2918339   5.471   6.098  16.003  0.1997  0.2094  0.3453
  153DOPC   H9R18340   5.569   6.062  15.966  1.0151 -1.2239  3.5529
  153DOPC  C21018341   5.360   6.034  15.957  0.0605 -0.0377 -0.0623
  153DOPC  H10R18342   5.377   5.943  15.897 -0.6069 -0.1704 -0.0633
  153DOPC  C21118343   5.217   6.072  15.981  0.2018  0.3741  0.1477
  153DOPC  H11R18344   5.217   6.148  16.061  2.5931  0.0049  0.5486
  153DOPC  H11S18345   5.169   5.981  16.024 -0.0217 -0.2297 -1.3290
  153DOPC  C21218346   5.141   6.127  15.855  0.0445 -0.7571  0.3877
  153DOPC  H12R18347   5.175   6.231  15.838 -1.0006 -0.1982  1.5760
  153DOPC  H12S18348   5.034   6.110  15.881  0.4196 -0.3164  2.4110
  153DOPC  C21318349   5.160   6.046  15.723 -0.2544 -0.2173 -0.2609
  153DOPC  H13R18350   5.129   5.940  15.738 -0.3573 -0.3321 -1.2039
  153DOPC  H13S18351   5.265   6.050  15.687  0.1879  1.5787  1.0754
  153DOPC  C21418352   5.090   6.105  15.611 -0.2618  0.3747  1.4742
  153DOPC  H14R18353   5.095   6.215  15.623  1.1138  0.3648  1.2271
  153DOPC  H14S18354   4.983   6.078  15.605 -0.9470  3.1234 -1.5682
  153DOPC  C21518355   5.164   6.073  15.480 -0.6878  0.0351 -0.6069
  153DOPC  H15R18356   5.181   5.964  15.471 -0.9766  0.0968 -2.1013
  153DOPC  H15S18357   5.255   6.136  15.475 -0.2192 -0.4674  0.9700
  153DOPC  C21618358   5.065   6.114  15.364  0.5265  0.1247  0.0211
  153DOPC  H16R18359   5.031   6.218  15.382 -2.1072 -0.4961 -0.8196
  153DOPC  H16S18360   4.977   6.047  15.378  1.6084 -0.9948  1.8091
  153DOPC  C21718361   5.128   6.092  15.229 -0.1831 -0.1492  1.3635
  153DOPC  H17R18362   5.138   5.983  15.210  0.1645 -0.1080  1.3055
  153DOPC  H17S18363   5.230   6.136  15.241 -0.3681  0.0382  2.3119
  153DOPC  C21818364   5.054   6.148  15.105  0.9127 -0.0953 -0.8268
  153DOPC  H18R18365   5.003   6.239  15.143 -2.3996 -2.9535  2.2978
  153DOPC  H18S18366   4.972   6.076  15.087  0.0524  0.4385  0.7566
  153DOPC  H18T18367   5.116   6.163  15.014  2.4390 -0.6963  0.0831
  153DOPC   C3318368   5.409   5.764  16.371 -0.5788 -0.1512 -0.0223
  153DOPC   H3X18369   5.313   5.709  16.379 -0.8859 -0.0658 -2.4150
  153DOPC   H3Y18370   5.497   5.704  16.404 -0.5280 -0.9172 -1.4879
  153DOPC   C3418371   5.442   5.770  16.219 -1.0027 -0.3267 -0.0680
  153DOPC   H4X18372   5.549   5.785  16.197 -0.8124 -0.5834  0.6609
  153DOPC   H4Y18373   5.379   5.853  16.180  0.7092  0.9003 -0.3161
  153DOPC   C3518374   5.419   5.647  16.140  0.4266  0.3268 -0.1133
  153DOPC   H5X18375   5.322   5.595  16.147  0.2410  0.6171 -0.4972
  153DOPC   H5Y18376   5.497   5.575  16.175  1.0150  1.6799  1.4588
  153DOPC   C3618377   5.423   5.679  15.985 -0.7579 -0.1112  0.0544
  153DOPC   H6X18378   5.351   5.761  15.962  1.5945  2.6412  1.7554
  153DOPC   H6Y18379   5.522   5.723  15.961 -0.1305 -1.1715  0.6447
  153DOPC   C3718380   5.393   5.555  15.897  0.9879  0.0548  0.2641
  153DOPC   H7X18381   5.423   5.467  15.958  0.9105 -0.1848 -0.0459
  153DOPC   H7Y18382   5.284   5.545  15.877  0.7711 -0.6611  1.6589
  153DOPC   C3818383   5.467   5.559  15.760 -0.1485 -0.3746 -0.7509
  153DOPC   H8X18384   5.484   5.457  15.721  0.3398 -1.3254  1.8219
  153DOPC   H8Y18385   5.575   5.583  15.773 -0.2714 -1.2064  2.6615
  153DOPC   C3918386   5.397   5.651  15.663  0.7986  0.1104  0.0021
  153DOPC   H9X18387   5.298   5.608  15.643  1.1075 -1.3682  1.4361
  153DOPC  C31018388   5.435   5.771  15.619  0.0941 -0.6366 -0.9674
  153DOPC  H10X18389   5.362   5.816  15.550  0.7814 -1.8671 -2.5525
  153DOPC  C31118390   5.564   5.841  15.636 -0.0521 -0.3057 -0.1552
  153DOPC  H11X18391   5.613   5.802  15.728 -1.1837  0.9484  1.0273
  153DOPC  H11Y18392   5.527   5.945  15.644  1.3568  0.1786  0.4101
  153DOPC  C31218393   5.668   5.827  15.520 -0.0839  0.2188 -0.2789
  153DOPC  H12X18394   5.748   5.903  15.532  1.1757 -0.9097 -1.2024
  153DOPC  H12Y18395   5.623   5.840  15.419  0.7500 -1.7283 -0.9453
  153DOPC  C31318396   5.733   5.684  15.512 -0.1855 -0.4939 -0.1838
  153DOPC  H13X18397   5.788   5.669  15.608  0.8456 -0.3069 -0.7268
  153DOPC  H13Y18398   5.659   5.602  15.520  0.9955 -1.6675 -0.7736
  153DOPC  C31418399   5.834   5.674  15.395  0.0345  0.7706  0.5450
  153DOPC  H14X18400   5.765   5.663  15.309 -0.7356 -1.4343  1.3684
  153DOPC  H14Y18401   5.888   5.771  15.394 -1.1214  1.4439  1.1219
  153DOPC  C31518402   5.929   5.551  15.405 -0.6024 -0.8088  0.2466
  153DOPC  H15X18403   6.004   5.568  15.486 -1.9930 -2.3110  1.9264
  153DOPC  H15Y18404   5.992   5.559  15.314  0.5923  0.5881  1.1490
  153DOPC  C31618405   5.870   5.409  15.418  0.4718  0.1134  0.5252
  153DOPC  H16X18406   5.784   5.404  15.488  0.6816  2.9881  1.1164
  153DOPC  H16Y18407   5.824   5.387  15.320  2.4902  1.6926 -0.8646
  153DOPC  C31718408   5.976   5.299  15.456 -0.4907  0.3041 -0.6110
  153DOPC  H17X18409   6.053   5.297  15.375 -0.6452  0.2678 -0.7582
  153DOPC  H17Y18410   6.015   5.318  15.558 -0.7364 -1.9251 -0.0478
  153DOPC  C31818411   5.899   5.168  15.468  0.0170 -0.2805 -0.4896
  153DOPC  H18X18412   5.796   5.181  15.509  0.2906 -0.8626  0.4202
  153DOPC  H18Y18413   5.887   5.116  15.371 -0.6652 -0.8124 -0.1325
  153DOPC  H18Z18414   5.951   5.101  15.540 -3.7058 -1.2818  1.5632
  154DOPC     N18415   5.310   3.050  17.151 -0.6627  0.2649  0.3342
  154DOPC   C1218416   5.395   3.125  17.050  0.3567 -0.2733  0.1543
  154DOPC  H12A18417   5.337   3.147  16.961  2.9282 -0.8379 -1.7960
  154DOPC  H12B18418   5.473   3.055  17.022  0.4136 -0.0623 -0.2183
  154DOPC   C1318419   5.397   3.029  17.277  0.9608  0.0786  0.0575
  154DOPC  H13A18420   5.470   2.953  17.253  0.9287 -0.0738  0.4446
  154DOPC  H13B18421   5.443   3.123  17.303  0.9227  0.3945 -0.9574
  154DOPC  H13C18422   5.332   3.008  17.361  0.6073 -0.3541 -0.3164
  154DOPC   C1418423   5.263   2.923  17.094 -0.1616 -0.1921  0.1565
  154DOPC  H14A18424   5.343   2.852  17.074  0.3120  0.0666  1.0321
  154DOPC  H14B18425   5.186   2.871  17.149 -1.5469  0.2170 -1.3198
  154DOPC  H14C18426   5.215   2.936  16.999  0.8774  1.2700 -0.2032
  154DOPC   C1518427   5.190   3.134  17.193  0.4355 -0.5021  0.3705
  154DOPC  H15A18428   5.134   3.100  17.278 -0.9320  0.0349 -0.2891
  154DOPC  H15B18429   5.127   3.135  17.106  1.6101 -2.1058 -0.5509
  154DOPC  H15C18430   5.212   3.239  17.209 -2.5844  0.4030 -0.6439
  154DOPC   C1118431   5.460   3.266  17.095  0.1652  0.0490 -0.2035
  154DOPC  H11A18432   5.516   3.244  17.188  1.8530  0.1880 -1.1491
  154DOPC  H11B18433   5.542   3.302  17.029 -0.1719  3.5982  1.0837
  154DOPC     P18434   5.394   3.518  17.097 -0.6038 -0.1673  0.4819
  154DOPC   O1318435   5.523   3.540  17.158 -0.2925  0.0012 -0.1085
  154DOPC   O1418436   5.280   3.600  17.133 -0.0209 -0.0300  0.1096
  154DOPC   O1218437   5.356   3.365  17.126  0.0044  0.4058 -0.0615
  154DOPC   O1118438   5.411   3.531  16.943  0.0231 -0.0892 -0.1315
  154DOPC    C118439   5.299   3.535  16.858  0.3311  0.8221 -0.6240
  154DOPC    HA18440   5.303   3.621  16.788  0.5662  1.0664 -0.3187
  154DOPC    HB18441   5.213   3.569  16.918  1.0569  0.7889  0.4660
  154DOPC    C218442   5.270   3.402  16.793  0.3774  0.5212  0.5044
  154DOPC    HS18443   5.241   3.330  16.872 -0.2428 -0.9917 -1.0430
  154DOPC   O2118444   5.386   3.357  16.722 -0.4187 -0.4835 -0.4783
  154DOPC   C2118445   5.386   3.224  16.699  0.2319 -0.2602 -0.6014
  154DOPC   O2218446   5.292   3.151  16.724  0.0687  0.0547  0.1148
  154DOPC   C2218447   5.524   3.182  16.652  0.7676  0.1600  0.1546
  154DOPC   H2R18448   5.593   3.183  16.739 -0.5519  2.3187  1.2521
  154DOPC   H2S18449   5.565   3.259  16.583  3.0846 -1.0428  0.0917
  154DOPC    C318450   5.149   3.409  16.692  0.3499  0.5193  0.0118
  154DOPC    HX18451   5.055   3.444  16.740  0.0216 -1.6958  1.0999
  154DOPC    HY18452   5.130   3.303  16.665 -0.4899 -0.0496  2.5437
  154DOPC   O3118453   5.186   3.477  16.568 -0.5324  0.5411 -0.6418
  154DOPC   C3118454   5.130   3.594  16.546 -0.1119  0.1078  0.6201
  154DOPC   O3218455   5.081   3.668  16.636 -0.6762 -0.0614 -0.1883
  154DOPC   C3218456   5.135   3.632  16.397 -0.1514  0.2334  0.1537
  154DOPC   H2X18457   5.232   3.684  16.379  1.2639 -2.9690 -2.3485
  154DOPC   H2Y18458   5.134   3.540  16.336 -1.6103 -0.0566  0.5738
  154DOPC   C2318459   5.527   3.043  16.580  0.2044  0.2799  0.8145
  154DOPC   H3R18460   5.472   2.971  16.643  1.0298 -0.6705  0.4694
  154DOPC   H3S18461   5.632   3.007  16.584  0.4247  1.0180  2.3271
  154DOPC   C2418462   5.478   3.059  16.436 -0.1400  0.0704  0.2257
  154DOPC   H4R18463   5.556   3.112  16.378 -0.0571  0.1375  0.3994
  154DOPC   H4S18464   5.378   3.107  16.425  0.0298  0.3822  0.0475
  154DOPC   C2518465   5.467   2.919  16.373  0.9552 -0.6207 -0.2942
  154DOPC   H5R18466   5.393   2.853  16.422 -0.1586 -0.3292 -1.5188
  154DOPC   H5S18467   5.560   2.858  16.384  1.4776  0.2069 -0.0439
  154DOPC   C2618468   5.449   2.919  16.222  0.7495  0.5595  0.0096
  154DOPC   H6R18469   5.532   2.981  16.181  0.5000  0.6875 -0.3014
  154DOPC   H6S18470   5.352   2.971  16.209  0.2933  0.3303  2.0716
  154DOPC   C2718471   5.446   2.781  16.155 -1.2657 -0.0047 -0.2357
  154DOPC   H7R18472   5.365   2.716  16.193 -0.2419 -1.6721 -0.8138
  154DOPC   H7S18473   5.537   2.728  16.190 -1.1230 -0.5139 -1.3255
  154DOPC   C2818474   5.440   2.760  16.001 -0.2203  0.0638  0.3295
  154DOPC   H8R18475   5.338   2.759  15.959 -1.0659 -0.1785  2.3159
  154DOPC   H8S18476   5.485   2.662  15.974  0.4633  0.6954 -0.9063
  154DOPC   C2918477   5.517   2.863  15.925  0.2269 -0.3842 -0.2671
  154DOPC   H9R18478   5.546   2.952  15.983  0.0567  0.0707 -0.8584
  154DOPC  C21018479   5.546   2.868  15.794  0.4759  0.6133  0.3941
  154DOPC  H10R18480   5.597   2.953  15.744  0.4738  0.2647 -0.2132
  154DOPC  C21118481   5.513   2.759  15.699 -0.5679  0.0903  0.4346
  154DOPC  H11R18482   5.450   2.677  15.741  1.0535 -0.8957  1.0687
  154DOPC  H11S18483   5.609   2.712  15.669 -0.5833 -0.6031  1.3915
  154DOPC  C21218484   5.440   2.804  15.574  0.4919 -0.0979  0.4865
  154DOPC  H12R18485   5.461   2.731  15.493  0.1004  1.4025 -1.0343
  154DOPC  H12S18486   5.483   2.901  15.541 -1.2025  0.4840 -0.1108
  154DOPC  C21318487   5.291   2.822  15.608 -0.1774 -0.1255 -0.4232
  154DOPC  H13R18488   5.293   2.901  15.686  0.3733 -2.0981  1.6754
  154DOPC  H13S18489   5.263   2.723  15.651 -0.8327  0.1020 -0.3204
  154DOPC  C21418490   5.208   2.866  15.481 -0.5792 -0.6893 -0.1169
  154DOPC  H14R18491   5.255   2.956  15.437 -2.1572  0.2483  0.0232
  154DOPC  H14S18492   5.100   2.886  15.500 -0.1001  0.7946  1.2341
  154DOPC  C21518493   5.224   2.762  15.368  0.5064  0.5415  0.4325
  154DOPC  H15R18494   5.285   2.674  15.398 -0.2637 -0.4791 -0.9310
  154DOPC  H15S18495   5.268   2.809  15.277 -1.5684 -0.8412 -1.3645
  154DOPC  C21618496   5.091   2.713  15.312 -0.5173  0.0484  0.7596
  154DOPC  H16R18497   5.018   2.794  15.294  0.1729  0.5016 -0.0814
  154DOPC  H16S18498   5.050   2.634  15.379  0.2007 -2.1430 -1.2443
  154DOPC  C21718499   5.111   2.629  15.187 -0.1969  0.3598  0.2543
  154DOPC  H17R18500   5.171   2.690  15.117 -0.9626  2.8120  1.5897
  154DOPC  H17S18501   5.012   2.611  15.139 -1.0599 -0.3968  2.1935
  154DOPC  C21818502   5.181   2.497  15.210  0.3483  1.0655 -0.4459
  154DOPC  H18R18503   5.118   2.434  15.276  1.0439  0.9021  0.0700
  154DOPC  H18S18504   5.275   2.512  15.268  0.2097  1.7327 -0.3822
  154DOPC  H18T18505   5.201   2.442  15.116 -1.3853  0.7838 -0.6816
  154DOPC   C3318506   5.013   3.712  16.346 -0.2231  0.1418 -0.0858
  154DOPC   H3X18507   5.031   3.815  16.385  3.2619 -0.2251 -0.3427
  154DOPC   H3Y18508   4.917   3.671  16.382 -0.3763  0.8688  0.3662
  154DOPC   C3418509   5.008   3.724  16.194 -0.6187 -0.0839 -0.0374
  154DOPC   H4X18510   4.936   3.806  16.174 -0.3785  0.7222  2.1044
  154DOPC   H4Y18511   4.964   3.627  16.163 -0.2347 -0.5297  0.7844
  154DOPC   C3518512   5.134   3.755  16.114 -0.3546 -0.0747 -0.4817
  154DOPC   H5X18513   5.193   3.664  16.091  0.7576  0.6488 -0.5839
  154DOPC   H5Y18514   5.201   3.826  16.168 -0.4873  0.2805 -0.7783
  154DOPC   C3618515   5.100   3.832  15.983 -1.0946  0.0662 -0.4054
  154DOPC   H6X18516   5.036   3.769  15.918 -0.0944  0.6721 -2.0344
  154DOPC   H6Y18517   5.054   3.930  16.007  1.0876  1.0678 -0.0691
  154DOPC   C3718518   5.230   3.863  15.904  0.2591  0.4090  0.4399
  154DOPC   H7X18519   5.298   3.924  15.968  1.9264 -0.0228 -0.8587
  154DOPC   H7Y18520   5.280   3.765  15.890  0.3343 -0.1430  3.6737
  154DOPC   C3818521   5.220   3.931  15.767  0.5485 -0.2584  0.5603
  154DOPC   H8X18522   5.319   3.937  15.716  0.4748  2.1086  0.6192
  154DOPC   H8Y18523   5.176   4.032  15.781  0.2318 -0.4295  0.8114
  154DOPC   C3918524   5.130   3.858  15.672  0.7079 -0.5230 -0.1373
  154DOPC   H9X18525   5.137   3.748  15.670  0.6413 -0.5676  1.1841
  154DOPC  C31018526   5.025   3.911  15.607 -0.4109  0.3949 -0.2235
  154DOPC  H10X18527   4.954   3.847  15.554 -1.5954  0.6473  1.0135
  154DOPC  C31118528   4.968   4.052  15.600 -0.5138 -0.4373  0.2290
  154DOPC  H11X18529   5.015   4.114  15.679 -2.8549  1.1282  0.4906
  154DOPC  H11Y18530   4.858   4.064  15.604 -0.5327 -0.6259  0.2675
  154DOPC  C31218531   5.019   4.116  15.468 -0.9984 -0.0398  0.0430
  154DOPC  H12X18532   5.124   4.086  15.451 -1.5821 -1.9199 -0.4572
  154DOPC  H12Y18533   5.011   4.225  15.489  0.8931  0.6482 -2.3195
  154DOPC  C31318534   4.938   4.071  15.347 -0.0604  0.2483  0.1255
  154DOPC  H13X18535   5.014   4.095  15.269  0.3411  0.9358  0.7128
  154DOPC  H13Y18536   4.921   3.961  15.345 -0.0757  0.2126  1.3332
  154DOPC  C31418537   4.819   4.158  15.314  0.6678  0.6646  0.3639
  154DOPC  H14X18538   4.763   4.152  15.410 -1.4096 -0.8140 -0.8506
  154DOPC  H14Y18539   4.843   4.264  15.291  1.5801  0.2132 -0.9475
  154DOPC  C31518540   4.730   4.108  15.197 -0.5587 -0.7456  0.5098
  154DOPC  H15X18541   4.636   4.167  15.197 -0.7855 -1.1038  0.3642
  154DOPC  H15Y18542   4.682   4.009  15.213 -0.1914 -0.6708  2.2555
  154DOPC  C31618543   4.799   4.110  15.053 -0.2822  0.4314  0.8651
  154DOPC  H16X18544   4.843   4.210  15.033  0.4299 -0.0285  0.1082
  154DOPC  H16Y18545   4.883   4.038  15.052 -0.8865 -0.2816  1.1473
  154DOPC  C31718546   4.692   4.080  14.936 -0.1626 -0.0586 -0.1223
  154DOPC  H17X18547   4.752   4.059  14.845 -0.2869  1.5715 -0.6242
  154DOPC  H17Y18548   4.631   3.990  14.957 -1.1833  0.3533 -1.2065
  154DOPC  C31818549   4.596   4.193  14.913 -0.3001  0.0512 -0.4881
  154DOPC  H18X18550   4.541   4.150  14.826  0.4630 -0.5210 -0.7025
  154DOPC  H18Y18551   4.520   4.208  14.992 -1.0000  2.3882 -1.5124
  154DOPC  H18Z18552   4.635   4.291  14.879 -2.7773  1.7072  1.1425
  155DOPC     N18553   0.534   1.391  17.376 -0.5143 -0.4851 -0.0816
  155DOPC   C1218554   0.592   1.340  17.239 -0.2736  0.0241 -0.3541
  155DOPC  H12A18555   0.584   1.232  17.237  1.4068 -0.1345  0.0145
  155DOPC  H12B18556   0.698   1.363  17.234  0.0638 -0.5981  2.2583
  155DOPC   C1318557   0.588   1.312  17.484 -0.0580 -0.1478 -0.0566
  155DOPC  H13A18558   0.575   1.205  17.476 -0.0404 -0.0552 -1.9956
  155DOPC  H13B18559   0.695   1.322  17.494  0.0636 -1.5235  0.1742
  155DOPC  H13C18560   0.548   1.337  17.581  0.5116 -2.0966  0.7308
  155DOPC   C1418561   0.382   1.386  17.374  0.3283 -0.1864 -0.0075
  155DOPC  H14A18562   0.337   1.428  17.285  1.3314  1.0559  0.0372
  155DOPC  H14B18563   0.341   1.288  17.389 -1.5143  0.7331  1.4752
  155DOPC  H14C18564   0.347   1.444  17.458 -0.0868  1.1669 -1.0710
  155DOPC   C1518565   0.584   1.532  17.387  0.2639 -0.4133  0.4198
  155DOPC  H15A18566   0.686   1.553  17.359  0.2914 -1.5779 -0.4262
  155DOPC  H15B18567   0.565   1.582  17.481 -0.8715 -0.5996  0.3035
  155DOPC  H15C18568   0.520   1.597  17.330  1.1030 -0.3858 -0.5251
  155DOPC   C1118569   0.540   1.401  17.107  0.3626  0.9637  0.0049
  155DOPC  H11A18570   0.556   1.511  17.117 -0.6723  0.9473  3.0657
  155DOPC  H11B18571   0.605   1.367  17.024 -1.0448  1.9959 -1.5955
  155DOPC     P18572   0.309   1.461  16.994  0.1197 -0.1542 -0.3311
  155DOPC   O1318573   0.251   1.566  17.085 -0.3511 -0.6555 -0.1938
  155DOPC   O1418574   0.213   1.381  16.909 -1.0325 -0.4598  0.0912
  155DOPC   O1218575   0.401   1.352  17.076 -0.5472  0.5419  0.0924
  155DOPC   O1118576   0.404   1.528  16.896 -0.1130 -0.1114 -0.0156
  155DOPC    C118577   0.490   1.453  16.803 -0.6359 -0.5922 -0.9736
  155DOPC    HA18578   0.495   1.343  16.817  0.0729 -0.3593  0.7988
  155DOPC    HB18579   0.588   1.505  16.790 -0.7974  0.0895  0.3958
  155DOPC    C218580   0.431   1.469  16.656 -0.3133  0.4143 -0.5890
  155DOPC    HS18581   0.505   1.414  16.594  0.5324  1.1364 -0.2435
  155DOPC   O2118582   0.417   1.610  16.630  0.6790  0.3323  0.4323
  155DOPC   C2118583   0.530   1.670  16.594 -0.7075  1.6097  0.1932
  155DOPC   O2218584   0.642   1.617  16.600 -0.2452 -0.3192 -0.1391
  155DOPC   C2218585   0.504   1.815  16.549 -0.3876 -0.8892 -0.0021
  155DOPC   H2R18586   0.555   1.876  16.626  0.6369  0.8704 -1.9925
  155DOPC   H2S18587   0.396   1.840  16.558 -0.5686 -1.6020 -0.0634
  155DOPC    C318588   0.306   1.392  16.631  0.4710  0.0297 -0.4430
  155DOPC    HX18589   0.219   1.445  16.676  1.8987  0.9307  1.3772
  155DOPC    HY18590   0.309   1.287  16.668 -2.2062 -1.1214 -3.0481
  155DOPC   O3118591   0.293   1.385  16.491  0.3426  0.1751 -0.0658
  155DOPC   C3118592   0.207   1.467  16.426  0.6684 -0.3155 -0.2595
  155DOPC   O3218593   0.143   1.560  16.476  0.4225  0.1592  0.0887
  155DOPC   C3218594   0.208   1.443  16.277  0.2097  0.7516 -0.5382
  155DOPC   H2X18595   0.238   1.337  16.262  0.3620  0.3611  1.9836
  155DOPC   H2Y18596   0.108   1.458  16.230  0.2938 -3.0872 -2.2571
  155DOPC   C2318597   0.568   1.854  16.410  0.2246  0.3964 -0.2241
  155DOPC   H3R18598   0.553   1.963  16.402 -1.9818  0.0246 -3.0521
  155DOPC   H3S18599   0.502   1.821  16.326 -0.3628  1.9873 -0.4108
  155DOPC   C2418600   0.716   1.826  16.385 -0.0415 -0.2894 -0.6996
  155DOPC   H4R18601   0.729   1.716  16.374 -0.6451 -0.4839  0.3974
  155DOPC   H4S18602   0.779   1.865  16.468  0.1692  1.2671 -1.5579
  155DOPC   C2518603   0.774   1.902  16.256 -0.1037  0.6735 -0.1253
  155DOPC   H5R18604   0.759   2.007  16.287  0.5018 -0.4070  4.4652
  155DOPC   H5S18605   0.706   1.876  16.172  1.0630 -0.1771 -0.8297
  155DOPC   C2618606   0.908   1.850  16.212 -0.3615 -0.5466 -0.1146
  155DOPC   H6R18607   0.886   1.747  16.176  0.5019 -0.9141  0.3537
  155DOPC   H6S18608   0.984   1.849  16.293 -1.1876 -0.8921  0.6795
  155DOPC   C2718609   0.952   1.942  16.097 -0.4129  0.3930  0.0328
  155DOPC   H7R18610   0.953   2.050  16.122  2.2458 -0.1608  3.0952
  155DOPC   H7S18611   0.876   1.924  16.018 -1.0635 -0.0706  0.7481
  155DOPC   C2818612   1.085   1.894  16.036 -0.0503 -0.0665 -0.9656
  155DOPC   H8R18613   1.103   1.784  16.046  0.9814  0.2907  2.7896
  155DOPC   H8S18614   1.174   1.937  16.087 -0.2202  1.9009 -2.2341
  155DOPC   C2918615   1.094   1.934  15.889 -0.5155  0.2087 -0.9182
  155DOPC   H9R18616   1.128   2.038  15.884 -0.4260  0.2979  0.8859
  155DOPC  C21018617   1.027   1.884  15.783 -0.3641  0.2678 -0.2942
  155DOPC  H10R18618   1.073   1.924  15.691  2.0653  0.3579  0.9076
  155DOPC  C21118619   0.938   1.763  15.771 -0.2624 -0.4229 -0.1733
  155DOPC  H11R18620   0.892   1.732  15.868 -0.7410  0.5713 -0.0660
  155DOPC  H11S18621   1.004   1.684  15.730  1.0289  1.0713 -1.0754
  155DOPC  C21218622   0.826   1.778  15.674 -0.4387 -1.0497 -0.1302
  155DOPC  H12R18623   0.791   1.883  15.678  1.8009 -0.0593 -2.6587
  155DOPC  H12S18624   0.754   1.704  15.713 -0.2440  0.2151  2.8820
  155DOPC  C21318625   0.866   1.736  15.529  0.1464 -0.1896 -0.2706
  155DOPC  H13R18626   0.907   1.633  15.533  0.6278  0.0214  0.4745
  155DOPC  H13S18627   0.944   1.800  15.483  1.2681 -1.6396 -0.4472
  155DOPC  C21418628   0.745   1.744  15.434 -0.3837  0.3238  0.2053
  155DOPC  H14R18629   0.699   1.843  15.455 -0.7621  0.8933 -2.7766
  155DOPC  H14S18630   0.672   1.666  15.464  0.4050 -1.5207 -2.3291
  155DOPC  C21518631   0.768   1.738  15.282  0.0147  0.0429  0.2155
  155DOPC  H15R18632   0.843   1.818  15.261  0.6403 -0.5311  0.2156
  155DOPC  H15S18633   0.680   1.775  15.226 -0.9591 -0.5632  1.3026
  155DOPC  C21618634   0.814   1.602  15.236  0.6946  0.4073  0.4631
  155DOPC  H16R18635   0.732   1.527  15.223  1.0017  0.4075 -1.9101
  155DOPC  H16S18636   0.891   1.568  15.308  1.1688 -1.4004 -0.8230
  155DOPC  C21718637   0.885   1.616  15.094  0.0867  0.1811  0.2999
  155DOPC  H17R18638   0.912   1.514  15.061  2.7313  0.5650  1.1013
  155DOPC  H17S18639   0.970   1.686  15.103  1.5199 -1.2651 -1.3657
  155DOPC  C21818640   0.784   1.667  14.985  0.0983  0.2580 -0.2555
  155DOPC  H18R18641   0.760   1.775  14.996 -0.6415 -0.0302  1.2565
  155DOPC  H18S18642   0.693   1.602  14.986  0.7065 -0.6409  1.4116
  155DOPC  H18T18643   0.826   1.648  14.884  0.4318 -0.9730  0.0858
  155DOPC   C3318644   0.298   1.545  16.203 -0.0422  0.5770 -1.0645
  155DOPC   H3X18645   0.267   1.647  16.235 -0.2845  0.2686 -0.2816
  155DOPC   H3Y18646   0.288   1.539  16.092  1.5696 -0.5006 -1.1930
  155DOPC   C3418647   0.444   1.540  16.250 -0.2574 -0.0182 -0.0352
  155DOPC   H4X18648   0.459   1.573  16.355  0.8079 -2.0517  0.5029
  155DOPC   H4Y18649   0.500   1.602  16.177  0.6199  0.2408  0.8367
  155DOPC   C3518650   0.502   1.399  16.248 -0.6859  0.0519 -0.4551
  155DOPC   H5X18651   0.464   1.344  16.160 -0.5808 -1.1081  0.2025
  155DOPC   H5Y18652   0.466   1.347  16.340  1.7707  1.9932  1.7868
  155DOPC   C3618653   0.652   1.399  16.255  0.3957  0.1345  0.0749
  155DOPC   H6X18654   0.699   1.416  16.354 -1.8614 -0.6128  1.3260
  155DOPC   H6Y18655   0.680   1.294  16.232  1.5479  0.6091 -0.8202
  155DOPC   C3718656   0.726   1.490  16.157  0.7069 -0.2915 -0.7727
  155DOPC   H7X18657   0.697   1.466  16.052  0.8188  1.9315 -1.3610
  155DOPC   H7Y18658   0.697   1.596  16.170 -2.4660 -1.1250  0.0716
  155DOPC   C3818659   0.877   1.475  16.162 -0.6050  0.5858  0.0521
  155DOPC   H8X18660   0.905   1.486  16.269 -2.5863 -0.1096  0.6904
  155DOPC   H8Y18661   0.923   1.557  16.104 -1.4876  0.0028 -1.5306
  155DOPC   C3918662   0.920   1.339  16.098  0.7878 -0.2635 -0.1620
  155DOPC   H9X18663   0.929   1.260  16.173 -3.7039  0.5291  1.5585
  155DOPC  C31018664   0.926   1.310  15.964 -0.6967  0.3639  0.0754
  155DOPC  H10X18665   0.948   1.209  15.928  0.4791  1.1226 -1.4912
  155DOPC  C31118666   0.890   1.399  15.852 -0.6135  0.3083  0.9512
  155DOPC  H11X18667   0.984   1.445  15.813  0.9581 -2.7470  0.8018
  155DOPC  H11Y18668   0.820   1.483  15.871 -1.6550  0.0004 -1.2275
  155DOPC  C31218669   0.829   1.311  15.741  0.5524  1.1985  0.6942
  155DOPC  H12X18670   0.760   1.386  15.694 -0.1307  1.6205  2.2857
  155DOPC  H12Y18671   0.760   1.232  15.777 -0.7809  1.4476 -1.1606
  155DOPC  C31318672   0.934   1.264  15.632 -0.3538 -0.4611 -0.0622
  155DOPC  H13X18673   0.995   1.354  15.611  1.0160 -0.8884  1.8015
  155DOPC  H13Y18674   0.987   1.181  15.685 -0.6399 -1.8835 -1.9098
  155DOPC  C31418675   0.854   1.215  15.507  0.1930 -0.2205 -0.2188
  155DOPC  H14X18676   0.783   1.143  15.553 -0.8125  2.3505  2.5250
  155DOPC  H14Y18677   0.799   1.299  15.458  0.4708 -0.6532 -1.3159
  155DOPC  C31518678   0.940   1.162  15.395 -0.6612 -0.0987  0.2894
  155DOPC  H15X18679   0.875   1.168  15.306 -1.3876  0.4004  0.8486
  155DOPC  H15Y18680   0.959   1.057  15.426 -0.9892  0.1363  1.3223
  155DOPC  C31618681   1.075   1.236  15.353 -0.1785 -0.0242  0.1976
  155DOPC  H16X18682   1.047   1.336  15.315 -3.0216 -1.3131 -1.3781
  155DOPC  H16Y18683   1.142   1.237  15.442 -2.0552 -0.9559  1.6824
  155DOPC  C31718684   1.135   1.156  15.235 -0.7961 -0.9028  0.0960
  155DOPC  H17X18685   1.176   1.063  15.281 -1.5912 -0.9296  0.7775
  155DOPC  H17Y18686   1.047   1.129  15.172 -0.2301 -2.4540 -0.0861
  155DOPC  C31818687   1.246   1.231  15.158 -0.2572  0.1596  0.2981
  155DOPC  H18X18688   1.284   1.310  15.226 -2.9840  3.4372 -1.6391
  155DOPC  H18Y18689   1.325   1.162  15.121  0.0360  0.2979  0.6574
  155DOPC  H18Z18690   1.197   1.288  15.076 -0.2945 -0.7351 -0.3172
  156DOPC     N18691   5.986   5.607  17.449  0.1140 -0.3579  0.2686
  156DOPC   C1218692   5.903   5.602  17.327 -0.2698 -0.0862  0.2095
  156DOPC  H12A18693   5.958   5.616  17.235  1.3065  1.5619  1.3301
  156DOPC  H12B18694   5.834   5.683  17.339 -1.1564 -0.8782  0.5625
  156DOPC   C1318695   6.051   5.741  17.459  0.4091  0.3278  0.2753
  156DOPC  H13A18696   6.118   5.740  17.544 -2.1728  0.5812  2.4362
  156DOPC  H13B18697   6.105   5.771  17.371 -0.4433 -0.5939 -0.5889
  156DOPC  H13C18698   5.981   5.821  17.481 -0.2546 -0.3433  0.6770
  156DOPC   C1418699   6.098   5.502  17.438  0.7450 -0.1852  0.0377
  156DOPC  H14A18700   6.054   5.408  17.409  0.7079 -0.0269 -0.4260
  156DOPC  H14B18701   6.161   5.540  17.359  0.7140  0.1227  0.1561
  156DOPC  H14C18702   6.152   5.488  17.531 -0.8431 -3.5450  0.5668
  156DOPC   C1518703   5.906   5.578  17.569  0.1291  0.0498 -0.3992
  156DOPC  H15A18704   5.871   5.476  17.567 -0.0812  0.1104  0.0243
  156DOPC  H15B18705   5.818   5.640  17.570  0.1770  0.1218 -0.7592
  156DOPC  H15C18706   5.959   5.592  17.663 -2.2504 -0.4478  1.1035
  156DOPC   C1118707   5.816   5.477  17.303 -0.1191  0.0760 -0.0670
  156DOPC  H11A18708   5.757   5.460  17.396  0.7142  0.0137  0.4648
  156DOPC  H11B18709   5.746   5.490  17.218  0.5815  2.2470 -0.3497
  156DOPC     P18710   5.939   5.301  17.146  0.4587  0.4722  0.3186
  156DOPC   O1318711   5.986   5.161  17.164  0.1151 -0.1689  0.1712
  156DOPC   O1418712   6.037   5.400  17.103  0.3024 -0.8216 -0.2348
  156DOPC   O1218713   5.887   5.353  17.284  0.6197  0.4024 -0.0940
  156DOPC   O1118714   5.812   5.304  17.052 -0.3541 -0.5152  0.4352
  156DOPC    C118715   5.805   5.394  16.937  0.6083 -0.1151 -0.0189
  156DOPC    HA18716   5.900   5.390  16.880 -0.0576 -0.9200 -1.1019
  156DOPC    HB18717   5.792   5.497  16.977  1.7338 -0.6576  1.9111
  156DOPC    C218718   5.688   5.352  16.839  0.1980  0.5290 -0.2725
  156DOPC    HS18719   5.593   5.339  16.894  1.1755 -0.2524  1.2986
  156DOPC   O2118720   5.724   5.232  16.766 -0.0801  0.9235 -0.4222
  156DOPC   C2118721   5.626   5.153  16.730 -0.3159 -0.8567 -0.8208
  156DOPC   O2218722   5.507   5.171  16.749  0.0720  0.3638 -0.3558
  156DOPC   C2218723   5.679   5.041  16.649 -0.4925  0.1739  0.3654
  156DOPC   H2R18724   5.768   5.009  16.708 -0.0698  0.0913 -0.3135
  156DOPC   H2S18725   5.705   5.078  16.548  0.0755 -3.2115 -0.8513
  156DOPC    C318726   5.669   5.463  16.728 -0.4589  0.1713  0.0334
  156DOPC    HX18727   5.762   5.456  16.669 -0.4070 -1.6993  0.2745
  156DOPC    HY18728   5.667   5.569  16.762 -2.0188  1.2870 -3.0654
  156DOPC   O3118729   5.559   5.452  16.633  0.1116 -0.2445  0.3949
  156DOPC   C3118730   5.440   5.487  16.674 -0.2249  0.0954  0.0996
  156DOPC   O3218731   5.414   5.537  16.781 -0.8815  0.7176 -0.5298
  156DOPC   C3218732   5.337   5.442  16.569 -0.6355  0.0245  0.1493
  156DOPC   H2X18733   5.362   5.494  16.475 -1.0101  1.9108  1.0491
  156DOPC   H2Y18734   5.359   5.335  16.550 -1.1629 -0.0782  0.0965
  156DOPC   C2318735   5.577   4.917  16.659  0.0499 -0.1699  0.6491
  156DOPC   H3R18736   5.488   4.947  16.599  0.1032 -0.6043  0.3515
  156DOPC   H3S18737   5.553   4.905  16.766 -2.3267 -0.6412  0.1198
  156DOPC   C2418738   5.632   4.782  16.599  0.4752  0.1691  0.4927
  156DOPC   H4R18739   5.739   4.778  16.628  1.3097  1.0853 -2.1329
  156DOPC   H4S18740   5.627   4.804  16.490  2.7984 -3.0352 -0.4188
  156DOPC   C2518741   5.560   4.652  16.644  0.7883  0.2963 -0.7577
  156DOPC   H5R18742   5.527   4.673  16.749 -1.8096 -1.3094 -1.1695
  156DOPC   H5S18743   5.628   4.565  16.646 -1.4365 -1.5212 -0.1504
  156DOPC   C2618744   5.445   4.610  16.552  0.4192  0.2427  0.4169
  156DOPC   H6R18745   5.364   4.683  16.572  1.1010  1.5141 -1.1987
  156DOPC   H6S18746   5.395   4.515  16.581  0.9715 -0.0357  0.4580
  156DOPC   C2718747   5.479   4.584  16.404  0.0281 -0.8041  0.3305
  156DOPC   H7R18748   5.527   4.484  16.397  0.4201 -0.5642 -0.6217
  156DOPC   H7S18749   5.546   4.654  16.350 -0.8926 -0.8764 -0.9781
  156DOPC   C2818750   5.359   4.576  16.301  0.1321  0.2482  0.6029
  156DOPC   H8R18751   5.398   4.566  16.198  0.6237 -0.3900  0.8411
  156DOPC   H8S18752   5.309   4.675  16.297 -4.0607 -1.6874 -0.5316
  156DOPC   C2918753   5.256   4.464  16.331  0.2328 -0.4273 -0.6711
  156DOPC   H9R18754   5.164   4.504  16.376  2.3016  2.4568  1.3675
  156DOPC  C21018755   5.270   4.331  16.295 -0.6203 -0.6634 -0.0769
  156DOPC  H10R18756   5.193   4.257  16.322 -0.3151 -0.7085  0.6955
  156DOPC  C21118757   5.380   4.276  16.209 -0.8113  0.8696  0.1581
  156DOPC  H11R18758   5.450   4.211  16.266 -1.0210 -0.2913 -0.8761
  156DOPC  H11S18759   5.442   4.357  16.163  1.5562 -0.0163  1.5800
  156DOPC  C21218760   5.319   4.199  16.085  0.1717  0.9659 -0.4055
  156DOPC  H12R18761   5.234   4.140  16.126 -0.7150  1.0942 -1.9719
  156DOPC  H12S18762   5.396   4.136  16.035  1.5662  0.5803  2.0300
  156DOPC  C21318763   5.259   4.284  15.972 -0.0422 -0.6201 -0.0107
  156DOPC  H13R18764   5.200   4.361  16.027 -0.5644 -0.5737 -0.6274
  156DOPC  H13S18765   5.190   4.229  15.905 -0.1351 -1.0975  0.4655
  156DOPC  C21418766   5.368   4.340  15.877  0.1588 -0.2128  0.5253
  156DOPC  H14R18767   5.430   4.255  15.840  1.4567 -0.7428  3.5506
  156DOPC  H14S18768   5.446   4.387  15.941  2.4254  0.1303 -2.3227
  156DOPC  C21518769   5.312   4.436  15.779 -0.2189 -0.2445 -0.3813
  156DOPC  H15R18770   5.299   4.526  15.842 -0.6105 -1.2618  1.0492
  156DOPC  H15S18771   5.212   4.395  15.753 -1.6510  0.3586  3.5114
  156DOPC  C21618772   5.395   4.453  15.650  0.5031 -0.6526 -0.1618
  156DOPC  H16R18773   5.399   4.356  15.596 -0.5671 -0.4869 -0.5558
  156DOPC  H16S18774   5.497   4.486  15.679  0.6447 -1.5769  0.4515
  156DOPC  C21718775   5.328   4.564  15.565  0.2725  1.0643 -0.4732
  156DOPC  H17R18776   5.312   4.656  15.624  1.9949  0.5565  0.8604
  156DOPC  H17S18777   5.230   4.528  15.527  0.1821  1.4181 -0.5760
  156DOPC  C21818778   5.404   4.598  15.437  0.1767 -0.2335 -0.3275
  156DOPC  H18R18779   5.438   4.506  15.387  3.0587 -0.7634  2.3150
  156DOPC  H18S18780   5.496   4.660  15.445  0.0007 -0.0756  0.6121
  156DOPC  H18T18781   5.330   4.650  15.372 -1.7817 -0.0538  1.9137
  156DOPC   C3318782   5.194   5.467  16.614  0.4136 -0.3893  0.0845
  156DOPC   H3X18783   5.171   5.576  16.612 -0.1774 -0.5270 -0.9726
  156DOPC   H3Y18784   5.169   5.440  16.719 -1.3839 -1.8700 -0.6851
  156DOPC   C3418785   5.089   5.385  16.531 -0.1550  0.7880  0.6397
  156DOPC   H4X18786   5.093   5.283  16.573  1.4698 -0.1106 -1.4857
  156DOPC   H4Y18787   5.127   5.369  16.427 -3.0022  1.3466 -0.5715
  156DOPC   C3518788   4.947   5.443  16.525 -0.5287 -0.3732 -0.4221
  156DOPC   H5X18789   4.936   5.488  16.626  2.1107  1.0034 -0.6440
  156DOPC   H5Y18790   4.868   5.366  16.511 -1.0408  0.1368 -0.3761
  156DOPC   C3618791   4.938   5.554  16.421 -0.4168 -0.2945  0.2584
  156DOPC   H6X18792   4.876   5.642  16.449  2.9107  2.1665  0.5765
  156DOPC   H6Y18793   5.046   5.578  16.414 -0.0825 -0.9109  2.4949
  156DOPC   C3718794   4.895   5.511  16.277 -0.2955  0.2484  0.4783
  156DOPC   H7X18795   4.974   5.445  16.235  0.2466 -0.0614  1.8949
  156DOPC   H7Y18796   4.800   5.453  16.281  0.4658 -0.9916  2.5117
  156DOPC   C3818797   4.875   5.626  16.178  0.1423 -0.6004  0.3544
  156DOPC   H8X18798   4.807   5.702  16.223 -0.6022 -1.1722  0.2197
  156DOPC   H8Y18799   4.817   5.579  16.095 -0.6684  1.4617 -0.3138
  156DOPC   C3918800   4.994   5.692  16.117  0.7707 -0.0709  0.2715
  156DOPC   H9X18801   5.089   5.665  16.164  0.2756  1.2044  2.1416
  156DOPC  C31018802   4.995   5.741  15.995  0.3864  0.0678 -0.8025
  156DOPC  H10X18803   5.093   5.770  15.954 -0.3592 -0.2256 -2.9432
  156DOPC  C31118804   4.873   5.774  15.910  0.3880  0.1898 -0.1278
  156DOPC  H11X18805   4.900   5.852  15.835  0.5464 -0.8026 -1.1442
  156DOPC  H11Y18806   4.783   5.817  15.958 -0.0015  0.4587 -1.0787
  156DOPC  C31218807   4.816   5.654  15.821 -0.8986  0.0221  0.4613
  156DOPC  H12X18808   4.772   5.579  15.891  1.4134 -0.8460  1.1036
  156DOPC  H12Y18809   4.896   5.604  15.762 -0.6344  1.3783 -0.3649
  156DOPC  C31318810   4.723   5.708  15.715 -0.8039 -0.5152 -0.2147
  156DOPC  H13X18811   4.642   5.759  15.771  0.2374  1.9505 -0.7922
  156DOPC  H13Y18812   4.768   5.779  15.642 -0.7289 -0.7924 -0.4373
  156DOPC  C31418813   4.655   5.598  15.633  0.4090 -0.5377 -0.5072
  156DOPC  H14X18814   4.573   5.554  15.693 -0.3729  1.3123 -0.1759
  156DOPC  H14Y18815   4.619   5.648  15.541 -0.9708  0.8922  0.7444
  156DOPC  C31518816   4.753   5.488  15.580  0.4635 -0.2633 -0.8146
  156DOPC  H15X18817   4.790   5.432  15.669 -0.5035 -0.2036 -0.3549
  156DOPC  H15Y18818   4.846   5.541  15.549 -0.1470  0.8755 -0.7589
  156DOPC  C31618819   4.699   5.401  15.474 -0.0109  0.0698 -0.2107
  156DOPC  H16X18820   4.766   5.325  15.428 -2.3644 -1.1771 -1.8279
  156DOPC  H16Y18821   4.620   5.341  15.523  0.0665  1.3171  1.5434
  156DOPC  C31718822   4.633   5.473  15.351  0.3916  0.2262 -1.5185
  156DOPC  H17X18823   4.605   5.384  15.290 -1.6619 -2.7670  3.2098
  156DOPC  H17Y18824   4.543   5.524  15.390 -0.2835 -0.8531 -1.6286
  156DOPC  C31818825   4.723   5.570  15.278 -0.7531  0.1514 -0.2707
  156DOPC  H18X18826   4.760   5.653  15.342  3.1438  0.0075 -2.0314
  156DOPC  H18Y18827   4.818   5.522  15.248 -0.5350  0.9096 -0.8281
  156DOPC  H18Z18828   4.671   5.610  15.188 -0.2268  1.4851 -0.0161
  157DOPC     N18829   3.436   1.036  17.302 -0.7903 -0.5938  0.8363
  157DOPC   C1218830   3.429   1.010  17.151  0.6099 -0.2157 -0.0717
  157DOPC  H12A18831   3.471   1.097  17.103 -0.5766  2.5032  3.4204
  157DOPC  H12B18832   3.326   0.990  17.124  0.8657  0.0186 -1.2930
  157DOPC   C1318833   3.351   0.949  17.380 -0.1459  0.0425 -0.2400
  157DOPC  H13A18834   3.349   0.987  17.481 -0.9846  0.0042 -0.2356
  157DOPC  H13B18835   3.253   0.943  17.336 -0.5609 -0.4192  0.7264
  157DOPC  H13C18836   3.386   0.846  17.374  1.9061  0.4431  2.7661
  157DOPC   C1418837   3.403   1.179  17.338  0.2319  0.5149 -0.3555
  157DOPC  H14A18838   3.404   1.184  17.446  1.2318  0.4338 -0.3516
  157DOPC  H14B18839   3.477   1.238  17.286  0.8997  0.0000 -0.0029
  157DOPC  H14C18840   3.308   1.207  17.294  0.3557  0.8462 -0.4192
  157DOPC   C1518841   3.577   1.023  17.346  0.0907  0.4482  0.5050
  157DOPC  H15A18842   3.580   1.038  17.453  0.4834 -0.4631  0.6397
  157DOPC  H15B18843   3.648   1.087  17.296  1.1476 -1.1503 -0.1259
  157DOPC  H15C18844   3.614   0.922  17.330  0.3056  0.2986  1.8280
  157DOPC   C1118845   3.518   0.891  17.101  0.0161 -0.0740 -0.0580
  157DOPC  H11A18846   3.502   0.872  16.993  0.8699 -3.4511  0.3047
  157DOPC  H11B18847   3.621   0.932  17.109 -0.1589  0.1504  1.4018
  157DOPC     P18848   3.382   0.672  17.149  0.3215  0.6591  0.0303
  157DOPC   O1318849   3.252   0.744  17.150  0.2889  0.5999  0.3362
  157DOPC   O1418850   3.389   0.560  17.247 -0.1547 -0.2101 -0.0091
  157DOPC   O1218851   3.495   0.774  17.182  0.1332 -0.0203 -0.0423
  157DOPC   O1118852   3.419   0.627  17.001  0.5750 -0.5025  0.1799
  157DOPC    C118853   3.537   0.560  16.971  0.2055 -0.2254  0.5565
  157DOPC    HA18854   3.513   0.452  16.980  0.6663 -0.4453 -0.6801
  157DOPC    HB18855   3.622   0.597  17.032  0.3906  2.0004 -0.9337
  157DOPC    C218856   3.573   0.559  16.819  0.0917  0.2575 -0.3464
  157DOPC    HS18857   3.665   0.497  16.812 -0.3596 -0.5659  0.7305
  157DOPC   O2118858   3.617   0.691  16.771  0.0095  0.1726  0.6290
  157DOPC   C2118859   3.720   0.748  16.825 -0.2685  0.6542 -0.7398
  157DOPC   O2218860   3.788   0.697  16.918 -0.2825  0.3683 -0.3898
  157DOPC   C2218861   3.750   0.873  16.752  0.0007 -0.2664 -0.0839
  157DOPC   H2R18862   3.680   0.949  16.794  2.1303  1.3592  0.7573
  157DOPC   H2S18863   3.717   0.865  16.646 -2.7927 -2.5103  0.8234
  157DOPC    C318864   3.463   0.513  16.727  0.3276 -0.4416  0.7516
  157DOPC    HX18865   3.380   0.585  16.741  1.9061  1.5649  0.1862
  157DOPC    HY18866   3.442   0.406  16.751 -1.6927  0.1303  1.7136
  157DOPC   O3118867   3.508   0.532  16.586 -0.0719 -0.2166  0.5109
  157DOPC   C3118868   3.466   0.636  16.513  0.4759 -0.7167  0.2209
  157DOPC   O3218869   3.387   0.722  16.544 -0.0775 -0.1257 -0.3828
  157DOPC   C3218870   3.527   0.621  16.376  0.1572  0.7587  0.4392
  157DOPC   H2X18871   3.595   0.534  16.378 -1.6164 -0.7144 -0.0078
  157DOPC   H2Y18872   3.447   0.605  16.300 -0.7512  0.9793  1.3123
  157DOPC   C2318873   3.901   0.921  16.776  0.3212 -0.1451  0.7364
  157DOPC   H3R18874   3.912   0.944  16.884 -1.1272  1.9462  0.4987
  157DOPC   H3S18875   3.923   1.018  16.728  2.4755  0.1225  2.1347
  157DOPC   C2418876   4.014   0.823  16.731  0.1699 -0.4284 -0.4718
  157DOPC   H4R18877   4.005   0.723  16.778 -1.1119 -1.3302 -2.5098
  157DOPC   H4S18878   4.117   0.859  16.756  0.0822 -0.4515 -0.0648
  157DOPC   C2518879   4.020   0.797  16.581  0.3289  0.0764 -0.0385
  157DOPC   H5R18880   4.039   0.894  16.530  0.1013  0.4297  0.5308
  157DOPC   H5S18881   3.922   0.758  16.545  0.6883 -1.3380  0.4545
  157DOPC   C2618882   4.132   0.697  16.550 -0.3752 -0.2218  0.5292
  157DOPC   H6R18883   4.122   0.618  16.626 -4.4040  0.1575  0.5649
  157DOPC   H6S18884   4.225   0.759  16.556  0.1512 -1.1114  2.0498
  157DOPC   C2718885   4.117   0.632  16.409  0.0522  0.3818 -1.1163
  157DOPC   H7R18886   4.190   0.677  16.339  0.4675  1.4916  0.0003
  157DOPC   H7S18887   4.013   0.657  16.380 -0.1755  0.5279 -0.1909
  157DOPC   C2818888   4.139   0.481  16.406  0.1815  0.0277  0.1889
  157DOPC   H8R18889   4.067   0.442  16.331 -1.3497 -0.8925  2.0528
  157DOPC   H8S18890   4.105   0.438  16.502  1.3477  1.5382  1.3179
  157DOPC   C2918891   4.274   0.444  16.354  0.1182 -0.2217 -0.7466
  157DOPC   H9R18892   4.336   0.406  16.437 -2.7614 -1.2451  1.0950
  157DOPC  C21018893   4.315   0.432  16.225 -0.1131 -0.3554 -0.2703
  157DOPC  H10R18894   4.411   0.382  16.206 -0.8026 -1.4435 -0.9907
  157DOPC  C21118895   4.222   0.465  16.108 -1.1286 -0.0052 -0.8001
  157DOPC  H11R18896   4.129   0.515  16.143  0.0814  0.8690  1.3275
  157DOPC  H11S18897   4.202   0.364  16.065  0.3495 -1.2661  1.2927
  157DOPC  C21218898   4.283   0.562  16.004 -0.2167  0.2622  0.7483
  157DOPC  H12R18899   4.393   0.546  15.998 -0.1474 -0.2906  2.7825
  157DOPC  H12S18900   4.262   0.664  16.041 -1.9536  0.9604 -1.8838
  157DOPC  C21318901   4.219   0.553  15.865 -0.1547 -0.0467 -0.4534
  157DOPC  H13R18902   4.113   0.586  15.878 -0.1973  0.0594 -1.0430
  157DOPC  H13S18903   4.226   0.449  15.829  0.3876 -0.0974 -0.2219
  157DOPC  C21418904   4.289   0.645  15.769  0.1870 -0.1148 -0.0328
  157DOPC  H14R18905   4.278   0.622  15.661  0.6656 -0.0369 -0.1034
  157DOPC  H14S18906   4.397   0.630  15.794 -0.0444 -2.0820 -0.0241
  157DOPC  C21518907   4.250   0.795  15.784 -0.4087 -1.5847  0.8249
  157DOPC  H15R18908   4.279   0.827  15.886  0.2557  1.3005 -0.1553
  157DOPC  H15S18909   4.140   0.811  15.782 -0.1176  0.7082 -0.0326
  157DOPC  C21618910   4.317   0.893  15.680 -0.0142  0.1603 -0.6130
  157DOPC  H16R18911   4.292   0.999  15.699 -3.6765 -0.6115 -0.4216
  157DOPC  H16S18912   4.291   0.865  15.575 -2.5164 -0.8528  0.2034
  157DOPC  C21718913   4.468   0.896  15.697 -0.2035 -0.5521  0.3418
  157DOPC  H17R18914   4.522   0.942  15.612  2.1413 -3.8746 -0.2027
  157DOPC  H17S18915   4.512   0.793  15.701  1.1753 -0.0127 -0.2543
  157DOPC  C21818916   4.512   0.964  15.832 -0.0014  0.2718  0.5862
  157DOPC  H18R18917   4.483   0.895  15.915  2.4299 -1.7705 -0.1411
  157DOPC  H18S18918   4.453   1.057  15.841  0.5640  0.5594  1.4144
  157DOPC  H18T18919   4.622   0.971  15.836  0.3756  0.1271 -4.1216
  157DOPC   C3318920   3.597   0.745  16.321 -0.7395  0.1272 -0.0951
  157DOPC   H3X18921   3.702   0.756  16.356 -1.1978  1.0799  1.0526
  157DOPC   H3Y18922   3.536   0.832  16.352 -1.6061 -0.9657  1.3640
  157DOPC   C3418923   3.604   0.747  16.173  0.3386 -0.5480  0.2472
  157DOPC   H4X18924   3.649   0.843  16.137  1.8172 -1.6207 -0.9154
  157DOPC   H4Y18925   3.501   0.733  16.135  0.6925 -0.1071 -0.9157
  157DOPC   C3518926   3.703   0.636  16.120 -0.4773 -0.0969  0.4199
  157DOPC   H5X18927   3.643   0.544  16.107  1.4842 -1.5098  0.9815
  157DOPC   H5Y18928   3.796   0.621  16.177  0.2413 -2.6634 -1.2486
  157DOPC   C3618929   3.765   0.685  15.986  0.0554  0.9459 -0.5595
  157DOPC   H6X18930   3.823   0.776  16.011  0.5665  0.1321  1.4325
  157DOPC   H6Y18931   3.833   0.605  15.950 -0.3806  0.5891 -0.6008
  157DOPC   C3718932   3.657   0.707  15.881  0.4313 -0.2770 -0.4330
  157DOPC   H7X18933   3.560   0.659  15.909  0.6379 -0.6395 -0.3322
  157DOPC   H7Y18934   3.633   0.815  15.882 -0.2455 -0.4161 -0.7907
  157DOPC   C3818935   3.698   0.671  15.744 -0.0906  0.8873  0.5178
  157DOPC   H8X18936   3.738   0.567  15.746 -0.8070  0.6257  1.6432
  157DOPC   H8Y18937   3.776   0.745  15.718 -1.2262  2.7286  2.1195
  157DOPC   C3918938   3.601   0.693  15.634 -0.3573  0.3543 -0.0251
  157DOPC   H9X18939   3.519   0.766  15.646 -0.3144  0.4862 -0.4977
  157DOPC  C31018940   3.604   0.623  15.517 -0.3834  0.1966 -0.0336
  157DOPC  H10X18941   3.519   0.623  15.448 -0.1890 -0.9978 -0.2910
  157DOPC  C31118942   3.707   0.525  15.474  0.0282  0.1169 -0.0801
  157DOPC  H11X18943   3.657   0.445  15.415 -2.3034  0.1946  1.6385
  157DOPC  H11Y18944   3.757   0.473  15.558  2.5069  1.7130 -0.4718
  157DOPC  C31218945   3.821   0.595  15.398 -0.0811  0.3547 -0.2121
  157DOPC  H12X18946   3.899   0.518  15.378 -2.0560 -2.0122  0.6900
  157DOPC  H12Y18947   3.873   0.672  15.459 -0.4207  1.4481 -1.2568
  157DOPC  C31318948   3.783   0.657  15.262 -0.3647 -0.6741  0.3533
  157DOPC  H13X18949   3.734   0.576  15.205  0.5625 -0.4838 -0.7473
  157DOPC  H13Y18950   3.708   0.738  15.277 -2.0187 -1.7994 -1.3586
  157DOPC  C31418951   3.901   0.726  15.192  0.1971  0.6237  0.4088
  157DOPC  H14X18952   3.867   0.812  15.130  0.8088  0.9985  0.5778
  157DOPC  H14Y18953   3.968   0.770  15.269  2.6151 -2.0868  0.0285
  157DOPC  C31518954   3.987   0.628  15.105 -0.1179  0.1600  0.1354
  157DOPC  H15X18955   3.917   0.579  15.033  2.6594  0.5409 -3.0652
  157DOPC  H15Y18956   4.044   0.562  15.173 -1.8965  0.2281  1.8058
  157DOPC  C31618957   4.090   0.712  15.018 -0.8556 -0.0817  0.0759
  157DOPC  H16X18958   4.042   0.787  14.951  1.9560  0.0705 -1.9258
  157DOPC  H16Y18959   4.162   0.767  15.083  0.4401 -1.4686 -0.1436
  157DOPC  C31718960   4.183   0.616  14.939  0.4059  0.3628 -0.2356
  157DOPC  H17X18961   4.233   0.547  15.010  1.1631  1.0706 -0.0700
  157DOPC  H17Y18962   4.111   0.554  14.881 -1.3422  1.8445  0.2578
  157DOPC  C31818963   4.283   0.686  14.844 -0.2701 -0.2082 -0.2075
  157DOPC  H18X18964   4.354   0.608  14.807 -0.3869 -1.0050  1.1468
  157DOPC  H18Y18965   4.229   0.745  14.768  0.8289 -0.1195 -0.9319
  157DOPC  H18Z18966   4.338   0.757  14.909 -0.8622  1.0668 -1.0853
  158DOPC     N18967   3.425   5.267  17.409  0.1836  0.1278  1.0264
  158DOPC   C1218968   3.431   5.366  17.299  0.2139  0.5581 -0.2426
  158DOPC  H12A18969   3.338   5.396  17.253  0.4852 -0.6136 -1.6049
  158DOPC  H12B18970   3.490   5.329  17.217  0.7976  0.7483  0.0820
  158DOPC   C1318971   3.323   5.156  17.389  0.7471 -0.7101 -1.0550
  158DOPC  H13A18972   3.222   5.192  17.409  0.4608 -1.6498 -0.7454
  158DOPC  H13B18973   3.319   5.133  17.284  0.7429 -0.7973 -1.0355
  158DOPC  H13C18974   3.343   5.069  17.451  1.7409 -0.1393 -0.5584
  158DOPC   C1418975   3.393   5.333  17.548  0.4214  0.0308  0.5080
  158DOPC  H14A18976   3.482   5.369  17.595 -0.0850  0.2596  1.3138
  158DOPC  H14B18977   3.323   5.413  17.531 -0.0664 -0.6449 -0.8687
  158DOPC  H14C18978   3.355   5.262  17.621 -1.0580  0.2921  0.0305
  158DOPC   C1518979   3.555   5.194  17.429 -0.3020  0.2069  0.5993
  158DOPC  H15A18980   3.640   5.258  17.450  1.8662 -2.1244 -0.6271
  158DOPC  H15B18981   3.592   5.133  17.348  0.4757 -2.3406  2.7339
  158DOPC  H15C18982   3.536   5.133  17.516 -1.5016 -0.6360 -0.2214
  158DOPC   C1118983   3.500   5.501  17.329 -0.0013  0.2204 -0.0256
  158DOPC  H11A18984   3.492   5.560  17.235 -1.4701 -0.1817 -0.1856
  158DOPC  H11B18985   3.452   5.562  17.409 -0.9433 -0.9311  0.3171
  158DOPC     P18986   3.743   5.444  17.255 -0.1520 -0.0524  0.1585
  158DOPC   O1318987   3.832   5.345  17.317  0.1937  0.0381  0.0640
  158DOPC   O1418988   3.806   5.559  17.199  0.0184 -0.1216  0.4095
  158DOPC   O1218989   3.632   5.484  17.370 -0.8909  0.4605  0.4368
  158DOPC   O1118990   3.665   5.371  17.140  0.4062 -0.0363  0.2705
  158DOPC    C118991   3.696   5.255  17.077 -0.4690  0.2634 -0.2179
  158DOPC    HA18992   3.640   5.174  17.128 -1.7545  0.8196 -0.6902
  158DOPC    HB18993   3.805   5.243  17.094 -0.6710 -0.9009  0.3584
  158DOPC    C218994   3.665   5.252  16.927  0.3331  0.1145  0.4877
  158DOPC    HS18995   3.704   5.159  16.881 -0.4806  1.0877 -2.4545
  158DOPC   O2118996   3.724   5.362  16.848 -0.3091  0.2017 -0.4945
  158DOPC   C2118997   3.862   5.355  16.839 -0.3086 -0.2497  0.3788
  158DOPC   O2218998   3.926   5.260  16.880  0.0731  0.0404  0.0406
  158DOPC   C2218999   3.924   5.484  16.785 -0.3223 -0.6376  0.4632
  158DOPC   H2R19000   3.959   5.539  16.875 -0.1844  0.1964 -0.0958
  158DOPC   H2S19001   3.844   5.542  16.735 -0.1766 -0.6604  0.1996
  158DOPC    C319002   3.506   5.252  16.904  0.2763  0.3599  0.3442
  158DOPC    HX19003   3.464   5.349  16.939 -1.2199 -0.0929 -0.1304
  158DOPC    HY19004   3.473   5.174  16.975 -1.6080  0.3007 -0.5296
  158DOPC   O3119005   3.470   5.224  16.769  0.2526 -0.0519  0.4895
  158DOPC   C3119006   3.445   5.327  16.696 -0.4946 -0.9160  0.1431
  158DOPC   O3219007   3.469   5.443  16.728  0.5648 -0.1988 -0.5110
  158DOPC   C3219008   3.388   5.274  16.561 -0.4905 -1.2425 -0.3799
  158DOPC   H2X19009   3.396   5.163  16.555  1.6125 -1.0768 -2.0641
  158DOPC   H2Y19010   3.282   5.300  16.540 -0.4182 -1.7917 -1.5230
  158DOPC   C2319011   4.040   5.453  16.685 -0.0061  0.3193 -0.1871
  158DOPC   H3R19012   4.128   5.395  16.721  1.5345  2.3698 -0.4729
  158DOPC   H3S19013   4.078   5.554  16.658 -0.9836  0.9574  0.7646
  158DOPC   C2419014   4.001   5.376  16.553  0.4345  0.1095  0.5411
  158DOPC   H4R19015   3.950   5.447  16.484  1.8407  1.9862  1.3335
  158DOPC   H4S19016   3.936   5.290  16.579  0.6870 -0.5878 -1.0040
  158DOPC   C2519017   4.126   5.326  16.475  0.8444 -0.0897 -0.1381
  158DOPC   H5R19018   4.164   5.251  16.548 -1.6439 -0.9499  0.3848
  158DOPC   H5S19019   4.192   5.413  16.454 -0.2824  0.8536  0.1039
  158DOPC   C2619020   4.097   5.269  16.335 -0.1869  1.3308 -0.1722
  158DOPC   H6R19021   4.187   5.218  16.293 -1.2057  0.0896 -0.9204
  158DOPC   H6S19022   4.076   5.349  16.260  0.4261 -1.7983 -3.9961
  158DOPC   C2719023   3.987   5.165  16.325 -0.0358  0.5892 -0.0832
  158DOPC   H7R19024   3.897   5.229  16.321  0.0048  0.6177 -0.6356
  158DOPC   H7S19025   3.980   5.112  16.423  0.7015  0.7608  0.0737
  158DOPC   C2819026   4.007   5.069  16.206 -0.2141 -0.0893  0.4525
  158DOPC   H8R19027   4.107   5.020  16.213 -0.7013 -0.9362  1.7839
  158DOPC   H8S19028   3.993   5.131  16.115 -0.7469 -2.1239 -0.9101
  158DOPC   C2919029   3.893   4.969  16.200  0.5348  0.3205 -0.5348
  158DOPC   H9R19030   3.860   4.924  16.295  1.1274 -1.3164 -1.0612
  158DOPC  C21019031   3.830   4.932  16.084  0.2402 -0.2280 -0.3979
  158DOPC  H10R19032   3.752   4.855  16.088  1.5397 -1.7538 -2.3867
  158DOPC  C21119033   3.860   4.979  15.947 -0.7972  0.1191  0.6504
  158DOPC  H11R19034   3.864   5.090  15.949  2.2728  0.0795  3.0007
  158DOPC  H11S19035   3.774   4.941  15.887  0.0059 -0.7763  0.0384
  158DOPC  C21219036   3.980   4.920  15.873 -0.4980 -0.5735  0.0372
  158DOPC  H12R19037   4.069   4.924  15.939  0.2302 -0.1404 -0.9409
  158DOPC  H12S19038   3.999   4.973  15.777  0.9737 -1.7182 -0.3405
  158DOPC  C21319039   3.964   4.772  15.847 -0.2436 -0.2826 -0.6192
  158DOPC  H13R19040   3.883   4.761  15.772 -0.5961  1.7537 -0.5850
  158DOPC  H13S19041   3.937   4.723  15.943 -2.5855 -0.7081 -1.4230
  158DOPC  C21419042   4.096   4.714  15.793 -0.3118  0.2174 -0.3534
  158DOPC  H14R19043   4.092   4.603  15.802 -1.9826  0.0648 -2.1359
  158DOPC  H14S19044   4.169   4.759  15.862  0.3528 -3.2761  1.4546
  158DOPC  C21519045   4.123   4.747  15.645 -0.4939  0.3962  0.2930
  158DOPC  H15R19046   4.223   4.701  15.626  0.1881  0.9435  2.2623
  158DOPC  H15S19047   4.138   4.856  15.629  0.8637  0.0755 -0.9002
  158DOPC  C21619048   4.010   4.695  15.558  0.0227 -0.6093 -0.8805
  158DOPC  H16R19049   3.938   4.779  15.571 -1.1845 -1.5399 -1.3350
  158DOPC  H16S19050   3.967   4.601  15.599  3.6609 -2.1264 -0.1512
  158DOPC  C21719051   4.041   4.671  15.411 -1.0910 -0.4276  0.6569
  158DOPC  H17R19052   3.948   4.638  15.361 -0.6113 -0.6274 -0.1133
  158DOPC  H17S19053   4.112   4.587  15.391  0.0076  0.2775  1.4465
  158DOPC  C21819054   4.100   4.794  15.340  0.1976 -0.5506 -0.3226
  158DOPC  H18R19055   4.121   4.775  15.232 -0.5552  0.8532 -0.7351
  158DOPC  H18S19056   4.195   4.815  15.395 -1.4759 -0.7498  2.8716
  158DOPC  H18T19057   4.037   4.884  15.352  0.4267 -0.2663 -1.1913
  158DOPC   C3319058   3.474   5.336  16.444  0.0174 -0.0529  0.5037
  158DOPC   H3X19059   3.564   5.276  16.422  0.0217  0.6228 -1.4507
  158DOPC   H3Y19060   3.498   5.444  16.458 -1.9254  0.9308 -2.7129
  158DOPC   C3419061   3.397   5.321  16.311 -0.5132  0.1339  0.7333
  158DOPC   H4X19062   3.299   5.367  16.335 -1.4472 -1.2556 -0.2856
  158DOPC   H4Y19063   3.379   5.213  16.294 -0.0452 -0.6255  4.2527
  158DOPC   C3519064   3.471   5.388  16.192  0.5786 -0.1439 -0.2469
  158DOPC   H5X19065   3.532   5.468  16.238 -2.0425  0.9459  1.5470
  158DOPC   H5Y19066   3.397   5.439  16.126 -0.8355 -2.6718 -0.7423
  158DOPC   C3619067   3.533   5.272  16.112  0.3883  0.4452  0.8733
  158DOPC   H6X19068   3.614   5.209  16.154 -0.1719 -1.2356 -0.4703
  158DOPC   H6Y19069   3.447   5.202  16.102 -1.4328  2.6999 -0.1535
  158DOPC   C3719070   3.559   5.320  15.971  0.3438 -0.0630  0.7729
  158DOPC   H7X19071   3.594   5.242  15.900 -0.6871  2.2389 -2.5235
  158DOPC   H7Y19072   3.464   5.360  15.929  0.2607 -0.2944  0.7404
  158DOPC   C3819073   3.661   5.437  15.968  0.5898 -0.3623  0.2961
  158DOPC   H8X19074   3.632   5.512  16.045 -0.9675 -0.6601  0.0332
  158DOPC   H8Y19075   3.662   5.497  15.874 -3.2333  0.4278  0.5680
  158DOPC   C3919076   3.800   5.390  16.013  0.6828 -0.0651  1.2319
  158DOPC   H9X19077   3.821   5.340  16.109 -1.9688 -0.2830  1.7623
  158DOPC  C31019078   3.915   5.397  15.942  0.7419  0.0230 -0.0929
  158DOPC  H10X19079   3.998   5.351  15.997 -1.4468 -1.5437  2.1191
  158DOPC  C31119080   3.931   5.445  15.801 -0.4278  0.1280  0.1641
  158DOPC  H11X19081   4.021   5.510  15.801  0.5115 -1.1212 -0.8280
  158DOPC  H11Y19082   3.838   5.499  15.773 -0.3781 -0.6825 -1.7398
  158DOPC  C31219083   3.941   5.330  15.703 -0.2059 -0.4477 -0.6912
  158DOPC  H12X19084   4.026   5.266  15.735  0.8480  0.1255 -2.2169
  158DOPC  H12Y19085   3.977   5.364  15.603  0.6867  1.4138  0.2091
  158DOPC  C31319086   3.812   5.246  15.683  0.4258  0.6572 -0.3093
  158DOPC  H13X19087   3.787   5.198  15.780 -1.9398  0.3828 -0.9986
  158DOPC  H13Y19088   3.726   5.309  15.651  1.0279  0.2784 -2.9036
  158DOPC  C31419089   3.817   5.123  15.583 -0.2424  0.7453  0.4699
  158DOPC  H14X19090   3.919   5.078  15.581 -0.8756 -1.2586  4.4292
  158DOPC  H14Y19091   3.757   5.049  15.640  0.6216 -0.5983 -0.3023
  158DOPC  C31519092   3.746   5.146  15.448  0.2276  0.1984  0.0607
  158DOPC  H15X19093   3.800   5.233  15.407  0.6500 -0.2313 -0.3142
  158DOPC  H15Y19094   3.642   5.167  15.481  1.3928  0.7926  3.8781
  158DOPC  C31619095   3.750   5.025  15.358  0.2285 -0.5271  0.4081
  158DOPC  H16X19096   3.848   5.006  15.311 -0.1092  0.7168 -0.8667
  158DOPC  H16Y19097   3.729   4.937  15.423 -2.2590 -0.7288 -0.5170
  158DOPC  C31719098   3.642   5.033  15.248 -0.0474  0.3158  0.2151
  158DOPC  H17X19099   3.660   4.946  15.181  1.1471  0.3792  0.4400
  158DOPC  H17Y19100   3.541   5.023  15.294  0.6876  1.5878  2.2022
  158DOPC  C31819101   3.662   5.161  15.164  0.0051  0.2161  0.0203
  158DOPC  H18X19102   3.607   5.253  15.192  0.5348  0.4990  0.1400
  158DOPC  H18Y19103   3.772   5.177  15.155  0.3156 -0.7691  1.6422
  158DOPC  H18Z19104   3.615   5.146  15.065  1.3657 -0.6271 -0.5349
  159DOPC     N19105   4.418   2.010  17.260 -0.0452 -0.4413 -0.3012
  159DOPC   C1219106   4.456   1.919  17.147 -0.1737  0.2178  0.1172
  159DOPC  H12A19107   4.371   1.876  17.097 -0.3183  0.7476 -0.0921
  159DOPC  H12B19108   4.497   1.832  17.197 -0.8717  0.6244  1.4593
  159DOPC   C1319109   4.542   2.045  17.342 -0.4152  0.5777  0.1936
  159DOPC  H13A19110   4.617   2.092  17.279 -0.3074  0.0759 -0.0620
  159DOPC  H13B19111   4.517   2.109  17.426 -0.5942 -1.7411  2.0203
  159DOPC  H13C19112   4.591   1.956  17.381 -2.4510 -0.8865 -0.4184
  159DOPC   C1419113   4.314   1.962  17.348 -0.2000 -0.4707 -0.4474
  159DOPC  H14A19114   4.342   1.985  17.450 -2.1169 -0.5913  0.1544
  159DOPC  H14B19115   4.219   2.007  17.324 -0.4731 -0.8317 -0.0625
  159DOPC  H14C19116   4.301   1.855  17.333 -0.4464 -0.4847 -0.1618
  159DOPC   C1519117   4.371   2.135  17.196 -0.7392  0.0650  0.0753
  159DOPC  H15A19118   4.452   2.173  17.134 -0.5284 -2.6331 -1.4282
  159DOPC  H15B19119   4.323   2.209  17.259 -0.0028 -0.1845  0.9509
  159DOPC  H15C19120   4.294   2.118  17.122 -0.7694  0.4124  0.0195
  159DOPC   C1119121   4.562   1.971  17.039  0.1868  0.7587 -0.1839
  159DOPC  H11A19122   4.560   1.892  16.960  1.1483  0.9828 -0.4540
  159DOPC  H11B19123   4.508   2.054  16.989 -0.2540  0.8211  0.3909
  159DOPC     P19124   4.787   1.888  17.125 -0.1584 -0.6419 -0.3281
  159DOPC   O1319125   4.727   1.770  17.195  0.1122 -0.2706  0.2210
  159DOPC   O1419126   4.899   1.958  17.201 -0.1776  0.2929  0.5823
  159DOPC   O1219127   4.683   2.004  17.103 -0.4547  0.4499  0.4526
  159DOPC   O1119128   4.840   1.851  16.985 -0.6853 -0.3283  0.0709
  159DOPC    C119129   4.878   1.954  16.891 -0.0078  1.3173  0.0698
  159DOPC    HA19130   4.981   1.990  16.912  0.5867 -1.5640  2.8699
  159DOPC    HB19131   4.807   2.038  16.904 -1.3778  0.1712  0.2313
  159DOPC    C219132   4.893   1.896  16.743  0.1795 -0.3122 -0.9330
  159DOPC    HS19133   4.952   1.802  16.748  0.4412 -0.1028  0.3499
  159DOPC   O2119134   4.946   1.994  16.660  0.0196 -0.1684  0.6332
  159DOPC   C2119135   5.077   1.996  16.663  0.1640 -0.2223  0.0416
  159DOPC   O2219136   5.150   1.910  16.710  0.1630  0.2523  0.2681
  159DOPC   C2219137   5.129   2.133  16.608  0.4524  1.1087 -0.1982
  159DOPC   H2R19138   5.099   2.208  16.685 -0.6545  1.3093 -0.8031
  159DOPC   H2S19139   5.080   2.143  16.509 -2.7320  2.0133  1.3170
  159DOPC    C319140   4.762   1.836  16.685 -0.0192 -0.0389 -0.5024
  159DOPC    HX19141   4.685   1.915  16.696  0.8086  1.0136 -1.9275
  159DOPC    HY19142   4.734   1.750  16.750  1.9003  0.6833  1.3880
  159DOPC   O3119143   4.782   1.806  16.548  0.3024  0.3740  0.1161
  159DOPC   C3119144   4.671   1.779  16.489  0.6474  0.5699  0.7392
  159DOPC   O3219145   4.557   1.784  16.534 -0.1726 -0.0950  0.0170
  159DOPC   C3219146   4.692   1.747  16.345  0.4625 -0.1421 -0.6404
  159DOPC   H2X19147   4.708   1.638  16.331 -3.8903 -0.8920 -1.1485
  159DOPC   H2Y19148   4.600   1.779  16.291 -0.4039  0.1032  0.9147
  159DOPC   C2319149   5.286   2.142  16.604 -0.5084  0.1617 -0.0564
  159DOPC   H3R19150   5.336   2.070  16.673  1.1094  0.4301 -0.8901
  159DOPC   H3S19151   5.311   2.240  16.650 -0.5250 -0.1103  0.5393
  159DOPC   C2419152   5.346   2.126  16.462 -0.5492 -0.4041 -0.2739
  159DOPC   H4R19153   5.288   2.190  16.392  0.3230 -0.2830 -0.8945
  159DOPC   H4S19154   5.335   2.022  16.424 -2.0374 -0.8314  1.1738
  159DOPC   C2519155   5.495   2.168  16.458  0.3254 -0.4738 -0.0640
  159DOPC   H5R19156   5.544   2.125  16.548 -0.2272 -2.5358 -0.6888
  159DOPC   H5S19157   5.509   2.278  16.464  2.0392 -0.6424 -0.5779
  159DOPC   C2619158   5.570   2.132  16.328  0.1022 -0.6391  0.3032
  159DOPC   H6R19159   5.503   2.126  16.239 -0.5550  2.2372  0.5030
  159DOPC   H6S19160   5.628   2.040  16.353  0.6895 -0.0074  1.3189
  159DOPC   C2719161   5.670   2.242  16.284 -0.5319  0.4586 -0.1031
  159DOPC   H7R19162   5.742   2.196  16.213  0.6731 -0.7077  1.7871
  159DOPC   H7S19163   5.724   2.275  16.375  1.0619 -0.1850 -0.7734
  159DOPC   C2819164   5.610   2.374  16.227 -0.0639  1.2060  0.5084
  159DOPC   H8R19165   5.696   2.444  16.217  0.2621  0.6046 -1.1879
  159DOPC   H8S19166   5.549   2.420  16.307  0.5523 -0.2380  1.8631
  159DOPC   C2919167   5.544   2.358  16.091 -0.4734 -0.3923  0.3097
  159DOPC   H9R19168   5.438   2.332  16.106 -0.4003 -1.1535 -0.4363
  159DOPC  C21019169   5.597   2.400  15.972  0.0249 -0.9582  0.5268
  159DOPC  H10R19170   5.535   2.401  15.881 -0.7850  2.0988  1.0081
  159DOPC  C21119171   5.735   2.455  15.940 -0.0407  0.2923 -0.0927
  159DOPC  H11R19172   5.787   2.464  16.037 -1.7205 -3.8440  1.4059
  159DOPC  H11S19173   5.737   2.550  15.882  0.1845 -0.8757 -2.1224
  159DOPC  C21219174   5.830   2.362  15.864 -0.2703 -0.0083 -0.4600
  159DOPC  H12R19175   5.826   2.266  15.920  0.2535 -0.0367 -0.4606
  159DOPC  H12S19176   5.927   2.416  15.857 -0.6096  0.6022 -0.4719
  159DOPC  C21319177   5.791   2.347  15.720 -0.1667 -0.5279 -0.1389
  159DOPC  H13R19178   5.798   2.441  15.662 -0.9350 -0.9969 -1.0237
  159DOPC  H13S19179   5.687   2.307  15.713 -0.3202  0.1270 -2.2728
  159DOPC  C21419180   5.889   2.238  15.657  0.0507  0.0275  0.3211
  159DOPC  H14R19181   5.842   2.205  15.562 -0.3209 -0.2761  0.6052
  159DOPC  H14S19182   5.909   2.156  15.728  2.2386  0.4384  0.2445
  159DOPC  C21519183   6.015   2.301  15.602 -0.1472  0.0815  0.3184
  159DOPC  H15R19184   6.072   2.344  15.687  0.2481 -1.6870  0.9969
  159DOPC  H15S19185   5.985   2.378  15.528 -0.8217 -1.4944 -1.1037
  159DOPC  C21619186   6.120   2.207  15.537  0.2491  0.4129 -0.3460
  159DOPC  H16R19187   6.068   2.164  15.449 -0.7252  1.9923 -0.5970
  159DOPC  H16S19188   6.128   2.121  15.606  0.0522  0.5388 -0.1652
  159DOPC  C21719189   6.246   2.267  15.490 -0.8071 -0.6995 -0.2805
  159DOPC  H17R19190   6.305   2.307  15.576 -0.2351 -0.4552 -0.7819
  159DOPC  H17S19191   6.218   2.347  15.418 -1.3834 -1.6607 -1.1413
  159DOPC  C21819192   6.332   2.156  15.425 -0.1792  0.9599  0.6134
  159DOPC  H18R19193   6.342   2.063  15.485  2.6052  0.2078 -0.8375
  159DOPC  H18S19194   6.425   2.187  15.373 -0.1984  2.2505  1.3038
  159DOPC  H18T19195   6.284   2.109  15.337  0.4496  1.4599 -0.0121
  159DOPC   C3319196   4.818   1.815  16.283  0.7436 -0.4184  0.0609
  159DOPC   H3X19197   4.823   1.782  16.177 -0.5725  2.3000 -0.9184
  159DOPC   H3Y19198   4.907   1.785  16.343  1.7483  2.1518 -0.0252
  159DOPC   C3419199   4.808   1.965  16.285 -0.6428  0.1969  0.3060
  159DOPC   H4X19200   4.787   2.018  16.381  0.9166  2.4245 -0.4933
  159DOPC   H4Y19201   4.727   1.984  16.212 -1.4849 -2.9636  0.2758
  159DOPC   C3519202   4.928   2.020  16.211  0.4540  0.0379 -0.1083
  159DOPC   H5X19203   4.923   1.974  16.110 -1.4014  0.4401 -0.2273
  159DOPC   H5Y19204   5.031   1.989  16.241  0.9133  0.8153 -0.8302
  159DOPC   C3619205   4.928   2.172  16.181 -0.4466  0.7503 -0.2659
  159DOPC   H6X19206   4.850   2.204  16.108  0.6705  0.1305 -1.7705
  159DOPC   H6Y19207   4.920   2.237  16.271 -0.9608 -0.7254  0.8079
  159DOPC   C3719208   5.064   2.210  16.120  0.7146  0.0382 -0.2796
  159DOPC   H7X19209   5.134   2.177  16.199 -1.3380 -3.4851  0.2510
  159DOPC   H7Y19210   5.084   2.143  16.034  0.0032  1.3889 -1.5509
  159DOPC   C3819211   5.057   2.364  16.083 -0.5407  0.5882  0.6298
  159DOPC   H8X19212   5.021   2.423  16.169 -2.6112  1.5877 -0.8392
  159DOPC   H8Y19213   4.978   2.391  16.009  0.4698 -0.0990 -0.7554
  159DOPC   C3919214   5.184   2.427  16.031  0.7079 -0.4463 -0.3816
  159DOPC   H9X19215   5.227   2.504  16.097  0.4158 -0.5258 -0.0925
  159DOPC  C31019216   5.222   2.419  15.907 -0.4128  0.4795  0.9443
  159DOPC  H10X19217   5.318   2.460  15.874  0.8385 -3.6427 -1.2379
  159DOPC  C31119218   5.172   2.328  15.794  0.5686 -0.5434 -0.3774
  159DOPC  H11X19219   5.069   2.299  15.825  1.0103 -0.9446  0.7883
  159DOPC  H11Y19220   5.226   2.231  15.802 -1.6784 -1.8953 -0.6390
  159DOPC  C31219221   5.170   2.406  15.662 -0.0792  0.2336  0.3113
  159DOPC  H12X19222   5.118   2.504  15.658  0.6130  0.5622 -2.0621
  159DOPC  H12Y19223   5.122   2.340  15.587  1.5933  0.3261 -0.8954
  159DOPC  C31319224   5.309   2.440  15.604 -0.2875 -0.6781  0.2697
  159DOPC  H13X19225   5.289   2.486  15.505  0.9287 -0.2458  0.2076
  159DOPC  H13Y19226   5.368   2.510  15.667 -2.0571  2.5855 -1.4075
  159DOPC  C31419227   5.419   2.331  15.566 -0.3069  0.2840  0.0463
  159DOPC  H14X19228   5.509   2.382  15.528  0.6779 -0.8592  0.7806
  159DOPC  H14Y19229   5.441   2.282  15.664  1.6985 -2.3492 -1.5913
  159DOPC  C31519230   5.363   2.229  15.466  0.6195 -0.4159 -0.4114
  159DOPC  H15X19231   5.347   2.279  15.369  1.3442  1.9842  0.6181
  159DOPC  H15Y19232   5.263   2.195  15.502  0.2376 -0.4993 -1.5230
  159DOPC  C31619233   5.447   2.106  15.445  0.1167 -1.1151 -0.5656
  159DOPC  H16X19234   5.466   2.058  15.543 -2.0441  0.7853  0.8706
  159DOPC  H16Y19235   5.396   2.034  15.377  0.3352 -2.6498  0.8299
  159DOPC  C31719236   5.586   2.140  15.390 -0.8319  0.3963 -0.2480
  159DOPC  H17X19237   5.574   2.222  15.315 -0.4259  0.4776 -0.2261
  159DOPC  H17Y19238   5.655   2.181  15.467  0.4966 -0.1606 -1.1050
  159DOPC  C31819239   5.665   2.024  15.321  0.3227 -0.7496 -0.1765
  159DOPC  H18X19240   5.762   2.057  15.278  0.0572 -1.0700 -1.0446
  159DOPC  H18Y19241   5.690   1.948  15.398  2.2227 -1.1172 -1.1052
  159DOPC  H18Z19242   5.598   1.980  15.243 -0.7154  1.1411 -0.3955
  160DOPC     N19243   0.866   5.682  17.514 -0.6199  1.0723  0.6220
  160DOPC   C1219244   1.007   5.732  17.467 -0.0574  0.5281 -0.0186
  160DOPC  H12A19245   1.077   5.655  17.494 -0.1969  0.0195 -1.0645
  160DOPC  H12B19246   1.035   5.821  17.523 -0.9068  1.2730 -0.7312
  160DOPC   C1319247   0.809   5.580  17.421  0.0725 -0.5050 -0.4478
  160DOPC  H13A19248   0.728   5.520  17.461  2.0336 -3.3202 -0.4208
  160DOPC  H13B19249   0.786   5.636  17.331 -1.2211  1.1007  0.8085
  160DOPC  H13C19250   0.880   5.502  17.398  0.6111  0.2879 -1.5640
  160DOPC   C1419251   0.763   5.786  17.527 -0.1569 -1.1191 -0.3155
  160DOPC  H14A19252   0.755   5.839  17.433 -0.8180  1.4308  1.1007
  160DOPC  H14B19253   0.666   5.742  17.546 -0.3289 -0.4740  0.3123
  160DOPC  H14C19254   0.792   5.872  17.585  2.0138  0.0534 -2.8953
  160DOPC   C1519255   0.887   5.619  17.649 -0.0369 -0.1997  0.2622
  160DOPC  H15A19256   0.946   5.681  17.715  0.4357  0.2047 -0.5195
  160DOPC  H15B19257   0.943   5.528  17.637  1.3456  0.8310 -1.6178
  160DOPC  H15C19258   0.786   5.593  17.677 -1.9332  3.0880 -2.6231
  160DOPC   C1119259   1.023   5.777  17.314 -0.2677  1.1677 -0.9797
  160DOPC  H11A19260   1.127   5.812  17.298  0.4895 -1.8347 -3.6090
  160DOPC  H11B19261   1.000   5.683  17.260  1.1747  0.8147 -1.0199
  160DOPC     P19262   0.978   6.022  17.244  0.8363 -0.0931  0.3404
  160DOPC   O1319263   1.101   6.045  17.321  0.2472 -0.1546 -0.3257
  160DOPC   O1419264   0.856   6.101  17.269  0.1526 -0.6971 -0.8711
  160DOPC   O1219265   0.932   5.872  17.278  0.0090 -0.5081 -0.5461
  160DOPC   O1119266   1.022   6.019  17.092 -0.4126 -0.4942  0.0014
  160DOPC    C119267   0.938   5.974  16.991  0.3390 -0.0121  0.5291
  160DOPC    HA19268   0.833   6.009  17.002 -0.2283 -0.3605 -2.6613
  160DOPC    HB19269   0.953   5.864  16.988  1.1314  0.1084 -0.8719
  160DOPC    C219270   0.968   6.029  16.847 -0.1511 -0.2554 -0.1737
  160DOPC    HS19271   0.882   5.987  16.791 -0.0944 -1.2220  0.4385
  160DOPC   O2119272   1.102   5.975  16.804  0.4988 -0.3712  0.1404
  160DOPC   C2119273   1.091   5.917  16.680  0.4675 -0.3065 -0.1411
  160DOPC   O2219274   0.995   5.930  16.606  0.6826 -0.5184  0.3247
  160DOPC   C2219275   1.206   5.820  16.657 -0.6728  0.1950 -0.3644
  160DOPC   H2R19276   1.173   5.724  16.700 -0.7718  1.2353  2.0682
  160DOPC   H2S19277   1.298   5.864  16.702 -0.1043 -0.1989 -1.1308
  160DOPC    C319278   0.955   6.182  16.847  0.1286 -0.7373  0.1557
  160DOPC    HX19279   1.036   6.226  16.910  0.6427  2.6991 -2.5932
  160DOPC    HY19280   0.856   6.213  16.886 -0.7525 -2.9231 -0.1760
  160DOPC   O3119281   0.987   6.242  16.714 -0.1738  0.3326  0.6968
  160DOPC   C3119282   0.882   6.256  16.637  0.5085 -0.1603  0.0136
  160DOPC   O3219283   0.762   6.237  16.661  0.1038 -0.0225 -0.8738
  160DOPC   C3219284   0.937   6.295  16.501  0.4360  0.9328  0.0480
  160DOPC   H2X19285   0.991   6.391  16.490 -1.0793  1.7633 -0.5090
  160DOPC   H2Y19286   1.007   6.210  16.488  2.0216  1.8444  2.1065
  160DOPC   C2319287   1.232   5.806  16.509 -0.1732  0.3467 -0.0327
  160DOPC   H3R19288   1.139   5.776  16.456  1.9044 -1.3228 -2.9735
  160DOPC   H3S19289   1.311   5.730  16.489 -0.4007 -0.2081  1.0815
  160DOPC   C2419290   1.263   5.939  16.436 -0.2174  0.2437 -0.1107
  160DOPC   H4R19291   1.363   5.975  16.469 -0.6770  0.8829  0.6189
  160DOPC   H4S19292   1.189   6.014  16.470 -0.1269 -0.7477  2.4916
  160DOPC   C2519293   1.236   5.937  16.288 -0.8143 -0.4607 -0.0807
  160DOPC   H5R19294   1.127   5.930  16.268 -0.9413  2.5134 -0.9451
  160DOPC   H5S19295   1.292   5.849  16.250 -0.4731  0.1397 -1.0125
  160DOPC   C2619296   1.300   6.057  16.211 -0.0372  1.0005  0.1737
  160DOPC   H6R19297   1.407   6.066  16.238 -1.0299  1.3011  4.7861
  160DOPC   H6S19298   1.243   6.150  16.231  0.6441  1.8502 -1.5737
  160DOPC   C2719299   1.287   6.028  16.059 -0.0049  0.8219 -0.0430
  160DOPC   H7R19300   1.183   6.005  16.027  0.4972 -1.5885 -0.1418
  160DOPC   H7S19301   1.343   5.937  16.031 -2.5264 -0.8330 -0.0530
  160DOPC   C2819302   1.343   6.140  15.974 -0.4391 -0.3560 -0.2599
  160DOPC   H8R19303   1.387   6.096  15.883  0.6197 -4.4994  1.9820
  160DOPC   H8S19304   1.433   6.177  16.028 -0.7482 -0.7659  0.5685
  160DOPC   C2919305   1.239   6.252  15.945 -0.0995 -0.3967  1.1706
  160DOPC   H9R19306   1.168   6.271  16.026 -0.7196 -0.9862  0.7721
  160DOPC  C21019307   1.223   6.303  15.822 -0.0265 -0.1219  1.2926
  160DOPC  H10R19308   1.148   6.384  15.815 -0.1365 -0.2582  0.8647
  160DOPC  C21119309   1.310   6.267  15.704 -0.3212 -0.8299  0.9937
  160DOPC  H11R19310   1.417   6.269  15.737 -0.0293  1.2479  0.0739
  160DOPC  H11S19311   1.310   6.347  15.627  0.0362 -1.1461  0.6573
  160DOPC  C21219312   1.273   6.134  15.636  1.0630 -0.9460 -0.9011
  160DOPC  H12R19313   1.164   6.124  15.621  0.7419 -1.9489  1.6704
  160DOPC  H12S19314   1.281   6.051  15.709  1.0133  1.3282  1.8635
  160DOPC  C21319315   1.362   6.099  15.518  0.1240  0.4332  0.2323
  160DOPC  H13R19316   1.332   6.004  15.469  0.0497  1.4232 -1.7057
  160DOPC  H13S19317   1.459   6.077  15.567 -0.5970  1.0856  2.0325
  160DOPC  C21419318   1.381   6.206  15.404 -0.1402 -0.1688  0.0401
  160DOPC  H14R19319   1.444   6.282  15.455  1.6941 -1.7717  0.2983
  160DOPC  H14S19320   1.287   6.256  15.374 -0.2944 -1.5782 -2.0769
  160DOPC  C21519321   1.459   6.147  15.282 -0.5253 -0.3702 -0.1033
  160DOPC  H15R19322   1.410   6.063  15.229  0.4102 -0.4343 -0.9084
  160DOPC  H15S19323   1.550   6.110  15.333 -0.2770  0.4971  0.1006
  160DOPC  C21619324   1.504   6.256  15.178  0.6988  0.8415 -0.3348
  160DOPC  H16R19325   1.584   6.210  15.116 -0.9808 -0.7261 -1.4424
  160DOPC  H16S19326   1.550   6.350  15.217 -1.1048  1.0623  1.3991
  160DOPC  C21719327   1.395   6.295  15.079  0.5907 -0.4683 -0.1176
  160DOPC  H17R19328   1.303   6.331  15.131 -0.0106 -2.2144  0.0900
  160DOPC  H17S19329   1.361   6.200  15.033 -1.5482  0.0664  0.2503
  160DOPC  C21819330   1.439   6.389  14.962 -0.5232  0.7152 -0.1572
  160DOPC  H18R19331   1.510   6.326  14.905  2.0510  2.1956  1.2311
  160DOPC  H18S19332   1.508   6.471  14.994  0.3761 -0.1778  0.2452
  160DOPC  H18T19333   1.350   6.419  14.903 -1.1595 -0.8524 -0.0422
  160DOPC   C3319334   0.836   6.287  16.381 -0.4595 -0.5055  0.3195
  160DOPC   H3X19335   0.770   6.376  16.390  1.1175  0.5865  1.8594
  160DOPC   H3Y19336   0.772   6.197  16.393 -1.3776  0.0466 -0.3168
  160DOPC   C3419337   0.904   6.281  16.245 -0.7514 -0.0998 -0.5241
  160DOPC   H4X19338   0.971   6.193  16.238 -0.8325 -0.1319 -0.9390
  160DOPC   H4Y19339   0.970   6.362  16.208  0.6011 -2.2975 -3.3068
  160DOPC   C3519340   0.801   6.248  16.132 -0.0982 -0.6423  0.7534
  160DOPC   H5X19341   0.709   6.303  16.161 -0.2525 -1.8434  2.6656
  160DOPC   H5Y19342   0.771   6.142  16.141 -1.1717 -0.5888 -1.3929
  160DOPC   C3619343   0.850   6.264  15.982  0.3056  0.4179  0.3777
  160DOPC   H6X19344   0.863   6.369  15.949 -1.6821 -0.0079 -2.0488
  160DOPC   H6Y19345   0.946   6.207  15.982 -0.9793 -1.9001 -0.8958
  160DOPC   C3719346   0.757   6.213  15.879  0.3124 -0.1015  0.5758
  160DOPC   H7X19347   0.766   6.106  15.851 -2.5518 -0.4770  0.8587
  160DOPC   H7Y19348   0.654   6.216  15.920 -0.4251  1.1793 -1.2547
  160DOPC   C3819349   0.758   6.293  15.749  0.3474 -0.3276 -0.4365
  160DOPC   H8X19350   0.778   6.400  15.768  1.1595 -0.4944 -0.3100
  160DOPC   H8Y19351   0.655   6.286  15.706 -0.1132 -1.5355  0.7907
  160DOPC   C3919352   0.870   6.252  15.653 -0.1139 -0.1584 -0.1943
  160DOPC   H9X19353   0.973   6.268  15.688  0.7363 -2.1257 -1.5696
  160DOPC  C31019354   0.865   6.192  15.531  0.8012  1.0377 -0.0953
  160DOPC  H10X19355   0.951   6.187  15.462 -0.7463 -0.7730 -2.0503
  160DOPC  C31119356   0.728   6.156  15.471  0.3654 -0.3549 -0.4612
  160DOPC  H11X19357   0.668   6.108  15.551 -1.1862 -2.2394 -2.6105
  160DOPC  H11Y19358   0.732   6.074  15.395 -1.2626 -2.4902  1.6052
  160DOPC  C31219359   0.645   6.265  15.396  0.7649 -0.0796  0.1028
  160DOPC  H12X19360   0.704   6.315  15.317 -1.5218 -1.8185 -2.9119
  160DOPC  H12Y19361   0.612   6.335  15.476  0.3580 -0.3998  0.2202
  160DOPC  C31319362   0.524   6.197  15.321  0.2103  0.7808  0.6416
  160DOPC  H13X19363   0.558   6.112  15.258 -1.9528 -0.9350  1.6487
  160DOPC  H13Y19364   0.454   6.148  15.392 -0.7702 -0.2620 -0.9685
  160DOPC  C31419365   0.443   6.309  15.250  0.0709  0.0632  0.4741
  160DOPC  H14X19366   0.343   6.266  15.228  0.1812  0.3808 -0.7284
  160DOPC  H14Y19367   0.428   6.391  15.323  0.5568  0.5387  0.0499
  160DOPC  C31519368   0.509   6.368  15.124  1.1073  0.3122  0.4990
  160DOPC  H15X19369   0.610   6.411  15.146  1.5695 -0.9371  0.8890
  160DOPC  H15Y19370   0.441   6.451  15.096  1.3479  1.2604  2.5340
  160DOPC  C31619371   0.515   6.277  14.998 -0.2687  0.4380  0.2460
  160DOPC  H16X19372   0.578   6.188  15.020 -1.9111 -0.7372  0.4268
  160DOPC  H16Y19373   0.411   6.244  14.977 -0.6519 -0.5305  3.0954
  160DOPC  C31719374   0.584   6.327  14.873 -0.2394 -0.2863  0.2649
  160DOPC  H17X19375   0.518   6.393  14.812 -0.2081  1.0396  1.6019
  160DOPC  H17Y19376   0.665   6.392  14.911 -0.5956 -0.5503  1.5051
  160DOPC  C31819377   0.637   6.210  14.784 -0.4092 -0.2180  0.4301
  160DOPC  H18X19378   0.564   6.126  14.782  1.6898 -2.1158 -0.4685
  160DOPC  H18Y19379   0.673   6.240  14.683  1.3428  1.9429  1.6049
  160DOPC  H18Z19380   0.722   6.159  14.834  0.3181 -0.5038 -1.0282
  161DOPC     N19381   4.511   5.968  17.399  0.5598 -0.0156 -0.1649
  161DOPC   C1219382   4.603   6.079  17.338  0.2335 -0.4486  0.0086
  161DOPC  H12A19383   4.663   6.030  17.263  0.5708  0.8299 -0.5807
  161DOPC  H12B19384   4.676   6.112  17.411 -0.6071 -3.4574  2.4314
  161DOPC   C1319385   4.586   5.852  17.453  0.2012 -0.6192 -0.0903
  161DOPC  H13A19386   4.522   5.775  17.492  1.5830 -0.7810  1.9954
  161DOPC  H13B19387   4.642   5.810  17.370 -0.6109  0.0917 -1.0237
  161DOPC  H13C19388   4.660   5.872  17.528 -0.3177 -0.0821  0.2850
  161DOPC   C1419389   4.419   5.914  17.296 -1.0147 -0.2833 -0.4247
  161DOPC  H14A19390   4.347   5.853  17.349  0.9259 -1.6035  0.8759
  161DOPC  H14B19391   4.371   5.977  17.223  0.6670  1.4456 -0.1150
  161DOPC  H14C19392   4.482   5.852  17.233  1.6215  0.1011  1.6360
  161DOPC   C1519393   4.423   6.018  17.518 -0.2315  0.1524  0.2620
  161DOPC  H15A19394   4.355   5.944  17.557 -0.5527  0.0516 -0.4744
  161DOPC  H15B19395   4.366   6.104  17.490 -0.8074 -0.7542 -1.4566
  161DOPC  H15C19396   4.484   6.052  17.601  2.8430 -1.7159 -1.0443
  161DOPC   C1119397   4.525   6.191  17.273 -0.0465  0.7039  0.3282
  161DOPC  H11A19398   4.601   6.260  17.230 -0.5478  0.7397 -0.5231
  161DOPC  H11B19399   4.476   6.144  17.185  0.0432  2.2697 -0.5970
  161DOPC     P19400   4.464   6.396  17.425  0.2644 -0.0597  0.0942
  161DOPC   O1319401   4.581   6.370  17.516 -0.2897  0.1289 -0.1468
  161DOPC   O1419402   4.336   6.448  17.486 -0.3746  0.5019 -0.5263
  161DOPC   O1219403   4.428   6.263  17.352 -0.0786  0.4157  0.0881
  161DOPC   O1119404   4.508   6.491  17.309 -0.6379  0.0440  0.4238
  161DOPC    C119405   4.413   6.562  17.227 -0.3551  0.5777 -0.7253
  161DOPC    HA19406   4.402   6.667  17.262  1.3556  0.9124 -1.1033
  161DOPC    HB19407   4.316   6.510  17.238 -0.4351  0.8534 -0.0405
  161DOPC    C219408   4.457   6.581  17.080 -0.5911 -0.0409  0.3738
  161DOPC    HS19409   4.387   6.663  17.052 -0.8477  0.2384  1.7346
  161DOPC   O2119410   4.446   6.463  16.994  0.2778 -0.2806  0.5784
  161DOPC   C2119411   4.326   6.417  16.963 -0.2727  0.3468  0.6998
  161DOPC   O2219412   4.222   6.454  17.013 -0.0642  0.2633 -0.3246
  161DOPC   C2219413   4.348   6.295  16.860 -0.0198 -0.0265 -0.0265
  161DOPC   H2R19414   4.301   6.216  16.923  0.3075  1.5869  2.3633
  161DOPC   H2S19415   4.458   6.282  16.844 -0.0892  1.2318 -1.8585
  161DOPC    C319416   4.597   6.646  17.056 -0.2865 -0.5003 -0.2214
  161DOPC    HX19417   4.667   6.570  17.098 -0.8920 -0.3632  1.0913
  161DOPC    HY19418   4.624   6.740  17.109 -0.2643 -0.0295 -1.0630
  161DOPC   O3119419   4.608   6.657  16.914  0.0324 -0.1974  0.6854
  161DOPC   C3119420   4.727   6.631  16.859 -0.0555 -0.0845 -0.0595
  161DOPC   O3219421   4.827   6.603  16.922  0.6281  0.3257 -0.1918
  161DOPC   C3219422   4.730   6.659  16.710 -0.1227  0.1691 -0.4532
  161DOPC   H2X19423   4.803   6.740  16.691  0.1554  0.5102  1.7900
  161DOPC   H2Y19424   4.766   6.565  16.662 -1.9494 -0.4180 -0.7707
  161DOPC   C2319425   4.272   6.320  16.720  0.4221  0.3138  0.2401
  161DOPC   H3R19426   4.168   6.347  16.748 -0.6662 -2.2774 -0.9529
  161DOPC   H3S19427   4.260   6.222  16.669  0.3226  0.6872 -0.4531
  161DOPC   C2419428   4.344   6.409  16.627 -0.1350 -0.3105 -0.0286
  161DOPC   H4R19429   4.454   6.391  16.629  0.3762  2.3021 -0.0740
  161DOPC   H4S19430   4.322   6.517  16.647 -0.0559 -0.0025 -1.5193
  161DOPC   C2519431   4.306   6.384  16.480 -0.3622  0.8717  0.1906
  161DOPC   H5R19432   4.203   6.423  16.468 -0.8850 -0.4474  0.2737
  161DOPC   H5S19433   4.319   6.278  16.451 -1.0160  0.7228  0.4444
  161DOPC   C2619434   4.388   6.465  16.384 -0.3102 -0.7580  0.5038
  161DOPC   H6R19435   4.491   6.424  16.387 -0.7439 -1.8789  3.5855
  161DOPC   H6S19436   4.376   6.569  16.420  0.3558 -0.6380  0.3854
  161DOPC   C2719437   4.331   6.466  16.236  1.4167  0.1226  0.4773
  161DOPC   H7R19438   4.226   6.502  16.229  0.6541 -2.0955 -0.3384
  161DOPC   H7S19439   4.336   6.357  16.218 -0.3524  0.5003 -3.3858
  161DOPC   C2819440   4.418   6.537  16.132  0.0463 -0.3224 -0.4211
  161DOPC   H8R19441   4.424   6.644  16.161 -0.6721  0.0679 -1.6363
  161DOPC   H8S19442   4.358   6.525  16.039 -1.0325  0.9860  0.0700
  161DOPC   C2919443   4.557   6.496  16.115 -0.2951  0.5681  0.0261
  161DOPC   H9R19444   4.594   6.467  16.214 -2.0841 -0.2782  0.4835
  161DOPC  C21019445   4.641   6.497  16.007 -0.4306 -0.1946  0.7140
  161DOPC  H10R19446   4.737   6.445  16.021 -0.7147 -1.0086 -0.2205
  161DOPC  C21119447   4.624   6.553  15.863  0.6853 -0.3632 -0.7110
  161DOPC  H11R19448   4.654   6.659  15.866  1.7239 -0.6611  0.1811
  161DOPC  H11S19449   4.518   6.552  15.828  0.4000  0.5022  0.0939
  161DOPC  C21219450   4.681   6.467  15.750 -0.2533 -0.1193 -0.4697
  161DOPC  H12R19451   4.790   6.449  15.755 -0.3453 -0.3783  1.1825
  161DOPC  H12S19452   4.676   6.515  15.650 -0.5691  1.1879  0.1520
  161DOPC  C21319453   4.606   6.338  15.731 -0.7478 -0.1315  0.0613
  161DOPC  H13R19454   4.500   6.370  15.721 -0.9697 -1.0721 -0.7935
  161DOPC  H13S19455   4.589   6.272  15.819  1.1003 -3.0353 -1.5978
  161DOPC  C21419456   4.656   6.245  15.620  0.0012 -0.4117 -0.3152
  161DOPC  H14R19457   4.757   6.215  15.655 -0.1901 -3.6375 -2.1275
  161DOPC  H14S19458   4.671   6.297  15.523  0.0976 -0.4300 -0.3102
  161DOPC  C21519459   4.565   6.120  15.612 -0.2635  0.4457  0.0035
  161DOPC  H15R19460   4.456   6.136  15.597 -0.8595 -1.7492  1.4435
  161DOPC  H15S19461   4.581   6.056  15.701  2.1315 -0.8907 -1.2906
  161DOPC  C21619462   4.612   6.027  15.496  0.2981 -0.6117  0.5206
  161DOPC  H16R19463   4.587   5.924  15.528  1.5661 -1.0817  0.0530
  161DOPC  H16S19464   4.723   6.017  15.496  0.3582 -0.0505 -0.1819
  161DOPC  C21719465   4.557   6.051  15.357 -0.6793  0.0810  0.5154
  161DOPC  H17R19466   4.645   6.037  15.291  0.9728 -2.5935  3.0694
  161DOPC  H17S19467   4.520   6.156  15.354 -0.2873  0.2475  1.4604
  161DOPC  C21819468   4.443   5.958  15.314 -0.4564 -0.5247 -0.1797
  161DOPC  H18R19469   4.361   5.964  15.389  0.6129  2.1049  0.9273
  161DOPC  H18S19470   4.480   5.854  15.310 -0.8650 -0.6392 -2.1429
  161DOPC  H18T19471   4.398   5.978  15.214 -1.4241 -1.8824 -0.0395
  161DOPC   C3319472   4.590   6.694  16.649  0.3025  0.1930  0.3438
  161DOPC   H3X19473   4.513   6.736  16.717  0.2815 -0.1784  0.5536
  161DOPC   H3Y19474   4.555   6.604  16.593 -2.1818  0.7437  0.8865
  161DOPC   C3419475   4.612   6.803  16.550  0.0607 -0.4976  0.1226
  161DOPC   H4X19476   4.670   6.878  16.609  0.7069 -0.1072 -0.9857
  161DOPC   H4Y19477   4.519   6.856  16.522  1.6230  2.1467 -0.4605
  161DOPC   C3519478   4.681   6.765  16.416  0.2180 -0.2019 -0.4908
  161DOPC   H5X19479   4.627   6.673  16.386 -0.3154 -0.0526 -0.0185
  161DOPC   H5Y19480   4.783   6.730  16.444 -0.1978 -1.2355 -0.2153
  161DOPC   C3619481   4.682   6.879  16.312  0.2002  0.3278  0.1437
  161DOPC   H6X19482   4.577   6.904  16.286 -0.3502 -0.1547  1.8087
  161DOPC   H6Y19483   4.732   6.974  16.341  0.1677  0.6037 -0.6773
  161DOPC   C3719484   4.760   6.844  16.187 -0.1750  0.4756  0.5465
  161DOPC   H7X19485   4.869   6.838  16.207 -0.1755  1.0952  0.7541
  161DOPC   H7Y19486   4.731   6.742  16.153  2.2559 -0.7180  1.7760
  161DOPC   C3819487   4.748   6.959  16.083  0.0501  1.1494 -0.6464
  161DOPC   H8X19488   4.836   6.943  16.018 -0.2812 -1.2325 -0.6206
  161DOPC   H8Y19489   4.746   7.057  16.135 -0.0463  1.1629 -0.6722
  161DOPC   C3919490   4.621   6.953  16.009  0.5787 -0.5584  0.0485
  161DOPC   H9X19491   4.534   6.939  16.076  1.7597 -1.9593  1.3510
  161DOPC  C31019492   4.598   6.939  15.873 -0.8157 -0.8978 -0.6296
  161DOPC  H10X19493   4.499   6.937  15.824 -1.1599 -1.3699  0.0530
  161DOPC  C31119494   4.711   6.944  15.772  0.5944 -0.3835 -0.3059
  161DOPC  H11X19495   4.789   6.868  15.795  1.7316 -0.1547 -3.0998
  161DOPC  H11Y19496   4.752   7.045  15.795 -2.2316  0.9545 -0.7677
  161DOPC  C31219497   4.681   6.934  15.618  0.2592 -0.1056 -0.5098
  161DOPC  H12X19498   4.778   6.957  15.569 -0.3099  1.7920 -0.8132
  161DOPC  H12Y19499   4.610   7.015  15.591 -0.5385 -0.9063 -0.8644
  161DOPC  C31319500   4.627   6.801  15.573  0.2950  0.7966  0.6297
  161DOPC  H13X19501   4.704   6.725  15.550 -1.2621 -0.6190 -0.1840
  161DOPC  H13Y19502   4.569   6.746  15.650  1.3096  0.5364  1.2189
  161DOPC  C31419503   4.528   6.813  15.462  0.0296 -0.5587 -0.0054
  161DOPC  H14X19504   4.433   6.857  15.498 -1.6298 -2.5449 -1.7087
  161DOPC  H14Y19505   4.575   6.882  15.388  2.8015  1.6510  3.5225
  161DOPC  C31519506   4.486   6.684  15.398  0.5240 -0.3364  0.1157
  161DOPC  H15X19507   4.406   6.713  15.327 -0.3945  0.0718  1.2850
  161DOPC  H15Y19508   4.431   6.614  15.466 -0.3167  1.5867  1.5064
  161DOPC  C31619509   4.594   6.599  15.338 -0.3920 -0.6255 -0.7187
  161DOPC  H16X19510   4.647   6.657  15.259 -1.8046 -0.1084 -1.3138
  161DOPC  H16Y19511   4.674   6.587  15.415 -0.9863  2.3239  0.4542
  161DOPC  C31719512   4.539   6.467  15.290 -0.6630 -0.2440  0.4578
  161DOPC  H17X19513   4.477   6.425  15.372  0.4805  1.8989  2.5651
  161DOPC  H17Y19514   4.481   6.489  15.198 -0.9951  0.8738  0.9211
  161DOPC  C31819515   4.660   6.381  15.248 -0.1682  0.1134  0.1380
  161DOPC  H18X19516   4.632   6.277  15.220  0.5700 -0.8202  2.5399
  161DOPC  H18Y19517   4.706   6.437  15.164  1.7160  0.0001  1.0305
  161DOPC  H18Z19518   4.743   6.361  15.320 -1.1118  0.4137  1.3509
  162DOPC     N19519   7.452   6.398  17.452  0.2650 -0.3732  0.3736
  162DOPC   C1219520   7.508   6.284  17.377  0.2470 -0.0944  0.0714
  162DOPC  H12A19521   7.426   6.217  17.358  0.2649  0.0171 -0.4236
  162DOPC  H12B19522   7.574   6.229  17.442 -0.0914 -2.0422 -1.1619
  162DOPC   C1319523   7.359   6.479  17.369  0.7140  0.3996 -0.4025
  162DOPC  H13A19524   7.345   6.570  17.426  1.5330  1.5430 -1.9609
  162DOPC  H13B19525   7.407   6.507  17.276 -0.8070 -3.8431 -2.7058
  162DOPC  H13C19526   7.271   6.426  17.337  0.3481  0.7839 -0.0431
  162DOPC   C1419527   7.565   6.492  17.493 -0.7959  0.5881 -0.7904
  162DOPC  H14A19528   7.536   6.564  17.568 -1.4664 -1.2683  0.8267
  162DOPC  H14B19529   7.644   6.430  17.533 -0.6759  1.2209 -0.0244
  162DOPC  H14C19530   7.611   6.535  17.406 -1.3427  1.0388 -0.8663
  162DOPC   C1519531   7.377   6.355  17.580 -0.0876 -0.2346  0.3808
  162DOPC  H15A19532   7.441   6.297  17.645 -0.1250 -0.2184  0.4318
  162DOPC  H15B19533   7.291   6.299  17.548 -0.1493  0.5555 -0.9481
  162DOPC  H15C19534   7.345   6.440  17.638  0.5351 -0.8323  1.6378
  162DOPC   C1119535   7.588   6.317  17.246  0.5102  0.0351 -0.0329
  162DOPC  H11A19536   7.527   6.358  17.163  1.6022 -1.0179 -1.4220
  162DOPC  H11B19537   7.670   6.391  17.262  2.6376 -1.9189 -1.1987
  162DOPC     P19538   7.619   6.118  17.076 -0.4961 -0.3340 -0.0197
  162DOPC   O1319539   7.476   6.092  17.072 -0.1007  0.1017 -0.1177
  162DOPC   O1419540   7.712   6.003  17.069  0.2340  0.2714  0.2014
  162DOPC   O1219541   7.650   6.198  17.206 -0.4052 -0.1527  0.1444
  162DOPC   O1119542   7.659   6.216  16.959 -0.2902 -0.0271 -0.3495
  162DOPC    C119543   7.794   6.259  16.946  0.2218 -0.4787  0.5228
  162DOPC    HA19544   7.867   6.231  17.026  3.7236 -0.4504 -2.4175
  162DOPC    HB19545   7.798   6.370  16.945  0.6532 -0.3821 -3.9381
  162DOPC    C219546   7.854   6.219  16.815  0.0290  0.2535 -0.1929
  162DOPC    HS19547   7.956   6.261  16.812 -0.0645  0.7455  1.9802
  162DOPC   O2119548   7.778   6.263  16.701  0.2235 -0.2562  0.0712
  162DOPC   C2119549   7.797   6.389  16.678 -0.1137  0.1632  0.0914
  162DOPC   O2219550   7.873   6.468  16.725  0.3557  0.1451 -0.5333
  162DOPC   C2219551   7.702   6.420  16.561  0.5697  0.4966  0.1977
  162DOPC   H2R19552   7.662   6.523  16.563  0.4797  0.4556  0.5203
  162DOPC   H2S19553   7.609   6.360  16.564  1.0141 -0.1850  0.7266
  162DOPC    C319554   7.868   6.068  16.798  0.5317  0.2335 -0.3699
  162DOPC    HX19555   7.772   6.013  16.810  0.3352  0.9919  2.2220
  162DOPC    HY19556   7.922   6.040  16.891 -2.3295  0.8924  1.6363
  162DOPC   O3119557   7.948   6.044  16.671 -0.0832 -0.4078  0.0233
  162DOPC   C3119558   8.000   5.925  16.678 -0.1202  0.3878  0.2353
  162DOPC   O3219559   7.979   5.842  16.762  0.1804 -0.9480 -0.1767
  162DOPC   C3219560   8.079   5.902  16.549  0.4070 -0.4950  0.0853
  162DOPC   H2X19561   8.186   5.923  16.567  0.9042 -0.8914 -2.0703
  162DOPC   H2Y19562   8.059   5.796  16.521  0.4435  0.1294 -2.6524
  162DOPC   C2319563   7.781   6.397  16.426 -0.3994  0.0918 -1.2171
  162DOPC   H3R19564   7.887   6.371  16.445 -1.4974 -2.4976  2.6438
  162DOPC   H3S19565   7.775   6.486  16.360 -0.6629  2.2767  1.5324
  162DOPC   C2419566   7.730   6.279  16.349 -0.7150  0.0330 -0.5085
  162DOPC   H4R19567   7.619   6.265  16.353 -1.1429  1.8393 -3.4541
  162DOPC   H4S19568   7.779   6.190  16.394  1.1000  1.7456  1.0938
  162DOPC   C2519569   7.770   6.277  16.199 -0.3671 -0.4282  0.6089
  162DOPC   H5R19570   7.735   6.361  16.135 -0.1494 -1.1553 -0.4905
  162DOPC   H5S19571   7.745   6.190  16.134 -1.3199  0.5384 -0.3548
  162DOPC   C2619572   7.927   6.293  16.197 -0.4412  0.0147  0.0639
  162DOPC   H6R19573   7.980   6.215  16.255 -1.3247  0.2338  1.1925
  162DOPC   H6S19574   7.962   6.384  16.250 -1.0350 -0.3393  1.0892
  162DOPC   C2719575   7.993   6.313  16.056  0.4806  0.3341  0.1836
  162DOPC   H7R19576   8.101   6.330  16.075  0.6896  0.6241 -1.1704
  162DOPC   H7S19577   7.946   6.405  16.013  0.7371  0.5018  0.2586
  162DOPC   C2819578   7.996   6.187  15.967  0.3893 -0.1779 -0.1965
  162DOPC   H8R19579   7.903   6.129  15.981  0.6647 -0.5549  0.0730
  162DOPC   H8S19580   8.074   6.120  16.009  1.2907 -0.4023 -2.0878
  162DOPC   C2919581   8.032   6.222  15.823 -0.0961  0.4421  0.3716
  162DOPC   H9R19582   8.106   6.302  15.810 -0.2147  0.2154 -2.4330
  162DOPC  C21019583   7.977   6.165  15.715 -0.3833  0.6698  0.8115
  162DOPC  H10R19584   8.021   6.190  15.618 -1.3998  1.3644  0.5135
  162DOPC  C21119585   7.889   6.041  15.725 -0.0621  0.5882 -0.1538
  162DOPC  H11R19586   7.784   6.070  15.744 -0.4998 -0.3811 -1.0041
  162DOPC  H11S19587   7.918   5.971  15.806 -1.1169  0.6737  0.3139
  162DOPC  C21219588   7.882   5.966  15.587 -0.4622  0.5111 -0.1616
  162DOPC  H12R19589   7.960   5.888  15.588 -0.0805  0.8500 -1.3758
  162DOPC  H12S19590   7.901   6.029  15.497 -0.5264  2.6719  1.2504
  162DOPC  C21319591   7.754   5.884  15.563 -1.0204 -0.2196  1.1048
  162DOPC  H13R19592   7.662   5.939  15.595 -1.7387 -0.6388 -0.1834
  162DOPC  H13S19593   7.741   5.794  15.626 -1.5201 -1.0311 -0.1157
  162DOPC  C21419594   7.750   5.842  15.415 -0.2819  0.1309  0.3482
  162DOPC  H14R19595   7.833   5.776  15.381 -0.1744  0.8911 -0.9198
  162DOPC  H14S19596   7.755   5.936  15.356  0.1140 -0.0912  0.0225
  162DOPC  C21519597   7.622   5.775  15.366 -0.0557  0.0453  0.2085
  162DOPC  H15R19598   7.541   5.849  15.353  0.4707  0.2732 -2.1988
  162DOPC  H15S19599   7.579   5.706  15.442  1.6854 -1.9881 -0.5539
  162DOPC  C21619600   7.645   5.705  15.232  0.6556  0.8805  0.0569
  162DOPC  H16R19601   7.601   5.604  15.240  0.3653  0.7338 -2.4847
  162DOPC  H16S19602   7.753   5.681  15.220  0.5596  0.8297 -0.7592
  162DOPC  C21719603   7.586   5.766  15.108  0.7713 -0.8273  0.0229
  162DOPC  H17R19604   7.644   5.858  15.084 -0.0538 -0.4068 -0.3926
  162DOPC  H17S19605   7.486   5.815  15.119  2.3806  2.8928 -0.2869
  162DOPC  C21819606   7.587   5.679  14.979 -0.4588  0.0327 -1.0956
  162DOPC  H18R19607   7.549   5.578  15.005  0.1208 -0.0987 -0.7460
  162DOPC  H18S19608   7.695   5.672  14.952  0.0650  0.1092  0.8234
  162DOPC  H18T19609   7.518   5.718  14.902 -0.4431 -0.3196 -1.2925
  162DOPC   C3319610   8.060   6.001  16.427  0.4575  0.2203 -0.0726
  162DOPC   H3X19611   8.082   6.105  16.460  0.8299  0.7608 -1.9159
  162DOPC   H3Y19612   7.954   6.005  16.394 -0.0732 -1.6482  1.2527
  162DOPC   C3419613   8.155   5.964  16.306 -0.0623 -0.9486 -0.1159
  162DOPC   H4X19614   8.256   5.988  16.343 -0.0254 -2.0113  0.5195
  162DOPC   H4Y19615   8.146   6.035  16.221 -0.5543 -0.3593  0.4221
  162DOPC   C3519616   8.151   5.827  16.248 -0.3729  0.2538 -0.3966
  162DOPC   H5X19617   8.047   5.807  16.213 -1.5121 -0.1872  2.9245
  162DOPC   H5Y19618   8.163   5.758  16.333  0.6534  1.9898  0.9442
  162DOPC   C3619619   8.262   5.816  16.132  0.1371 -0.1434 -0.2754
  162DOPC   H6X19620   8.365   5.834  16.171 -0.1959  1.4821 -0.0870
  162DOPC   H6Y19621   8.272   5.709  16.103  0.1737  0.2959 -1.9827
  162DOPC   C3719622   8.239   5.887  16.007  0.0965 -0.9007  0.6299
  162DOPC   H7X19623   8.133   5.892  15.974  0.4240  0.6474 -0.2831
  162DOPC   H7Y19624   8.273   5.993  16.008  0.8491 -1.0020 -2.7726
  162DOPC   C3819625   8.313   5.812  15.892 -0.1806 -0.1662  0.4913
  162DOPC   H8X19626   8.267   5.711  15.887 -2.3694  0.8183 -1.0395
  162DOPC   H8Y19627   8.417   5.786  15.921  0.4574 -0.2456 -1.6559
  162DOPC   C3919628   8.307   5.878  15.755 -0.1353 -0.1455 -0.3276
  162DOPC   H9X19629   8.234   5.959  15.739 -0.6015 -0.1116  1.7371
  162DOPC  C31019630   8.370   5.841  15.646 -0.2773  0.3223 -0.8883
  162DOPC  H10X19631   8.353   5.905  15.558 -0.5327  1.5304  0.0036
  162DOPC  C31119632   8.472   5.729  15.618 -0.2028  0.0333  0.0514
  162DOPC  H11X19633   8.411   5.650  15.568 -1.1650  2.0908 -2.2722
  162DOPC  H11Y19634   8.523   5.688  15.707 -2.0475 -0.9990  0.6974
  162DOPC  C31219635   8.582   5.782  15.527  0.6603  0.1846 -0.6506
  162DOPC  H12X19636   8.674   5.721  15.535  1.3435  1.3336  0.8229
  162DOPC  H12Y19637   8.602   5.890  15.546 -0.0103  0.1949  0.0491
  162DOPC  C31319638   8.565   5.773  15.373 -0.4147  0.4040  0.3953
  162DOPC  H13X19639   8.523   5.671  15.360  2.6953 -0.9558 -0.1572
  162DOPC  H13Y19640   8.495   5.846  15.328  0.1799  0.9128  0.2852
  162DOPC  C31419641   8.703   5.764  15.303 -0.0219 -0.1080  0.2934
  162DOPC  H14X19642   8.770   5.702  15.365 -0.2264  0.5154  1.1514
  162DOPC  H14Y19643   8.694   5.730  15.198  0.2684  2.7230 -0.7439
  162DOPC  C31519644   8.763   5.903  15.271 -0.2426 -0.4992  0.0031
  162DOPC  H15X19645   8.849   5.890  15.202 -0.8175  0.6369 -0.9572
  162DOPC  H15Y19646   8.802   5.956  15.360  1.7280  2.1004 -2.2406
  162DOPC  C31619647   8.666   5.992  15.184 -0.6627 -0.1480  0.6948
  162DOPC  H16X19648   8.624   5.929  15.103  3.2806 -2.6646  0.3404
  162DOPC  H16Y19649   8.580   6.025  15.246 -0.2017  0.9599  0.7818
  162DOPC  C31719650   8.728   6.119  15.128 -0.6119 -0.4270 -0.0601
  162DOPC  H17X19651   8.806   6.153  15.200  1.4314 -0.5720 -2.1204
  162DOPC  H17Y19652   8.791   6.111  15.037 -1.1816  2.2877 -0.7704
  162DOPC  C31819653   8.624   6.231  15.106 -0.0431 -0.1366 -0.0687
  162DOPC  H18X19654   8.548   6.206  15.028  1.8329 -2.1752 -1.3733
  162DOPC  H18Y19655   8.586   6.267  15.204  1.4031 -0.6306  0.6935
  162DOPC  H18Z19656   8.668   6.320  15.057 -0.7691 -0.6247 -1.7113
  163DOPC     N19657   6.295   0.883  16.848  0.5664 -0.0655  0.0668
  163DOPC   C1219658   6.438   0.925  16.844 -0.1158 -0.6414  0.5915
  163DOPC  H12A19659   6.479   0.874  16.758  2.4228 -0.0171  1.3514
  163DOPC  H12B19660   6.484   0.899  16.938  0.6252  1.0609  0.7231
  163DOPC   C1319661   6.272   0.736  16.879 -0.2974  1.3411 -0.0063
  163DOPC  H13A19662   6.168   0.709  16.889  0.1680 -0.1266  1.1733
  163DOPC  H13B19663   6.326   0.667  16.816 -0.5866  0.6414  0.5040
  163DOPC  H13C19664   6.296   0.707  16.980 -2.3584 -2.3265 -0.3979
  163DOPC   C1419665   6.237   0.909  16.710 -0.1349 -0.4323 -1.0699
  163DOPC  H14A19666   6.137   0.870  16.701 -0.0990 -0.5755 -0.8534
  163DOPC  H14B19667   6.238   1.017  16.698 -1.1428 -0.3993 -0.9901
  163DOPC  H14C19668   6.276   0.854  16.626  0.4882 -1.8462  0.0986
  163DOPC   C1519669   6.217   0.956  16.951 -0.1152 -0.5302 -0.2278
  163DOPC  H15A19670   6.116   0.925  16.932 -0.0852 -0.0938 -1.1607
  163DOPC  H15B19671   6.230   1.063  16.942  0.6526 -0.6419 -0.5727
  163DOPC  H15C19672   6.244   0.930  17.052  0.4922  1.0031  0.0381
  163DOPC   C1119673   6.466   1.073  16.828  0.7083  0.0005 -0.4256
  163DOPC  H11A19674   6.564   1.086  16.777 -0.0911 -0.3009 -2.1067
  163DOPC  H11B19675   6.383   1.104  16.761  1.3254  0.7173 -0.8817
  163DOPC     P19676   6.408   1.296  16.945  0.4444  0.0228 -0.0472
  163DOPC   O1319677   6.463   1.363  17.059  0.2564  0.0698 -0.1069
  163DOPC   O1419678   6.262   1.300  16.913 -0.1349  0.4249  0.5263
  163DOPC   O1219679   6.453   1.145  16.956 -0.0340 -0.2068  0.4560
  163DOPC   O1119680   6.488   1.338  16.816 -0.2148  0.5975 -0.4329
  163DOPC    C119681   6.632   1.362  16.824  0.9410 -0.2728 -0.7505
  163DOPC    HA19682   6.685   1.267  16.842  0.2645 -0.3920  0.6899
  163DOPC    HB19683   6.658   1.434  16.904  1.5228 -0.3947 -0.8262
  163DOPC    C219684   6.684   1.410  16.686 -0.1824  0.4943  0.3460
  163DOPC    HS19685   6.792   1.428  16.703 -0.4153  2.3370  0.0896
  163DOPC   O2119686   6.613   1.523  16.647  0.1014  0.0919  0.2889
  163DOPC   C2119687   6.637   1.634  16.711 -0.4361 -0.1770  0.3320
  163DOPC   O2219688   6.737   1.653  16.777  0.1794 -0.3624 -0.0095
  163DOPC   C2219689   6.523   1.732  16.703 -0.5768 -0.1377  0.3128
  163DOPC   H2R19690   6.532   1.797  16.793  0.4902  0.9402 -0.5326
  163DOPC   H2S19691   6.422   1.689  16.686 -2.2955  3.4476  0.3962
  163DOPC    C319692   6.676   1.300  16.578 -0.1471  0.0415  0.1690
  163DOPC    HX19693   6.567   1.280  16.569 -0.7995  2.1460  2.4624
  163DOPC    HY19694   6.720   1.209  16.624  1.7245  1.0594  0.5050
  163DOPC   O3119695   6.747   1.342  16.464 -0.0460 -0.4533 -0.2487
  163DOPC   C3119696   6.666   1.397  16.373  0.3493  0.0116  0.0255
  163DOPC   O3219697   6.547   1.418  16.381 -0.0143  0.1398 -0.2631
  163DOPC   C3219698   6.751   1.413  16.242 -0.3393 -0.7759  0.0108
  163DOPC   H2X19699   6.764   1.521  16.223  1.1895 -0.9246  0.1241
  163DOPC   H2Y19700   6.853   1.371  16.254  0.4559  1.5681  2.2189
  163DOPC   C2319701   6.555   1.815  16.575  0.3589 -0.2402  0.7204
  163DOPC   H3R19702   6.657   1.857  16.568 -0.6945  2.3141 -0.2755
  163DOPC   H3S19703   6.486   1.902  16.575  0.7779  0.1250 -1.0198
  163DOPC   C2419704   6.519   1.741  16.443  0.9217  0.1305  0.6260
  163DOPC   H4R19705   6.417   1.700  16.453  0.7217  0.9033  2.1128
  163DOPC   H4S19706   6.590   1.662  16.410 -1.4111 -1.3076 -1.2727
  163DOPC   C2519707   6.515   1.837  16.323  0.2279  0.1494  0.9185
  163DOPC   H5R19708   6.612   1.891  16.310  0.0369  0.2699 -0.1224
  163DOPC   H5S19709   6.435   1.913  16.333 -0.7916 -0.6303 -0.8540
  163DOPC   C2619710   6.494   1.782  16.178  0.9196 -0.2364 -0.4365
  163DOPC   H6R19711   6.399   1.725  16.166  1.5400 -0.8580 -3.1031
  163DOPC   H6S19712   6.566   1.699  16.165  1.8085  0.6239 -1.0916
  163DOPC   C2719713   6.502   1.884  16.059 -0.2440  0.5989  0.2350
  163DOPC   H7R19714   6.605   1.923  16.049  0.0691 -0.0020  1.0839
  163DOPC   H7S19715   6.443   1.975  16.087  0.1801  0.2650  2.3824
  163DOPC   C2819716   6.450   1.824  15.936  0.0160  0.9994  0.1596
  163DOPC   H8R19717   6.341   1.803  15.940  0.0302  0.7002 -0.6814
  163DOPC   H8S19718   6.496   1.724  15.919 -1.4250  0.4067 -0.4583
  163DOPC   C2919719   6.475   1.918  15.824 -0.4970  0.1962 -0.2947
  163DOPC   H9R19720   6.420   2.011  15.847 -0.8972 -0.4077  1.3410
  163DOPC  C21019721   6.540   1.899  15.708  0.3688  0.7093 -0.2021
  163DOPC  H10R19722   6.540   1.979  15.633  0.0348  3.0190  2.1371
  163DOPC  C21119723   6.613   1.771  15.678  0.4359  0.4004  0.2241
  163DOPC  H11R19724   6.548   1.698  15.626  0.2825 -0.5766  1.7192
  163DOPC  H11S19725   6.644   1.727  15.776  0.2112 -2.8081 -1.0313
  163DOPC  C21219726   6.739   1.791  15.587  0.3971  0.0236 -0.4000
  163DOPC  H12R19727   6.787   1.691  15.579 -2.4617 -1.4777  0.0049
  163DOPC  H12S19728   6.811   1.855  15.643 -0.4444 -0.2331  1.0325
  163DOPC  C21319729   6.718   1.872  15.461 -0.7651  0.2504 -0.1660
  163DOPC  H13R19730   6.711   1.981  15.482 -3.7420 -0.1333  1.3183
  163DOPC  H13S19731   6.625   1.837  15.410  0.9614 -1.1988 -2.5501
  163DOPC  C21419732   6.822   1.863  15.349  0.1946 -0.4087  0.6872
  163DOPC  H14R19733   6.815   1.758  15.311  0.7574 -0.0527 -0.4511
  163DOPC  H14S19734   6.923   1.868  15.393  0.5718 -0.0643 -0.1954
  163DOPC  C21519735   6.792   1.968  15.246 -0.3861 -0.4314  0.5322
  163DOPC  H15R19736   6.888   1.997  15.198 -0.0480 -0.6916  1.0371
  163DOPC  H15S19737   6.765   2.066  15.289  4.7655  0.3308  2.6961
  163DOPC  C21619738   6.702   1.911  15.123  0.0799 -0.3095 -0.0255
  163DOPC  H16R19739   6.604   1.875  15.161 -0.3061 -1.4911 -1.9630
  163DOPC  H16S19740   6.758   1.822  15.085 -0.8756 -1.2282  0.6584
  163DOPC  C21719741   6.682   2.017  15.015 -0.0377  0.3057  0.1740
  163DOPC  H17R19742   6.634   1.973  14.925 -0.3420  0.1461  0.4100
  163DOPC  H17S19743   6.781   2.057  14.986  0.0870 -0.4067 -0.4010
  163DOPC  C21819744   6.588   2.134  15.069 -0.9519  0.6168  0.0434
  163DOPC  H18R19745   6.491   2.095  15.107 -1.7330  1.8319 -0.6244
  163DOPC  H18S19746   6.562   2.211  14.993 -0.6314 -0.6701 -1.4379
  163DOPC  H18T19747   6.640   2.188  15.151 -0.2262 -0.5409  0.3646
  163DOPC   C3319748   6.674   1.343  16.130 -0.7697  0.2220 -0.1620
  163DOPC   H3X19749   6.568   1.374  16.123 -0.9793 -0.1262  1.2717
  163DOPC   H3Y19750   6.683   1.233  16.142  0.1313  0.3687  0.6609
  163DOPC   C3419751   6.742   1.380  15.998 -0.3698  0.3080 -0.2143
  163DOPC   H4X19752   6.849   1.353  16.005 -0.7815 -1.2474  0.4114
  163DOPC   H4Y19753   6.737   1.490  15.980 -0.9352  0.0946 -1.5127
  163DOPC   C3519754   6.678   1.320  15.873  0.0059 -0.5878  0.1171
  163DOPC   H5X19755   6.568   1.339  15.878  0.1352  0.3154 -0.3135
  163DOPC   H5Y19756   6.686   1.209  15.880 -1.5835 -0.8342 -1.3620
  163DOPC   C3619757   6.724   1.372  15.739 -0.8562 -0.0245  0.4664
  163DOPC   H6X19758   6.722   1.483  15.738  0.6520  0.0539 -1.6339
  163DOPC   H6Y19759   6.830   1.340  15.733 -1.2199 -2.0633  3.0491
  163DOPC   C3719760   6.649   1.304  15.629 -0.1497 -0.1169  0.8513
  163DOPC   H7X19761   6.641   1.193  15.640  1.4250 -0.3096  0.3218
  163DOPC   H7Y19762   6.550   1.350  15.651  0.4390  1.9414 -0.5608
  163DOPC   C3819763   6.689   1.337  15.484  0.1376 -0.1226  0.0834
  163DOPC   H8X19764   6.684   1.444  15.457  0.1521 -0.3371 -0.8177
  163DOPC   H8Y19765   6.603   1.302  15.423 -0.5574 -0.6957  1.3627
  163DOPC   C3919766   6.797   1.250  15.432 -0.3403  0.0611  0.8877
  163DOPC   H9X19767   6.802   1.150  15.477 -0.9111 -0.1350  0.5280
  163DOPC  C31019768   6.897   1.272  15.350  0.2210 -0.6810  0.1410
  163DOPC  H10X19769   6.958   1.184  15.327  2.5629  0.8396  0.2521
  163DOPC  C31119770   6.937   1.409  15.283 -0.4497  0.1807  1.0294
  163DOPC  H11X19771   7.041   1.441  15.307 -1.2378  3.2471  0.7581
  163DOPC  H11Y19772   6.874   1.494  15.317 -0.0529  1.9378 -2.2156
  163DOPC  C31219773   6.919   1.420  15.129  0.0621  0.9077  0.5622
  163DOPC  H12X19774   6.810   1.416  15.105  0.5765  0.3249 -1.9410
  163DOPC  H12Y19775   6.970   1.336  15.079 -2.7763  0.2979 -1.5378
  163DOPC  C31319776   6.978   1.545  15.074 -0.8942 -0.4120  0.1623
  163DOPC  H13X19777   6.926   1.622  15.135  1.5074  0.5074  1.1990
  163DOPC  H13Y19778   7.087   1.540  15.097 -1.0410  1.1505  1.3973
  163DOPC  C31419779   6.963   1.563  14.917  0.0168  0.4390 -0.1037
  163DOPC  H14X19780   7.016   1.477  14.871  0.8492 -0.3245  2.1733
  163DOPC  H14Y19781   6.859   1.556  14.876  0.6622 -0.2881 -1.7095
  163DOPC  C31519782   7.023   1.694  14.870 -0.3474 -0.0364 -0.7075
  163DOPC  H15X19783   7.133   1.681  14.867 -0.5772 -2.0940 -2.4762
  163DOPC  H15Y19784   7.000   1.771  14.946 -1.3140 -2.2266  1.3590
  163DOPC  C31619785   6.987   1.744  14.731  0.6781  0.3650  0.0523
  163DOPC  H16X19786   7.054   1.830  14.713  1.5202  0.2013  2.0479
  163DOPC  H16Y19787   6.999   1.670  14.649 -1.8640 -0.6906  0.5340
  163DOPC  C31719788   6.836   1.778  14.711 -0.1222  0.4964 -0.3155
  163DOPC  H17X19789   6.775   1.685  14.711  1.7664 -0.8022  1.0164
  163DOPC  H17Y19790   6.797   1.844  14.791 -0.6637  0.7071 -0.7457
  163DOPC  C31819791   6.817   1.854  14.579  0.3322  0.2227  0.4434
  163DOPC  H18X19792   6.893   1.933  14.564 -0.5606  0.7172 -1.8882
  163DOPC  H18Y19793   6.829   1.794  14.486 -1.8286  2.5987 -1.4915
  163DOPC  H18Z19794   6.716   1.898  14.570  0.8426  1.4875  0.7462
  164DOPC     N19795   7.408   0.187  16.929  0.6688 -0.4960 -0.0829
  164DOPC   C1219796   7.456   0.291  17.033  0.5477  0.0972  0.5094
  164DOPC  H12A19797   7.441   0.251  17.132 -3.1149 -0.2335 -0.0516
  164DOPC  H12B19798   7.397   0.381  17.026  2.0634  1.1038  0.1850
  164DOPC   C1319799   7.479   0.061  16.951 -0.3516  0.3859 -0.3263
  164DOPC  H13A19800   7.471   0.026  17.053  0.5787  1.0556 -0.0143
  164DOPC  H13B19801   7.444  -0.011  16.879  2.4484 -1.0970 -0.3276
  164DOPC  H13C19802   7.584   0.078  16.933  0.0475  0.6823  2.0023
  164DOPC   C1419803   7.432   0.231  16.795  0.4259 -0.0706 -0.1798
  164DOPC  H14A19804   7.396   0.330  16.770  1.1332 -0.0224 -1.0401
  164DOPC  H14B19805   7.536   0.225  16.768  0.1846 -3.4785 -0.7708
  164DOPC  H14C19806   7.379   0.166  16.726 -1.9612  0.4887  1.0133
  164DOPC   C1519807   7.265   0.174  16.951 -0.5288  0.2159  0.0424
  164DOPC  H15A19808   7.223   0.075  16.937 -0.7893  0.5219 -1.6772
  164DOPC  H15B19809   7.215   0.247  16.889 -2.3001 -0.3226  0.7458
  164DOPC  H15C19810   7.234   0.187  17.053 -1.0034 -1.1462  0.0981
  164DOPC   C1119811   7.605   0.351  17.014 -1.1363 -0.1996 -0.0342
  164DOPC  H11A19812   7.613   0.415  16.924  0.0057  1.0903  0.9345
  164DOPC  H11B19813   7.652   0.417  17.091 -3.5591  0.2206  1.1684
  164DOPC     P19814   7.850   0.260  16.942 -0.3952 -0.6163 -0.5284
  164DOPC   O1319815   7.920   0.128  16.922 -0.0336  0.2438 -0.0951
  164DOPC   O1419816   7.922   0.347  17.038  0.0651  0.1935 -0.6654
  164DOPC   O1219817   7.696   0.241  16.992 -0.3806  0.0660 -0.7179
  164DOPC   O1119818   7.835   0.341  16.802 -0.6610  0.2998 -0.0378
  164DOPC    C119819   7.950   0.322  16.716  0.1144  0.5004  0.0406
  164DOPC    HA19820   7.927   0.329  16.607  3.8887  2.3818 -0.7881
  164DOPC    HB19821   7.991   0.218  16.719 -2.4444 -0.6501 -1.3636
  164DOPC    C219822   8.061   0.437  16.738  0.3786 -0.4923 -0.6089
  164DOPC    HS19823   8.098   0.424  16.842  0.1882  2.9156 -0.0043
  164DOPC   O2119824   8.004   0.565  16.734  0.5739 -0.2414 -0.0502
  164DOPC   C2119825   8.069   0.660  16.805 -0.3919 -0.1177 -0.7618
  164DOPC   O2219826   8.174   0.643  16.865 -0.2020  0.4898 -0.1187
  164DOPC   C2219827   7.992   0.789  16.797 -0.1590  0.3159  0.1368
  164DOPC   H2R19828   7.924   0.799  16.885  1.0429  1.6804  0.9363
  164DOPC   H2S19829   7.912   0.776  16.721 -1.3813  2.3372  0.9948
  164DOPC    C319830   8.174   0.425  16.638  0.4147 -0.3641  0.5213
  164DOPC    HX19831   8.224   0.327  16.647  0.8534 -0.3347 -1.2203
  164DOPC    HY19832   8.244   0.507  16.666  0.0321  0.1488  0.0059
  164DOPC   O3119833   8.122   0.445  16.501 -0.5249  0.1099 -0.2362
  164DOPC   C3119834   8.175   0.546  16.432  0.2636 -0.1097 -0.1428
  164DOPC   O3219835   8.251   0.627  16.482  0.2353 -0.2450  0.2090
  164DOPC   C3219836   8.130   0.535  16.284  0.1642 -0.6806 -0.5941
  164DOPC   H2X19837   8.186   0.452  16.237  1.6216  0.4553 -0.9296
  164DOPC   H2Y19838   8.021   0.512  16.287 -0.2268  0.9063 -1.4353
  164DOPC   C2319839   8.079   0.914  16.776 -0.6635 -0.0787  0.3378
  164DOPC   H3R19840   8.169   0.914  16.841  0.4883  0.0674 -1.1921
  164DOPC   H3S19841   8.021   1.008  16.793  1.1374  1.2597 -0.5159
  164DOPC   C2419842   8.135   0.928  16.636  0.6115  0.2965  0.4288
  164DOPC   H4R19843   8.054   0.903  16.564  2.2552 -2.1605 -0.6926
  164DOPC   H4S19844   8.205   0.844  16.613 -1.4643 -1.4918  0.2649
  164DOPC   C2519845   8.196   1.065  16.604  0.7887 -0.1635  0.0909
  164DOPC   H5R19846   8.285   1.079  16.668  0.1724  4.2034  0.2599
  164DOPC   H5S19847   8.119   1.136  16.641  0.6045 -0.2865 -0.0533
  164DOPC   C2619848   8.220   1.102  16.461 -0.4670  0.1276 -0.1869
  164DOPC   H6R19849   8.268   1.200  16.445 -1.2874  0.3131 -1.7010
  164DOPC   H6S19850   8.124   1.109  16.405  0.8592 -0.3911 -2.6818
  164DOPC   C2719851   8.299   0.997  16.383  0.0803  0.1801  0.4185
  164DOPC   H7R19852   8.294   1.018  16.274 -1.3155 -0.7763  0.2676
  164DOPC   H7S19853   8.237   0.907  16.405 -2.9735  1.8812 -0.6326
  164DOPC   C2819854   8.443   0.985  16.436  0.1662 -0.5639  0.2070
  164DOPC   H8R19855   8.444   1.019  16.542 -1.3226  1.0035 -0.2375
  164DOPC   H8S19856   8.504   1.068  16.395  0.3237 -1.6238 -1.8558
  164DOPC   C2919857   8.512   0.851  16.418  0.2933 -0.5354 -0.6323
  164DOPC   H9R19858   8.507   0.780  16.501  0.3520 -0.9756 -1.0019
  164DOPC  C21019859   8.568   0.806  16.304 -0.1729 -0.5329  0.1474
  164DOPC  H10R19860   8.623   0.711  16.308  3.1074  1.0483 -2.5170
  164DOPC  C21119861   8.568   0.877  16.170  0.1683 -0.0476  0.0687
  164DOPC  H11R19862   8.570   0.988  16.177  2.3763 -0.0882  0.8411
  164DOPC  H11S19863   8.472   0.854  16.118  0.1480  1.6008 -0.7194
  164DOPC  C21219864   8.687   0.833  16.078  0.3225  0.2581 -0.2333
  164DOPC  H12R19865   8.668   0.727  16.049 -1.0044 -0.4233  2.7710
  164DOPC  H12S19866   8.782   0.840  16.135 -0.3049 -0.2704  0.9142
  164DOPC  C21319867   8.696   0.917  15.947 -0.0969  0.0467  0.4831
  164DOPC  H13R19868   8.705   1.021  15.985 -1.6718  0.1393  0.6735
  164DOPC  H13S19869   8.605   0.925  15.884  1.4391  1.7852 -1.6734
  164DOPC  C21419870   8.807   0.873  15.849  0.8299  0.1846  0.1505
  164DOPC  H14R19871   8.789   0.764  15.837  0.3968  0.0108  2.0381
  164DOPC  H14S19872   8.901   0.868  15.907  0.7888  1.1560  0.3277
  164DOPC  C21519873   8.823   0.932  15.707 -0.2151  0.1799 -0.2525
  164DOPC  H15R19874   8.838   1.042  15.705 -0.4014  0.2830 -4.0090
  164DOPC  H15S19875   8.730   0.905  15.652 -0.4767 -2.0554  1.1778
  164DOPC  C21619876   8.941   0.862  15.631  0.1875  0.1260  0.1371
  164DOPC  H16R19877   8.933   0.753  15.646 -0.1019 -0.5410 -3.7923
  164DOPC  H16S19878   9.042   0.894  15.665  0.3181 -1.2194  1.0552
  164DOPC  C21719879   8.916   0.876  15.473  0.3301  0.4254 -0.2375
  164DOPC  H17R19880   8.916   0.984  15.445  0.0109  0.2987 -0.7395
  164DOPC  H17S19881   8.817   0.826  15.463 -0.4446  1.1944  2.6241
  164DOPC  C21819882   9.030   0.802  15.407  0.0734 -0.2610 -0.0489
  164DOPC  H18R19883   9.123   0.859  15.387 -0.6542 -0.0954 -3.5482
  164DOPC  H18S19884   9.008   0.771  15.303  1.3506 -1.5982  0.0483
  164DOPC  H18T19885   9.045   0.706  15.461 -0.1939  0.0843  0.6497
  164DOPC   C3319886   8.150   0.664  16.195  0.2585  0.6268 -0.7947
  164DOPC   H3X19887   8.258   0.689  16.203  0.4439 -0.3206 -0.1036
  164DOPC   H3Y19888   8.092   0.747  16.241  0.9078  0.7121 -0.0927
  164DOPC   C3419889   8.108   0.659  16.051  0.6270 -0.0489 -0.3577
  164DOPC   H4X19890   8.116   0.755  15.996 -0.9227  0.1594 -0.2541
  164DOPC   H4Y19891   8.002   0.627  16.061  1.0088 -0.9795  1.1042
  164DOPC   C3519892   8.178   0.548  15.967 -0.5822 -0.2479 -1.1419
  164DOPC   H5X19893   8.143   0.545  15.861  0.3326  4.1544 -1.7437
  164DOPC   H5Y19894   8.151   0.450  16.013  1.4632  0.3474  1.6071
  164DOPC   C3619895   8.330   0.567  15.965 -0.2155 -0.4322  0.2863
  164DOPC   H6X19896   8.363   0.600  16.066  0.5803  0.9276 -0.3889
  164DOPC   H6Y19897   8.385   0.473  15.939 -1.7010 -1.6732  1.4202
  164DOPC   C3719898   8.377   0.688  15.870 -0.5461  0.5668 -0.1353
  164DOPC   H7X19899   8.308   0.775  15.884  0.2246  1.3311 -0.9743
  164DOPC   H7Y19900   8.476   0.716  15.912 -0.8388  0.4637  0.6435
  164DOPC   C3819901   8.391   0.639  15.722  0.5022  0.2687 -0.6162
  164DOPC   H8X19902   8.303   0.575  15.700  0.1517 -0.6640  2.8393
  164DOPC   H8Y19903   8.469   0.561  15.711 -0.5216 -0.6133 -2.1447
  164DOPC   C3919904   8.419   0.751  15.627  0.5479  0.2756  0.6234
  164DOPC   H9X19905   8.353   0.838  15.646  0.7201  0.2425  1.4042
  164DOPC  C31019906   8.508   0.764  15.533 -0.1379  0.4219  0.0885
  164DOPC  H10X19907   8.498   0.852  15.468 -2.9553 -0.9038 -1.4212
  164DOPC  C31119908   8.602   0.649  15.485 -0.1279 -0.2251  0.1105
  164DOPC  H11X19909   8.587   0.553  15.538  1.5194 -0.8476 -0.4977
  164DOPC  H11Y19910   8.708   0.680  15.498 -0.1051 -0.5469  0.7329
  164DOPC  C31219911   8.598   0.620  15.334 -0.1978 -0.3854 -0.5381
  164DOPC  H12X19912   8.496   0.581  15.317 -0.0574 -2.0954  2.0777
  164DOPC  H12Y19913   8.671   0.538  15.318  0.6496  0.7179 -2.6951
  164DOPC  C31319914   8.640   0.745  15.251 -0.3817  0.6046 -0.0095
  164DOPC  H13X19915   8.566   0.826  15.267  0.4738  1.2520  0.7222
  164DOPC  H13Y19916   8.742   0.776  15.281 -0.6837  0.1500  1.5768
  164DOPC  C31419917   8.655   0.715  15.101  0.6499 -0.4929 -0.2521
  164DOPC  H14X19918   8.563   0.659  15.075  0.4577  0.1450 -0.9729
  164DOPC  H14Y19919   8.746   0.657  15.073  0.2719 -1.2534  0.0894
  164DOPC  C31519920   8.669   0.840  15.014 -0.3161  0.0013  0.4515
  164DOPC  H15X19921   8.720   0.921  15.069 -0.8910  1.7493 -1.4596
  164DOPC  H15Y19922   8.565   0.877  15.007 -0.1973  0.9328  2.8365
  164DOPC  C31619923   8.728   0.808  14.876  0.0904 -0.0858 -0.3344
  164DOPC  H16X19924   8.830   0.774  14.904  0.1441 -0.4252 -0.9379
  164DOPC  H16Y19925   8.671   0.723  14.834  2.5635 -2.1949  0.3157
  164DOPC  C31719926   8.721   0.926  14.775 -0.1106  0.3304 -0.0120
  164DOPC  H17X19927   8.785   0.897  14.689 -2.0179  2.4956 -2.3094
  164DOPC  H17Y19928   8.615   0.921  14.744  0.3863  0.5777 -1.9008
  164DOPC  C31819929   8.754   1.065  14.833 -0.1325  0.8419 -0.0239
  164DOPC  H18X19930   8.766   1.140  14.752  0.8130  0.7751  0.0343
  164DOPC  H18Y19931   8.678   1.092  14.908 -0.5796 -0.5842  0.0629
  164DOPC  H18Z19932   8.853   1.069  14.884  0.6580 -1.0256 -1.2889
  165DOPC     N19933   4.254   0.644  17.459  0.9448 -0.3804 -0.2283
  165DOPC   C1219934   4.292   0.788  17.480  0.5034  0.3206 -0.1220
  165DOPC  H12A19935   4.383   0.779  17.538  0.1370 -2.1215  0.1923
  165DOPC  H12B19936   4.215   0.842  17.531  0.9219  0.9956 -0.1967
  165DOPC   C1319937   4.127   0.638  17.390 -0.9482  0.1860  0.1672
  165DOPC  H13A19938   4.121   0.714  17.313 -1.1630 -0.4988 -0.5071
  165DOPC  H13B19939   4.116   0.544  17.338  0.6195  0.8545 -1.5078
  165DOPC  H13C19940   4.041   0.636  17.456 -1.9018 -0.3442 -1.0448
  165DOPC   C1419941   4.250   0.574  17.594  0.1283  0.1855 -0.7022
  165DOPC  H14A19942   4.349   0.557  17.634 -0.8371  2.2467  3.1560
  165DOPC  H14B19943   4.202   0.638  17.667  4.3505  1.5848  1.2264
  165DOPC  H14C19944   4.216   0.473  17.582  1.3956  0.0474 -4.0133
  165DOPC   C1519945   4.349   0.571  17.366 -0.4257 -0.1285 -0.0709
  165DOPC  H15A19946   4.328   0.466  17.354 -2.2316  0.2644 -0.8243
  165DOPC  H15B19947   4.448   0.584  17.405 -0.1910 -0.6222 -0.4967
  165DOPC  H15C19948   4.345   0.616  17.268 -0.8801  1.4116  0.6220
  165DOPC   C1119949   4.326   0.876  17.355  0.1597 -0.5480  0.2967
  165DOPC  H11A19950   4.252   0.858  17.274  0.1126 -0.9577  0.4298
  165DOPC  H11B19951   4.313   0.982  17.383 -2.9746 -0.5518 -0.7942
  165DOPC     P19952   4.505   0.943  17.184  0.0005  0.4490  0.1355
  165DOPC   O1319953   4.633   0.905  17.137 -1.0034  0.0673 -0.0031
  165DOPC   O1419954   4.495   1.084  17.232  0.1408  0.6353  0.3059
  165DOPC   O1219955   4.458   0.859  17.300 -0.1343  0.2739 -0.7252
  165DOPC   O1119956   4.393   0.925  17.072 -0.2150  0.1719  0.5020
  165DOPC    C119957   4.387   0.817  16.973  0.7225 -0.3359 -0.2037
  165DOPC    HA19958   4.279   0.794  16.961  0.5945  0.4661 -0.6281
  165DOPC    HB19959   4.448   0.729  17.004 -2.1223 -2.5403 -0.5199
  165DOPC    C219960   4.449   0.861  16.832  0.3701 -0.4260 -0.7994
  165DOPC    HS19961   4.555   0.890  16.850 -0.3934  1.3685  1.1929
  165DOPC   O2119962   4.364   0.965  16.785 -0.2055  0.1626  0.1115
  165DOPC   C2119963   4.413   1.077  16.755  0.8784  0.4029 -0.6795
  165DOPC   O2219964   4.528   1.118  16.772  0.2879 -0.4042  0.3400
  165DOPC   C2219965   4.301   1.143  16.674 -0.2000 -0.5484 -1.1447
  165DOPC   H2R19966   4.224   1.167  16.751  1.2226  1.7315 -0.3149
  165DOPC   H2S19967   4.255   1.073  16.602 -0.8529 -1.1831 -0.1295
  165DOPC    C319968   4.452   0.743  16.735 -0.1599  0.0919  0.0558
  165DOPC    HX19969   4.353   0.699  16.705 -1.1936  0.6388  2.4645
  165DOPC    HY19970   4.491   0.664  16.802  0.7122  0.2838 -0.2235
  165DOPC   O3119971   4.537   0.774  16.626  0.2291  0.2874  0.2691
  165DOPC   C3119972   4.555   0.665  16.554  0.0253  0.4829  0.1494
  165DOPC   O3219973   4.513   0.555  16.579  0.3269 -0.2313  0.3039
  165DOPC   C3219974   4.660   0.697  16.445  0.5772 -0.2953  0.4817
  165DOPC   H2X19975   4.690   0.803  16.458  1.8994 -0.5912 -0.0300
  165DOPC   H2Y19976   4.751   0.639  16.471  0.1673 -0.1936  2.3136
  165DOPC   C2319977   4.363   1.257  16.592  0.8143  0.2098  0.0151
  165DOPC   H3R19978   4.434   1.212  16.520  0.7512 -0.6917  0.4961
  165DOPC   H3S19979   4.426   1.330  16.648  1.6134  0.1963 -0.8430
  165DOPC   C2419980   4.259   1.339  16.522  0.3884 -0.2718  0.4393
  165DOPC   H4R19981   4.167   1.368  16.577 -1.8351 -0.6343 -2.8178
  165DOPC   H4S19982   4.211   1.273  16.446 -1.8914  2.4392 -0.6279
  165DOPC   C2519983   4.316   1.459  16.442 -0.5757  0.0026 -0.0434
  165DOPC   H5R19984   4.358   1.426  16.344  0.4943 -1.1314  0.7754
  165DOPC   H5S19985   4.399   1.506  16.498  1.3234 -3.4660  0.3495
  165DOPC   C2619986   4.192   1.545  16.401 -0.0025  0.0688  0.0461
  165DOPC   H6R19987   4.154   1.600  16.490 -0.6011  0.7719 -0.6247
  165DOPC   H6S19988   4.106   1.477  16.381 -0.0167 -0.5931  2.1640
  165DOPC   C2719989   4.218   1.647  16.293  0.0394  0.6237 -0.0776
  165DOPC   H7R19990   4.296   1.719  16.323  1.0131 -0.3926 -0.1044
  165DOPC   H7S19991   4.122   1.701  16.277 -0.0520  0.7469  0.7974
  165DOPC   C2819992   4.263   1.603  16.151 -0.0128 -0.0439  0.0104
  165DOPC   H8R19993   4.199   1.522  16.112  1.0015 -0.3961 -0.9733
  165DOPC   H8S19994   4.364   1.561  16.172 -0.2794 -0.6774  0.0250
  165DOPC   C2919995   4.267   1.719  16.051 -0.8699 -0.2527 -0.9130
  165DOPC   H9R19996   4.189   1.797  16.052  0.7864  1.4696 -0.6368
  165DOPC  C21019997   4.368   1.741  15.964  0.3129  0.0712  0.2685
  165DOPC  H10R19998   4.367   1.830  15.900  1.1307  0.2569  0.5033
  165DOPC  C21119999   4.487   1.652  15.938  1.0943  0.3461  0.3696
  165DOPC  H11R20000   4.457   1.597  15.847  0.0466 -2.3852  2.2386
  165DOPC  H11S20001   4.506   1.577  16.018  0.1486 -0.0647  0.2333
  165DOPC  C21220002   4.612   1.729  15.919 -0.3718 -0.1702  0.1821
  165DOPC  H12R20003   4.632   1.792  16.008 -1.3626 -0.1340  0.3823
  165DOPC  H12S20004   4.605   1.787  15.824  0.9427 -3.3728 -2.0623
  165DOPC  C21320005   4.727   1.629  15.893  1.0487 -0.2803  0.1114
  165DOPC  H13R20006   4.693   1.571  15.804 -1.7892  1.8049 -0.2739
  165DOPC  H13S20007   4.746   1.556  15.975 -1.5588 -2.8283 -1.3632
  165DOPC  C21420008   4.864   1.686  15.866  0.0334  0.1345 -0.1398
  165DOPC  H14R20009   4.942   1.616  15.902  1.0838  1.7754  0.9320
  165DOPC  H14S20010   4.873   1.774  15.933 -1.9131  0.0001  0.3294
  165DOPC  C21520011   4.882   1.733  15.724 -0.7872  0.3126  0.2033
  165DOPC  H15R20012   4.793   1.792  15.692  0.4800  1.4616 -1.4096
  165DOPC  H15S20013   4.891   1.650  15.650  1.3178  1.5477 -1.0285
  165DOPC  C21620014   5.016   1.819  15.708  0.3313 -0.3581  0.4097
  165DOPC  H16R20015   5.033   1.840  15.601  2.7140 -1.8990  0.4175
  165DOPC  H16S20016   5.102   1.753  15.731  0.6108 -0.1854 -0.1247
  165DOPC  C21720017   5.025   1.950  15.794 -0.6904 -0.4198  0.6782
  165DOPC  H17R20018   5.120   2.003  15.770 -0.2096 -0.3890  2.4801
  165DOPC  H17S20019   5.030   1.921  15.901  0.7855 -1.6525  0.3125
  165DOPC  C21820020   4.899   2.041  15.771 -0.2038  0.6428  0.0279
  165DOPC  H18R20021   4.906   2.136  15.828 -2.4317 -0.3908  2.1638
  165DOPC  H18S20022   4.797   1.997  15.775  0.6918 -1.5957 -0.1883
  165DOPC  H18T20023   4.911   2.076  15.666  0.2138  0.2666 -0.0566
  165DOPC   C3320024   4.609   0.668  16.303  0.1226  0.5672 -0.1215
  165DOPC   H3X20025   4.575   0.564  16.285 -0.6549  0.7918  0.0078
  165DOPC   H3Y20026   4.690   0.704  16.236 -0.3642  0.6856 -0.6602
  165DOPC   C3420027   4.480   0.744  16.274  0.0933  0.8416 -0.3765
  165DOPC   H4X20028   4.405   0.733  16.355  0.5904 -1.2731 -0.1483
  165DOPC   H4Y20029   4.433   0.695  16.186  1.4597 -0.6145 -0.3269
  165DOPC   C3520030   4.517   0.883  16.232 -0.2527 -0.5002 -0.2631
  165DOPC   H5X20031   4.593   0.882  16.151  0.9825 -0.8124  0.8662
  165DOPC   H5Y20032   4.567   0.941  16.314 -0.2887 -1.1571  0.2302
  165DOPC   C3620033   4.397   0.965  16.186  0.0581 -0.2042 -0.7933
  165DOPC   H6X20034   4.420   1.047  16.115  0.9421 -0.7533 -1.1674
  165DOPC   H6Y20035   4.335   0.899  16.121 -0.9956  0.9996 -1.0552
  165DOPC   C3720036   4.303   1.023  16.291 -0.3372  0.2275  0.2202
  165DOPC   H7X20037   4.359   1.099  16.350 -0.3273  0.1483  0.3113
  165DOPC   H7Y20038   4.278   0.938  16.358 -2.4157  1.9084  1.7281
  165DOPC   C3820039   4.164   1.065  16.245 -0.4206  0.7974  0.1518
  165DOPC   H8X20040   4.095   1.078  16.331  0.0172 -0.9889  0.8304
  165DOPC   H8Y20041   4.124   0.980  16.185  0.1181  1.2973 -0.9421
  165DOPC   C3920042   4.176   1.186  16.153  0.0615 -0.0702 -0.5250
  165DOPC   H9X20043   4.247   1.261  16.192  0.8173 -0.3701 -1.2953
  165DOPC  C31020044   4.129   1.202  16.032 -0.3872 -0.0956 -0.4849
  165DOPC  H10X20045   4.144   1.296  15.978  1.2492  0.9747  1.6867
  165DOPC  C31120046   4.037   1.097  15.968  0.9172  0.5217 -0.5870
  165DOPC  H11X20047   3.967   1.051  16.041  0.8070  0.5958 -0.6454
  165DOPC  H11Y20048   4.094   1.010  15.928  1.1589  0.0064  0.8179
  165DOPC  C31220049   3.960   1.149  15.843  0.1116  0.1827 -0.4564
  165DOPC  H12X20050   4.036   1.183  15.770 -0.5380  0.7021 -0.9035
  165DOPC  H12Y20051   3.906   1.238  15.880 -0.9291 -0.6919  0.1960
  165DOPC  C31320052   3.869   1.036  15.777 -0.4932 -0.7548 -0.6194
  165DOPC  H13X20053   3.860   0.955  15.852  1.5344 -0.9343 -0.5232
  165DOPC  H13Y20054   3.768   1.077  15.757  0.2941  1.4940 -0.2838
  165DOPC  C31420055   3.920   0.986  15.644  0.2057  0.3266 -0.0227
  165DOPC  H14X20056   4.031   0.976  15.643  0.6184  3.7325 -0.0905
  165DOPC  H14Y20057   3.883   0.883  15.624  1.0619 -0.1334  0.7193
  165DOPC  C31520058   3.879   1.082  15.529 -0.5155  0.6060 -0.3081
  165DOPC  H15X20059   3.935   1.176  15.549  0.5192  0.0156 -0.3137
  165DOPC  H15Y20060   3.772   1.107  15.544 -1.0265 -1.0683 -0.9054
  165DOPC  C31620061   3.914   1.036  15.389  0.3257 -0.2467 -0.4023
  165DOPC  H16X20062   4.019   1.000  15.386  0.1551 -0.7727 -0.2269
  165DOPC  H16Y20063   3.849   0.951  15.357  1.1152 -0.7724 -0.6492
  165DOPC  C31720064   3.887   1.145  15.287  0.1297 -0.3498  1.0235
  165DOPC  H17X20065   3.952   1.229  15.318 -2.5614  1.5019  2.0064
  165DOPC  H17Y20066   3.928   1.105  15.192 -0.6480 -1.9198  1.3254
  165DOPC  C31820067   3.742   1.199  15.280  0.3145  0.5656 -0.1232
  165DOPC  H18X20068   3.668   1.119  15.260  0.6486  0.0545  0.6563
  165DOPC  H18Y20069   3.715   1.236  15.381 -0.5397 -2.3264  0.8153
  165DOPC  H18Z20070   3.721   1.286  15.214 -1.6301 -0.5354 -1.0474
  166DOPC     N20071   5.938   1.228  17.213  0.0076  0.6048  0.6113
  166DOPC   C1220072   5.852   1.248  17.086 -0.3573 -0.3943 -0.3780
  166DOPC  H12A20073   5.827   1.353  17.079 -1.5835 -0.4647  1.8423
  166DOPC  H12B20074   5.755   1.206  17.108 -1.3659  1.8062 -0.3574
  166DOPC   C1320075   6.074   1.290  17.193  0.0432  0.0550 -0.5804
  166DOPC  H13A20076   6.130   1.231  17.123 -1.0854 -0.4553 -1.0800
  166DOPC  H13B20077   6.066   1.391  17.156  0.1459  0.3984  0.3167
  166DOPC  H13C20078   6.137   1.286  17.281 -0.0333  0.2018 -0.5169
  166DOPC   C1420079   5.962   1.077  17.236  0.5348 -0.3102 -0.6066
  166DOPC  H14A20080   6.012   1.029  17.153 -0.6709 -1.5341 -0.6601
  166DOPC  H14B20081   6.017   1.067  17.328 -0.6810 -2.1592 -0.0239
  166DOPC  H14C20082   5.863   1.034  17.242 -2.1396  4.5624 -3.1679
  166DOPC   C1520083   5.874   1.286  17.326  0.0767 -0.2063  0.8850
  166DOPC  H15A20084   5.923   1.238  17.410 -2.4536 -3.7405  0.5608
  166DOPC  H15B20085   5.768   1.262  17.327 -0.3807  1.4790 -0.6933
  166DOPC  H15C20086   5.880   1.392  17.346 -0.5449 -0.2616  1.4129
  166DOPC   C1120087   5.908   1.194  16.946 -0.3481 -0.1761  0.0666
  166DOPC  H11A20088   5.833   1.220  16.868 -0.2914 -1.8925 -0.6115
  166DOPC  H11B20089   6.005   1.244  16.924 -0.0083 -0.4285  0.9222
  166DOPC     P20090   5.821   0.951  16.929  0.4832 -0.2578  0.1782
  166DOPC   O1320091   5.703   0.996  17.004  0.4616  0.7538  0.2472
  166DOPC   O1420092   5.874   0.817  16.957 -0.1377  0.3086 -0.1378
  166DOPC   O1220093   5.935   1.055  16.944 -0.0484  0.7077 -0.0656
  166DOPC   O1120094   5.781   0.949  16.772  0.0424  0.3068  0.6814
  166DOPC    C120095   5.891   0.958  16.672  0.3428 -0.3829 -0.0827
  166DOPC    HA20096   5.928   0.856  16.646 -0.7466 -1.7151  3.0965
  166DOPC    HB20097   5.983   1.006  16.712 -0.0689 -0.4642  0.9914
  166DOPC    C220098   5.853   1.037  16.546 -0.0186  0.1186  0.5375
  166DOPC    HS20099   5.819   1.136  16.584  0.6223 -0.7307  3.6532
  166DOPC   O2120100   5.743   0.969  16.485 -0.3495  0.4894 -0.0745
  166DOPC   C2120101   5.686   1.037  16.382  0.0122  0.0735 -0.7261
  166DOPC   O2220102   5.703   1.159  16.371 -0.5503  0.4038  0.1692
  166DOPC   C2220103   5.612   0.951  16.281 -0.3837  0.5052  0.2704
  166DOPC   H2R20104   5.507   0.940  16.313 -0.2620 -1.5399  0.0464
  166DOPC   H2S20105   5.663   0.853  16.290 -0.5646  0.4881  1.1906
  166DOPC    C320106   5.976   1.059  16.446  0.0372 -0.1386 -0.4768
  166DOPC    HX20107   6.073   1.075  16.497  0.7262  0.0772 -1.8197
  166DOPC    HY20108   5.953   1.159  16.404 -1.4601 -0.6905 -1.0372
  166DOPC   O3120109   5.988   0.970  16.334 -0.5558  0.4099 -0.1317
  166DOPC   C3120110   6.062   0.861  16.351  0.0417 -0.0160  0.2312
  166DOPC   O3220111   6.130   0.834  16.450  0.4935 -0.7395  0.1184
  166DOPC   C3220112   6.065   0.783  16.223 -0.5243 -0.3825  0.5178
  166DOPC   H2X20113   5.979   0.809  16.158  1.0186  1.5485 -0.8765
  166DOPC   H2Y20114   6.152   0.806  16.157 -1.7118  1.5708 -0.4509
  166DOPC   C2320115   5.622   1.018  16.133 -0.1980  0.1116  0.7871
  166DOPC   H3R20116   5.729   1.022  16.104 -0.5234  1.1039 -0.3328
  166DOPC   H3S20117   5.581   1.121  16.135 -0.8624 -0.1440  0.6489
  166DOPC   C2420118   5.539   0.944  16.032  0.0700 -0.8738 -0.1593
  166DOPC   H4R20119   5.432   0.974  16.038  0.3463  0.2959 -0.7958
  166DOPC   H4S20120   5.550   0.836  16.054  0.6050 -0.4331  1.9117
  166DOPC   C2520121   5.585   0.976  15.887 -0.5959 -0.4733  0.7228
  166DOPC   H5R20122   5.690   0.941  15.879 -0.3765 -0.2119  2.1299
  166DOPC   H5S20123   5.601   1.084  15.865 -0.5596 -0.9736 -2.1241
  166DOPC   C2620124   5.488   0.924  15.781 -0.4870 -0.6760 -0.5893
  166DOPC   H6R20125   5.504   0.961  15.678 -2.0735 -0.1752 -0.6935
  166DOPC   H6S20126   5.385   0.954  15.813 -0.1311 -0.1253  0.0668
  166DOPC   C2720127   5.499   0.769  15.773 -0.0007 -0.0861 -0.0806
  166DOPC   H7R20128   5.501   0.722  15.874  0.4839 -0.2560 -0.1649
  166DOPC   H7S20129   5.590   0.732  15.721 -2.0509 -2.7484 -2.0465
  166DOPC   C2820130   5.387   0.711  15.689  0.9050 -0.0629  0.7657
  166DOPC   H8R20131   5.295   0.752  15.736  0.8684  0.7607 -0.0035
  166DOPC   H8S20132   5.391   0.602  15.710 -0.5778 -0.0126  1.3951
  166DOPC   C2920133   5.395   0.744  15.537  0.0582 -0.3626 -1.2820
  166DOPC   H9R20134   5.360   0.845  15.510 -0.1081 -0.3556 -1.0383
  166DOPC  C21020135   5.446   0.663  15.438 -0.1459 -0.2092 -0.4078
  166DOPC  H10R20136   5.447   0.693  15.332 -0.9103  0.6710 -0.1874
  166DOPC  C21120137   5.504   0.527  15.462 -0.2276  0.0175 -0.9809
  166DOPC  H11R20138   5.484   0.498  15.567  1.5364 -1.4697 -1.0158
  166DOPC  H11S20139   5.614   0.537  15.451 -0.1000  0.4446  0.5453
  166DOPC  C21220140   5.442   0.434  15.360  0.4154  0.1198  0.5102
  166DOPC  H12R20141   5.458   0.326  15.380 -0.9234  0.1015  1.6094
  166DOPC  H12S20142   5.478   0.466  15.260  0.5705 -1.8232 -0.1034
  166DOPC  C21320143   5.283   0.434  15.359 -0.7437  0.2299  0.5884
  166DOPC  H13R20144   5.245   0.531  15.323 -2.6169  0.0850  2.0079
  166DOPC  H13S20145   5.251   0.424  15.465  1.8969 -1.6856  1.3346
  166DOPC  C21420146   5.224   0.319  15.274 -0.1908  0.4645 -0.6560
  166DOPC  H14R20147   5.271   0.219  15.279 -3.4057 -1.1984 -0.7980
  166DOPC  H14S20148   5.244   0.358  15.172  2.9421  2.2782  0.5057
  166DOPC  C21520149   5.075   0.300  15.300  0.7961 -0.7122 -0.8698
  166DOPC  H15R20150   5.025   0.250  15.215  0.5155 -1.1111 -0.4723
  166DOPC  H15S20151   5.026   0.400  15.305  2.2549  0.2265 -3.3156
  166DOPC  C21620152   5.043   0.208  15.421  0.3317 -0.4216  0.2236
  166DOPC  H16R20153   5.094   0.245  15.513  1.5304 -0.9405 -0.2106
  166DOPC  H16S20154   5.093   0.112  15.399 -0.9439 -0.9154 -0.6253
  166DOPC  C21720155   4.896   0.192  15.439 -0.2500 -0.0457  0.4741
  166DOPC  H17R20156   4.871   0.133  15.349 -0.0608 -1.8254  1.5454
  166DOPC  H17S20157   4.852   0.293  15.420 -0.2501 -0.2289 -0.5628
  166DOPC  C21820158   4.845   0.113  15.562 -0.0770 -0.2156  0.0214
  166DOPC  H18R20159   4.848   0.002  15.554 -1.4852 -0.2272 -0.8360
  166DOPC  H18S20160   4.738   0.139  15.580 -0.5361 -2.1554  0.3846
  166DOPC  H18T20161   4.892   0.161  15.650 -2.0357  0.4833  0.7485
  166DOPC   C3320162   6.058   0.627  16.242  0.2252  0.2852 -0.6005
  166DOPC   H3X20163   6.014   0.581  16.151 -1.6003  0.7346  0.0190
  166DOPC   H3Y20164   5.989   0.596  16.324  0.3018 -1.3505 -1.1227
  166DOPC   C3420165   6.196   0.573  16.254  0.2621  0.2999 -0.1026
  166DOPC   H4X20166   6.257   0.630  16.327  1.3026 -3.4449  2.2253
  166DOPC   H4Y20167   6.249   0.583  16.157 -1.7902  0.5577 -1.2499
  166DOPC   C3520168   6.194   0.434  16.300  0.3837 -0.0921  0.3812
  166DOPC   H5X20169   6.128   0.417  16.387  0.5271  0.5251  0.6145
  166DOPC   H5Y20170   6.298   0.415  16.336  1.6497  0.8752 -2.4136
  166DOPC   C3620171   6.159   0.334  16.197 -0.0214 -1.1175 -0.1849
  166DOPC   H6X20172   6.054   0.346  16.163  0.3154 -2.6512 -1.8976
  166DOPC   H6Y20173   6.216   0.341  16.102  1.2919  0.7043  0.6727
  166DOPC   C3720174   6.191   0.187  16.222 -0.1359  0.0561  0.1280
  166DOPC   H7X20175   6.290   0.175  16.271  0.2990  0.8271 -0.5418
  166DOPC   H7Y20176   6.110   0.148  16.288 -0.7625 -0.3323 -0.8538
  166DOPC   C3820177   6.195   0.076  16.108  0.3243  0.2203 -0.8154
  166DOPC   H8X20178   6.237  -0.007  16.168  0.5050  0.6996 -0.2735
  166DOPC   H8Y20179   6.276   0.104  16.038  1.2552 -2.7011 -1.0470
  166DOPC   C3920180   6.066   0.043  16.033 -0.2648  0.1234 -0.8049
  166DOPC   H9X20181   5.974   0.042  16.093 -0.5288 -1.1618 -1.1952
  166DOPC  C31020182   6.069  -0.009  15.907  1.2901  0.0330 -0.1934
  166DOPC  H10X20183   5.971  -0.029  15.860 -0.1596  0.2431  2.4829
  166DOPC  C31120184   6.191  -0.029  15.820 -0.1874 -0.3851  0.1710
  166DOPC  H11X20185   6.292  -0.016  15.865  0.2418 -1.1240 -0.5528
  166DOPC  H11Y20186   6.192   0.050  15.742 -0.9134  0.1080  0.6481
  166DOPC  C31220187   6.188  -0.169  15.748 -0.8644 -0.7797  0.2693
  166DOPC  H12X20188   6.184  -0.245  15.829 -1.1184  0.0998  1.1021
  166DOPC  H12Y20189   6.278  -0.180  15.684 -2.5138  0.8437 -2.4865
  166DOPC  C31320190   6.066  -0.195  15.656 -0.5918 -0.0160 -0.5571
  166DOPC  H13X20191   5.972  -0.195  15.713  0.7859  2.8451  1.9930
  166DOPC  H13Y20192   6.058  -0.111  15.583 -1.2597  2.7626  2.5051
  166DOPC  C31420193   6.084  -0.325  15.567  0.4300 -0.5877 -0.1196
  166DOPC  H14X20194   6.005  -0.317  15.489  0.8371 -0.1006 -0.4892
  166DOPC  H14Y20195   6.179  -0.314  15.511  1.1319  2.2730  1.4081
  166DOPC  C31520196   6.071  -0.445  15.650  0.1162 -0.0191  0.7244
  166DOPC  H15X20197   5.971  -0.429  15.695  0.5659  1.1563  1.3556
  166DOPC  H15Y20198   6.148  -0.452  15.730  1.1514 -2.8165 -0.3845
  166DOPC  C31620199   6.060  -0.587  15.577 -0.1494  0.3129  0.0779
  166DOPC  H16X20200   6.017  -0.661  15.647  2.0299 -2.2905 -1.1506
  166DOPC  H16Y20201   5.998  -0.575  15.486 -0.6196  0.3279  0.3940
  166DOPC  C31720202   6.198  -0.649  15.540  0.7763  0.1026 -0.1133
  166DOPC  H17X20203   6.261  -0.633  15.630  1.8219  2.2509 -1.1552
  166DOPC  H17Y20204   6.189  -0.759  15.529  0.1754 -0.0701  1.8763
  166DOPC  C31820205   6.263  -0.595  15.414 -0.4678  0.5081 -0.6317
  166DOPC  H18X20206   6.187  -0.602  15.333  1.8934  1.2396 -3.0704
  166DOPC  H18Y20207   6.291  -0.487  15.419  0.3797  0.2828 -0.2966
  166DOPC  H18Z20208   6.355  -0.648  15.383 -1.0610 -1.3041  0.5649
  167DOPC     N20209   5.131   1.741  17.617 -0.7565  0.5330 -0.0866
  167DOPC   C1220210   5.170   1.810  17.490 -0.1490  0.0398  0.3810
  167DOPC  H12A20211   5.276   1.824  17.482 -0.0255 -1.3423 -0.6934
  167DOPC  H12B20212   5.122   1.907  17.489  2.3944  1.3833 -0.2977
  167DOPC   C1320213   5.187   1.607  17.622  0.6706 -0.1916  0.2643
  167DOPC  H13A20214   5.159   1.543  17.540 -4.1308  0.5120  1.0797
  167DOPC  H13B20215   5.295   1.610  17.619  0.6214  1.6166 -1.5343
  167DOPC  H13C20216   5.158   1.557  17.714 -2.5046 -0.0566 -0.5576
  167DOPC   C1420217   4.985   1.722  17.639  0.4081 -1.2409 -0.1152
  167DOPC  H14A20218   4.954   1.823  17.660  3.6623 -0.2905  0.7052
  167DOPC  H14B20219   4.935   1.704  17.545 -1.0600  0.4832  0.2670
  167DOPC  H14C20220   4.959   1.659  17.722 -1.3207 -0.9362 -0.3914
  167DOPC   C1520221   5.188   1.821  17.734  0.0526  0.2707 -0.3511
  167DOPC  H15A20222   5.158   1.773  17.826 -1.3350  1.4954 -0.1335
  167DOPC  H15B20223   5.132   1.913  17.732 -1.2470 -0.4950 -0.8799
  167DOPC  H15C20224   5.292   1.846  17.722 -0.3103  2.6869  0.8852
  167DOPC   C1120225   5.124   1.741  17.352 -0.7648  0.0849  0.6023
  167DOPC  H11A20226   5.014   1.732  17.343 -0.7714  1.4639 -1.1811
  167DOPC  H11B20227   5.155   1.808  17.269 -0.6079  1.0049  1.3865
  167DOPC     P20228   5.343   1.612  17.285 -0.0583  0.0641 -0.0310
  167DOPC   O1320229   5.399   1.485  17.334  0.0441 -0.2091  0.0055
  167DOPC   O1420230   5.418   1.739  17.315  0.3941  0.1904 -0.3317
  167DOPC   O1220231   5.193   1.620  17.331 -0.1739  0.5027  0.0917
  167DOPC   O1120232   5.348   1.610  17.130 -0.5006  0.2252  0.1932
  167DOPC    C120233   5.251   1.537  17.053 -0.2179 -0.5717  0.3983
  167DOPC    HA20234   5.166   1.606  17.034  2.1643  2.4717  0.0387
  167DOPC    HB20235   5.218   1.443  17.101 -1.3739 -0.4690 -0.1441
  167DOPC    C220236   5.303   1.494  16.913 -0.0912  0.3425  0.4757
  167DOPC    HS20237   5.386   1.421  16.929  0.6128  0.9426 -0.2946
  167DOPC   O2120238   5.343   1.608  16.831  0.4457 -0.0678 -0.2170
  167DOPC   C2120239   5.419   1.568  16.720 -0.2664 -0.1240  0.1846
  167DOPC   O2220240   5.452   1.454  16.700 -0.0843  0.5782 -0.3676
  167DOPC   C2220241   5.463   1.685  16.633 -0.0284 -0.4007  0.1818
  167DOPC   H2R20242   5.522   1.756  16.696  0.3394 -0.1346 -0.4543
  167DOPC   H2S20243   5.371   1.739  16.601  0.5790  0.5253 -0.0452
  167DOPC    C320244   5.197   1.409  16.836  0.1669  0.0844  0.6844
  167DOPC    HX20245   5.189   1.318  16.899 -0.8367 -2.5956 -2.9448
  167DOPC    HY20246   5.236   1.359  16.744  0.0159  0.9418  0.1424
  167DOPC   O3120247   5.073   1.479  16.797 -0.4018  0.3260 -0.1057
  167DOPC   C3120248   4.969   1.401  16.765 -0.5034 -0.0210  0.2727
  167DOPC   O3220249   4.974   1.281  16.760  0.3030  0.2276 -0.1438
  167DOPC   C3220250   4.854   1.488  16.718 -0.2574 -0.1611  0.3982
  167DOPC   H2X20251   4.805   1.531  16.808 -1.1105  0.5394 -0.3866
  167DOPC   H2Y20252   4.895   1.568  16.653  0.9023  0.3498  1.7013
  167DOPC   C2320253   5.560   1.646  16.525 -0.5327  0.2981 -0.2996
  167DOPC   H3R20254   5.529   1.556  16.466  1.6902 -0.4201 -0.4816
  167DOPC   H3S20255   5.656   1.603  16.562  0.7047  0.7530 -2.7609
  167DOPC   C2420256   5.576   1.757  16.418 -0.0473 -0.1459 -0.2146
  167DOPC   H4R20257   5.626   1.838  16.476 -2.4733  0.2167  1.5247
  167DOPC   H4S20258   5.475   1.800  16.397  0.0692 -0.3120 -1.1288
  167DOPC   C2520259   5.659   1.712  16.297  0.5627 -0.3915 -0.3864
  167DOPC   H5R20260   5.759   1.684  16.335  0.2959 -3.4057 -1.6005
  167DOPC   H5S20261   5.685   1.802  16.237 -1.5864  1.0653  0.7367
  167DOPC   C2620262   5.620   1.601  16.200 -0.2787 -0.6175 -0.5950
  167DOPC   H6R20263   5.513   1.599  16.169 -0.8320  0.9360  1.0662
  167DOPC   H6S20264   5.639   1.505  16.253  0.5366  0.1337  0.5002
  167DOPC   C2720265   5.701   1.586  16.070 -1.2415 -0.4447  0.9556
  167DOPC   H7R20266   5.809   1.584  16.098 -1.3654  2.5617  2.0815
  167DOPC   H7S20267   5.697   1.684  16.018 -0.1392 -1.3048 -0.8696
  167DOPC   C2820268   5.660   1.471  15.975  0.3146  0.1537  0.2017
  167DOPC   H8R20269   5.550   1.485  15.964  0.3162  0.4463  0.5352
  167DOPC   H8S20270   5.688   1.374  16.021 -1.7472 -0.0853  1.0688
  167DOPC   C2920271   5.732   1.481  15.844 -0.1572  0.4704 -0.4151
  167DOPC   H9R20272   5.817   1.412  15.838 -0.0047  0.6540 -0.3522
  167DOPC  C21020273   5.703   1.567  15.744 -0.1275  0.7881  0.2530
  167DOPC  H10R20274   5.774   1.564  15.660  1.8681  0.5925  1.8574
  167DOPC  C21120275   5.595   1.666  15.729 -0.2149  1.0712 -0.8745
  167DOPC  H11R20276   5.641   1.765  15.710 -0.0965  0.7885 -2.1831
  167DOPC  H11S20277   5.527   1.683  15.815  0.8292 -2.5367  0.8560
  167DOPC  C21220278   5.521   1.629  15.601  0.4114  0.6066 -0.2200
  167DOPC  H12R20279   5.578   1.651  15.508  1.4090  0.9908  0.4698
  167DOPC  H12S20280   5.497   1.520  15.602  1.2421  0.4217  0.2325
  167DOPC  C21320281   5.372   1.695  15.598 -0.4840 -0.0009  0.1016
  167DOPC  H13R20282   5.392   1.804  15.601  0.4123 -0.1729  1.1287
  167DOPC  H13S20283   5.315   1.670  15.691  0.0143 -1.0669  0.1426
  167DOPC  C21420284   5.290   1.679  15.467 -0.0761 -0.2370  0.0308
  167DOPC  H14R20285   5.359   1.683  15.380 -0.7774  0.6299 -0.4908
  167DOPC  H14S20286   5.223   1.767  15.470 -1.6524 -1.3970  0.5749
  167DOPC  C21520287   5.208   1.552  15.470 -0.2620  0.7881  0.1645
  167DOPC  H15R20288   5.134   1.557  15.552  1.3571 -1.3350  1.8774
  167DOPC  H15S20289   5.274   1.464  15.484 -4.7130 -2.9481  0.0101
  167DOPC  C21620290   5.119   1.541  15.347  0.0748  0.2539 -0.3288
  167DOPC  H16R20291   5.045   1.622  15.365  1.7709  1.3631  2.2073
  167DOPC  H16S20292   5.062   1.445  15.344  1.5028 -0.6466  0.3800
  167DOPC  C21720293   5.180   1.566  15.212 -0.0404 -0.1116  0.4650
  167DOPC  H17R20294   5.290   1.547  15.216  0.4388  1.0914 -2.9528
  167DOPC  H17S20295   5.168   1.673  15.184  0.5826  0.3695  1.9709
  167DOPC  C21820296   5.112   1.476  15.102  0.3099 -0.3430  0.4478
  167DOPC  H18R20297   5.134   1.368  15.115  0.7508 -0.8237 -3.3014
  167DOPC  H18S20298   5.154   1.507  15.005  1.3002  0.6705  1.1708
  167DOPC  H18T20299   5.001   1.486  15.101  0.4129  1.1386  1.0619
  167DOPC   C3320300   4.743   1.433  16.628 -0.8737  0.3192  0.0967
  167DOPC   H3X20301   4.674   1.518  16.609  0.3840  1.0346 -1.4918
  167DOPC   H3Y20302   4.689   1.349  16.676  0.9344 -0.1296  1.4704
  167DOPC   C3420303   4.805   1.387  16.491 -0.4687  0.7895 -1.0995
  167DOPC   H4X20304   4.868   1.298  16.512 -0.4838  1.2992  1.4925
  167DOPC   H4Y20305   4.862   1.466  16.436  1.0552 -1.0101 -2.2022
  167DOPC   C3520306   4.697   1.323  16.410  0.6599  0.1109 -0.2375
  167DOPC   H5X20307   4.606   1.384  16.429  2.5614  3.1381 -0.1521
  167DOPC   H5Y20308   4.670   1.231  16.465  1.0445  0.4235  0.4813
  167DOPC   C3620309   4.726   1.303  16.262  0.3234  0.1948 -0.2118
  167DOPC   H6X20310   4.635   1.266  16.211 -0.4247  0.3607  0.9722
  167DOPC   H6Y20311   4.731   1.407  16.223 -1.0470  0.4582  0.2642
  167DOPC   C3720312   4.850   1.221  16.229  0.4571 -0.1520  0.3666
  167DOPC   H7X20313   4.939   1.262  16.281  0.8347 -1.7742  1.0619
  167DOPC   H7Y20314   4.833   1.121  16.274  1.8310 -0.0230  1.2169
  167DOPC   C3820315   4.880   1.229  16.078  0.8892  0.8130  0.5951
  167DOPC   H8X20316   4.909   1.331  16.043 -1.6110  1.5390  0.4216
  167DOPC   H8Y20317   4.783   1.212  16.027  1.2494 -0.2759  0.2617
  167DOPC   C3920318   4.975   1.119  16.032 -0.3124 -0.2566  0.1755
  167DOPC   H9X20319   4.950   1.016  16.061  0.2459  0.0485  1.8565
  167DOPC  C31020320   5.091   1.145  15.973  0.1534 -0.3489 -0.0512
  167DOPC  H10X20321   5.153   1.069  15.924 -1.1941 -1.5596  0.0330
  167DOPC  C31120322   5.128   1.286  15.936 -0.4120  0.5789 -0.5469
  167DOPC  H11X20323   5.153   1.347  16.026 -1.7444  1.7580 -0.9386
  167DOPC  H11Y20324   5.047   1.344  15.888 -0.5554  0.3344 -0.6016
  167DOPC  C31220325   5.240   1.280  15.825  0.6165 -0.7567 -0.2704
  167DOPC  H12X20326   5.331   1.230  15.866  0.5455 -0.5843  0.1024
  167DOPC  H12Y20327   5.268   1.384  15.800 -0.9656 -0.3552 -0.4347
  167DOPC  C31320328   5.183   1.208  15.695 -0.4346  0.1128 -0.5891
  167DOPC  H13X20329   5.130   1.114  15.723  1.0219 -1.0187 -1.4845
  167DOPC  H13Y20330   5.109   1.281  15.656 -3.3525 -1.2766  1.9402
  167DOPC  C31420331   5.290   1.171  15.587 -0.0092 -0.6838  0.6303
  167DOPC  H14X20332   5.339   1.264  15.553  0.3661 -1.1682 -0.1808
  167DOPC  H14Y20333   5.360   1.096  15.631  2.3314  0.1895 -1.3420
  167DOPC  C31520334   5.221   1.117  15.458 -0.1554 -0.3515  0.5091
  167DOPC  H15X20335   5.138   1.185  15.428 -0.6270 -2.0443 -2.4959
  167DOPC  H15Y20336   5.176   1.019  15.483  0.2352 -0.7015 -0.1307
  167DOPC  C31620337   5.318   1.100  15.343 -0.3578 -0.3074 -0.3603
  167DOPC  H16X20338   5.367   1.197  15.317  0.7761 -1.0332 -1.0120
  167DOPC  H16Y20339   5.401   1.035  15.375 -0.9216 -1.5411 -1.3186
  167DOPC  C31720340   5.250   1.032  15.219 -0.9287  0.3704 -0.2502
  167DOPC  H17X20341   5.232   0.926  15.246  2.7946 -0.1547  0.6904
  167DOPC  H17Y20342   5.154   1.087  15.211 -1.0783  0.0172 -1.0429
  167DOPC  C31820343   5.331   1.036  15.092  0.3082 -0.3170  0.2102
  167DOPC  H18X20344   5.285   0.963  15.022 -0.6589 -0.1773  0.6836
  167DOPC  H18Y20345   5.319   1.140  15.056 -1.6181 -0.7960 -0.6933
  167DOPC  H18Z20346   5.435   1.003  15.111 -0.5813 -4.2408 -0.8476
  168DOPC     N20347   1.663   6.720  17.467 -0.5168 -0.2355 -0.3057
  168DOPC   C1220348   1.563   6.796  17.381 -0.1051 -0.6666 -0.3439
  168DOPC  H12A20349   1.608   6.861  17.307  0.3372  0.2393  0.6928
  168DOPC  H12B20350   1.504   6.859  17.447  1.3310  0.4220 -0.0451
  168DOPC   C1320351   1.775   6.810  17.497 -0.3866 -0.0928 -0.0877
  168DOPC  H13A20352   1.741   6.908  17.527 -1.2643 -0.0283 -1.2262
  168DOPC  H13B20353   1.834   6.787  17.584  1.2195  0.9617 -0.8527
  168DOPC  H13C20354   1.841   6.819  17.413 -0.7283  1.1772 -0.2394
  168DOPC   C1420355   1.709   6.597  17.401 -1.0183  0.7726 -0.2232
  168DOPC  H14A20356   1.637   6.519  17.384  2.0762 -1.9031 -2.2108
  168DOPC  H14B20357   1.756   6.613  17.305  0.8199 -0.9009  0.3061
  168DOPC  H14C20358   1.789   6.549  17.456 -1.4015  0.5350  0.1327
  168DOPC   C1520359   1.600   6.673  17.598 -0.1829 -0.5345  0.1884
  168DOPC  H15A20360   1.682   6.631  17.655  0.8402  0.2717 -0.6416
  168DOPC  H15B20361   1.525   6.597  17.588  1.0775 -1.7482 -0.3409
  168DOPC  H15C20362   1.558   6.753  17.657 -1.3010 -1.2373  0.3682
  168DOPC   C1120363   1.451   6.707  17.310 -0.0152 -0.2382 -0.4769
  168DOPC  H11A20364   1.396   6.764  17.233 -0.1395  0.2803 -0.0108
  168DOPC  H11B20365   1.506   6.630  17.251  0.1804  0.1761 -0.8386
  168DOPC     P20366   1.247   6.695  17.456 -0.2042  0.5103  0.1804
  168DOPC   O1320367   1.274   6.832  17.511 -0.2318  0.4596 -0.0560
  168DOPC   O1420368   1.180   6.603  17.547  0.5540 -0.0599 -0.1389
  168DOPC   O1220369   1.379   6.633  17.405 -0.1182  0.2342 -0.0669
  168DOPC   O1120370   1.168   6.696  17.326  0.1572 -0.2746  0.9063
  168DOPC    C120371   1.100   6.588  17.252 -0.0752 -0.7156 -0.7020
  168DOPC    HA20372   1.003   6.624  17.211 -0.8230  3.3654  3.7849
  168DOPC    HB20373   1.095   6.497  17.314 -1.1730  1.0601  1.9904
  168DOPC    C220374   1.185   6.559  17.125  0.0295  0.4452 -0.0274
  168DOPC    HS20375   1.275   6.509  17.167 -1.7205 -0.8834  2.4515
  168DOPC   O2120376   1.198   6.677  17.052  0.6427  0.0966 -0.3134
  168DOPC   C2120377   1.311   6.680  16.983 -0.6835  0.4194 -0.0643
  168DOPC   O2220378   1.412   6.612  16.991  0.2799 -0.6197 -0.5736
  168DOPC   C2220379   1.303   6.802  16.885  0.0530  0.2681  0.1399
  168DOPC   H2R20380   1.272   6.888  16.948  0.1746  0.2130  0.2722
  168DOPC   H2S20381   1.227   6.771  16.809 -1.8396  1.8075  1.3196
  168DOPC    C320382   1.114   6.454  17.041  0.0455  0.0680 -0.3219
  168DOPC    HX20383   1.029   6.515  17.002 -0.5266 -0.8769 -0.5730
  168DOPC    HY20384   1.054   6.379  17.096 -1.3517  0.5615 -1.0958
  168DOPC   O3120385   1.206   6.386  16.960 -0.2512  0.3324 -0.3880
  168DOPC   C3120386   1.206   6.416  16.829  0.4985 -1.1360 -1.2442
  168DOPC   O3220387   1.137   6.508  16.778 -0.0099 -0.0046  0.3438
  168DOPC   C3220388   1.304   6.330  16.755  0.1975  0.6597  0.0200
  168DOPC   H2X20389   1.395   6.304  16.813  0.7277  1.6067 -0.3561
  168DOPC   H2Y20390   1.255   6.240  16.712  2.4173 -0.3938 -0.4688
  168DOPC   C2320391   1.436   6.834  16.820 -0.4912 -0.1615  0.1102
  168DOPC   H3R20392   1.494   6.744  16.792 -1.4408 -0.4462 -0.9887
  168DOPC   H3S20393   1.494   6.885  16.901 -1.5721 -1.5646  1.8428
  168DOPC   C2420394   1.427   6.933  16.711 -0.9936 -0.1608 -0.5458
  168DOPC   H4R20395   1.400   7.025  16.766  0.6145 -0.4719  0.8505
  168DOPC   H4S20396   1.342   6.906  16.645  0.1541 -1.1849 -1.6669
  168DOPC   C2520397   1.552   6.944  16.627  0.4995 -0.2510  0.3690
  168DOPC   H5R20398   1.603   6.847  16.606  0.8638  0.3659 -1.9322
  168DOPC   H5S20399   1.628   7.005  16.680  2.0535 -0.8066 -1.1080
  168DOPC   C2620400   1.522   7.002  16.493  0.2677  0.1402  0.4737
  168DOPC   H6R20401   1.453   6.927  16.450  1.6489 -0.3311 -1.0439
  168DOPC   H6S20402   1.621   6.999  16.443  0.4701  1.6819  0.7095
  168DOPC   C2720403   1.451   7.139  16.479 -0.0907  0.2387  0.0684
  168DOPC   H7R20404   1.342   7.126  16.490 -0.0959 -3.2545 -2.2511
  168DOPC   H7S20405   1.461   7.159  16.370 -2.6343  1.3295 -0.0281
  168DOPC   C2820406   1.519   7.251  16.560  0.4400 -0.3324 -0.5477
  168DOPC   H8R20407   1.622   7.250  16.519  0.7222 -0.0741  0.1494
  168DOPC   H8S20408   1.539   7.218  16.664  0.0204 -0.6608 -0.5637
  168DOPC   C2920409   1.461   7.388  16.560 -0.1031  0.0604  0.5597
  168DOPC   H9R20410   1.367   7.392  16.617  0.6783 -0.3962  1.9198
  168DOPC  C21020411   1.513   7.488  16.485 -0.3246 -0.0379 -0.2759
  168DOPC  H10R20412   1.463   7.585  16.488  1.0807  0.7510 -1.3036
  168DOPC  C21120413   1.644   7.482  16.401 -0.3641 -0.6443 -0.8219
  168DOPC  H11R20414   1.713   7.413  16.454 -0.9981 -0.8535 -0.2731
  168DOPC  H11S20415   1.695   7.580  16.415 -1.2266 -0.3423  0.3407
  168DOPC  C21220416   1.624   7.434  16.262 -0.3611  0.0335  0.0757
  168DOPC  H12R20417   1.556   7.506  16.212  1.6711  0.2004 -2.6273
  168DOPC  H12S20418   1.578   7.333  16.254 -0.0412 -0.1498  0.5134
  168DOPC  C21320419   1.747   7.427  16.170 -0.5125  0.3921  0.2367
  168DOPC  H13R20420   1.816   7.350  16.210 -1.6125  0.6591  2.8746
  168DOPC  H13S20421   1.798   7.525  16.157 -0.4705  0.3393  0.0132
  168DOPC  C21420422   1.699   7.373  16.032  0.2434 -0.3540  0.4983
  168DOPC  H14R20423   1.638   7.459  15.996  0.8231  0.3400  1.1169
  168DOPC  H14S20424   1.631   7.289  16.055 -1.4357  1.3247  1.9348
  168DOPC  C21520425   1.807   7.337  15.939 -0.8835 -0.2416  0.7317
  168DOPC  H15R20426   1.775   7.284  15.847  1.6710 -2.0256  0.7452
  168DOPC  H15S20427   1.873   7.263  15.990 -0.5897 -1.0799 -0.7926
  168DOPC  C21620428   1.891   7.455  15.886 -0.1101 -0.0820  0.2011
  168DOPC  H16R20429   1.896   7.523  15.974 -2.7067 -0.1125  0.4363
  168DOPC  H16S20430   1.836   7.500  15.801 -1.6397 -3.0065 -0.4871
  168DOPC  C21720431   2.030   7.405  15.836 -0.1911  0.1173 -0.6945
  168DOPC  H17R20432   2.034   7.337  15.748 -2.5742  1.8091 -2.2402
  168DOPC  H17S20433   2.085   7.349  15.915  1.3747  0.3282 -1.5962
  168DOPC  C21820434   2.122   7.521  15.800 -0.0538  0.5097 -0.3221
  168DOPC  H18R20435   2.068   7.571  15.717 -1.7259 -3.7040 -2.0316
  168DOPC  H18S20436   2.218   7.489  15.754 -0.8545  1.2341 -2.6235
  168DOPC  H18T20437   2.128   7.592  15.885 -0.0822 -1.0659  1.0454
  168DOPC   C3320438   1.354   6.404  16.630  0.7240 -0.1042 -0.2032
  168DOPC   H3X20439   1.378   6.512  16.641 -1.2314  0.2270  1.8048
  168DOPC   H3Y20440   1.265   6.401  16.564  0.9549  0.3265 -0.5324
  168DOPC   C3420441   1.463   6.324  16.559 -0.0172 -0.0760 -0.8752
  168DOPC   H4X20442   1.432   6.219  16.542 -1.5036  0.3118 -0.6546
  168DOPC   H4Y20443   1.550   6.324  16.628 -1.9269 -0.4240  1.6758
  168DOPC   C3520444   1.491   6.374  16.416 -0.0923 -0.0875 -0.1194
  168DOPC   H5X20445   1.393   6.410  16.380 -0.1423  1.6230  1.5710
  168DOPC   H5Y20446   1.542   6.297  16.353 -0.1358  0.2285 -0.5450
  168DOPC   C3620447   1.585   6.494  16.408 -0.2911 -0.7597 -0.2261
  168DOPC   H6X20448   1.549   6.570  16.481  0.8355  0.7161 -1.1469
  168DOPC   H6Y20449   1.686   6.457  16.436 -0.0943 -0.4884 -0.5529
  168DOPC   C3720450   1.593   6.573  16.279  0.4214  0.8441  0.0425
  168DOPC   H7X20451   1.683   6.635  16.293  0.2561  1.0241  0.3002
  168DOPC   H7Y20452   1.603   6.494  16.201  1.0231  2.0645 -1.1749
  168DOPC   C3820453   1.479   6.653  16.238 -0.1220  0.2031  0.4820
  168DOPC   H8X20454   1.441   6.698  16.332  1.2377  0.6709  0.8316
  168DOPC   H8Y20455   1.403   6.580  16.201 -0.2609  0.2037  0.7596
  168DOPC   C3920456   1.513   6.753  16.133 -0.2039 -0.5661  0.2385
  168DOPC   H9X20457   1.578   6.831  16.174  0.2655 -1.1606  0.6485
  168DOPC  C31020458   1.486   6.749  15.997 -0.0510  0.4129  0.0252
  168DOPC  H10X20459   1.532   6.826  15.934  2.1316  0.3243  1.3991
  168DOPC  C31120460   1.425   6.645  15.925  0.5381 -0.1018  0.5969
  168DOPC  H11X20461   1.343   6.693  15.866 -0.2785  0.2576  1.9712
  168DOPC  H11Y20462   1.379   6.565  15.986  2.3125 -0.8138  1.0581
  168DOPC  C31220463   1.520   6.578  15.835 -0.6645  0.0097  0.0640
  168DOPC  H12X20464   1.463   6.525  15.756 -0.5975  1.2170 -0.8227
  168DOPC  H12Y20465   1.576   6.498  15.888  0.2224  0.6249  0.0823
  168DOPC  C31320466   1.617   6.668  15.753  0.9870 -0.4426  0.0047
  168DOPC  H13X20467   1.551   6.749  15.712  2.2649  1.3085  1.2422
  168DOPC  H13Y20468   1.697   6.691  15.827 -1.2327  1.1488  2.1047
  168DOPC  C31420469   1.672   6.609  15.627 -0.6498 -0.3370  0.2299
  168DOPC  H14X20470   1.771   6.652  15.602 -0.6515 -1.1628 -1.3410
  168DOPC  H14Y20471   1.687   6.499  15.640  2.6721 -0.1566 -1.0060
  168DOPC  C31520472   1.578   6.610  15.511  0.4387 -0.3127  0.0786
  168DOPC  H15X20473   1.555   6.716  15.487 -0.6718 -1.0277 -2.2445
  168DOPC  H15Y20474   1.489   6.547  15.528  0.8426 -1.1059 -0.6578
  168DOPC  C31620475   1.634   6.542  15.385 -0.3218  0.3469 -0.2279
  168DOPC  H16X20476   1.659   6.437  15.409 -0.4110 -0.0836 -1.9082
  168DOPC  H16Y20477   1.558   6.541  15.305 -0.4318  0.9351 -0.1402
  168DOPC  C31720478   1.758   6.600  15.320  0.0359 -0.2360 -0.0688
  168DOPC  H17X20479   1.770   6.707  15.349  1.1760 -0.4600  0.3730
  168DOPC  H17Y20480   1.857   6.555  15.343  0.6681  0.3711 -1.4653
  168DOPC  C31820481   1.742   6.595  15.163  0.3240 -0.4181 -0.2497
  168DOPC  H18X20482   1.822   6.649  15.108  0.4225 -0.5038 -0.1929
  168DOPC  H18Y20483   1.740   6.490  15.125 -1.5351  0.0285 -1.5017
  168DOPC  H18Z20484   1.643   6.640  15.142  0.1253 -0.9079 -0.3713
  169DOPC     N20485   6.971   0.794  17.243 -0.0018  0.2559 -0.0385
  169DOPC   C1220486   6.963   0.715  17.113 -0.1427  0.1892  0.6104
  169DOPC  H12A20487   6.860   0.717  17.080 -0.0437  1.9461  0.3310
  169DOPC  H12B20488   6.988   0.612  17.137  1.1153  0.3663  0.1591
  169DOPC   C1320489   6.875   0.744  17.344  0.0277  0.0278 -0.0699
  169DOPC  H13A20490   6.895   0.639  17.361 -0.5231 -0.0154  0.3249
  169DOPC  H13B20491   6.879   0.797  17.437 -0.3539 -0.2054  0.0811
  169DOPC  H13C20492   6.774   0.732  17.308 -0.0707 -1.4653  0.6570
  169DOPC   C1420493   6.940   0.943  17.222 -0.9248  0.2735 -0.0393
  169DOPC  H14A20494   7.000   0.974  17.138  0.0780 -0.7407  0.2794
  169DOPC  H14B20495   6.839   0.955  17.185 -0.6052  1.6518 -0.5216
  169DOPC  H14C20496   6.959   1.004  17.309  0.5575  0.8896 -0.7635
  169DOPC   C1520497   7.109   0.790  17.300  0.0777  0.2376  0.5779
  169DOPC  H15A20498   7.130   0.695  17.348 -0.3421 -1.2891 -2.0582
  169DOPC  H15B20499   7.115   0.864  17.378 -3.4136  2.3598 -0.9495
  169DOPC  H15C20500   7.175   0.821  17.221  0.2041  1.0588  1.0041
  169DOPC   C1120501   7.045   0.764  16.994 -0.2347  0.4198  0.7817
  169DOPC  H11A20502   7.016   0.694  16.912 -1.2833  1.5198  0.1848
  169DOPC  H11B20503   7.013   0.865  16.962 -0.8329 -0.3476 -1.1858
  169DOPC     P20504   7.290   0.677  16.956  0.2183 -0.4657 -0.4239
  169DOPC   O1320505   7.266   0.533  16.971  0.2572  0.0896  0.3508
  169DOPC   O1420506   7.424   0.727  17.010  0.3168  0.0808 -0.0975
  169DOPC   O1220507   7.182   0.774  17.020 -0.2361  0.3143 -0.6422
  169DOPC   O1120508   7.278   0.711  16.799  0.1113 -0.7397 -0.0634
  169DOPC    C120509   7.263   0.842  16.742 -0.5607 -0.3911 -0.0275
  169DOPC    HA20510   7.361   0.882  16.709 -1.3282  1.1821 -0.4939
  169DOPC    HB20511   7.220   0.910  16.819  0.7846  0.8267 -0.3073
  169DOPC    C220512   7.173   0.838  16.614 -0.0418  0.6507  0.1856
  169DOPC    HS20513   7.081   0.784  16.645 -0.1971 -0.0755 -1.4419
  169DOPC   O2120514   7.243   0.760  16.517 -0.1616  0.4811  0.5756
  169DOPC   C2120515   7.172   0.722  16.411  0.0709 -0.2939 -0.4934
  169DOPC   O2220516   7.058   0.758  16.390  0.0199  0.1166 -0.3353
  169DOPC   C2220517   7.252   0.623  16.331 -0.5969 -0.5158  0.4384
  169DOPC   H2R20518   7.203   0.524  16.346 -0.6224 -0.4729  0.6391
  169DOPC   H2S20519   7.356   0.632  16.370 -0.3659  0.8024 -0.4214
  169DOPC    C320520   7.126   0.982  16.579  0.0398 -0.0646  0.1949
  169DOPC    HX20521   7.094   1.039  16.669  0.4346  1.4700 -0.6213
  169DOPC    HY20522   7.043   0.976  16.505 -0.3922  0.0124  0.6674
  169DOPC   O3120523   7.236   1.051  16.510  0.1914  0.1569 -0.4080
  169DOPC   C3120524   7.302   1.140  16.574 -1.0973 -0.2751  0.1545
  169DOPC   O3220525   7.286   1.191  16.682 -0.4665  0.3469  0.2091
  169DOPC   C3220526   7.424   1.176  16.486  0.0886  0.0803  0.5692
  169DOPC   H2X20527   7.393   1.183  16.380 -0.4275 -0.2442  0.6956
  169DOPC   H2Y20528   7.461   1.274  16.524 -2.7320  1.1976  0.6238
  169DOPC   C2320529   7.259   0.648  16.177  0.1467  0.1290 -0.1052
  169DOPC   H3R20530   7.151   0.649  16.151 -0.6705  3.1773  2.7278
  169DOPC   H3S20531   7.327   0.569  16.138  0.3047  1.0407 -1.7844
  169DOPC   C2420532   7.326   0.773  16.125  0.6779  0.0308 -0.0655
  169DOPC   H4R20533   7.435   0.753  16.132  0.8351 -0.3598 -2.6903
  169DOPC   H4S20534   7.295   0.861  16.186 -2.0103 -1.2439  0.5707
  169DOPC   C2520535   7.280   0.812  15.980  0.3069  0.5584  0.2342
  169DOPC   H5R20536   7.174   0.845  15.979  0.4336  0.9666  0.1476
  169DOPC   H5S20537   7.281   0.719  15.918 -0.4137  1.0362 -0.5085
  169DOPC   C2620538   7.366   0.917  15.911 -0.4362  0.0643 -0.6905
  169DOPC   H6R20539   7.470   0.877  15.904  0.1961  1.4865  0.1622
  169DOPC   H6S20540   7.357   1.005  15.978  0.5760 -0.9816  0.8967
  169DOPC   C2720541   7.307   0.948  15.775 -0.0023  0.1325 -0.0370
  169DOPC   H7R20542   7.205   0.990  15.788  0.1530  0.4464  0.1915
  169DOPC   H7S20543   7.293   0.852  15.721 -0.8455 -1.2152  2.4115
  169DOPC   C2820544   7.389   1.045  15.691 -0.3330  0.7268  0.7400
  169DOPC   H8R20545   7.483   0.993  15.664 -0.0594  1.1903  0.8003
  169DOPC   H8S20546   7.411   1.131  15.757 -1.1812  0.9765  0.7074
  169DOPC   C2920547   7.300   1.081  15.571  0.0976 -0.0983 -0.3349
  169DOPC   H9R20548   7.317   1.035  15.473  0.0980  1.0941 -0.9067
  169DOPC  C21020549   7.214   1.189  15.583 -0.2249 -0.2051 -0.3756
  169DOPC  H10R20550   7.160   1.214  15.490  0.4095 -4.1144 -1.9724
  169DOPC  C21120551   7.191   1.281  15.698  0.0503 -0.7655 -0.3912
  169DOPC  H11R20552   7.229   1.246  15.796 -0.7195 -0.8672 -0.1247
  169DOPC  H11S20553   7.084   1.307  15.710  0.9576  2.9514  0.9426
  169DOPC  C21220554   7.254   1.425  15.684  0.4855  0.3699 -0.4260
  169DOPC  H12R20555   7.364   1.424  15.668  0.3580 -0.2463 -1.3440
  169DOPC  H12S20556   7.224   1.481  15.775 -1.1752 -0.1767 -0.6084
  169DOPC  C21320557   7.189   1.502  15.565  0.3961 -0.6050 -0.4372
  169DOPC  H13R20558   7.079   1.508  15.573  0.5334  1.7585  0.5852
  169DOPC  H13S20559   7.214   1.450  15.470 -0.0348 -3.4136  0.8772
  169DOPC  C21420560   7.243   1.646  15.550  0.2865 -0.2537  0.5854
  169DOPC  H14R20561   7.353   1.650  15.562  0.6113 -1.4672 -1.4836
  169DOPC  H14S20562   7.200   1.704  15.634 -1.0728 -2.8518  1.7593
  169DOPC  C21520563   7.203   1.707  15.412 -0.0437 -0.0661  0.0101
  169DOPC  H15R20564   7.101   1.750  15.418 -0.2450 -0.6012  0.5378
  169DOPC  H15S20565   7.187   1.620  15.345  4.9158 -1.6279  0.4914
  169DOPC  C21620566   7.296   1.815  15.365 -0.0754  0.0551  0.1150
  169DOPC  H16R20567   7.400   1.784  15.387  0.0087  0.4010  0.2165
  169DOPC  H16S20568   7.286   1.909  15.423 -1.3554  0.0579 -0.0937
  169DOPC  C21720569   7.291   1.850  15.215  0.1700 -0.3020 -0.3845
  169DOPC  H17R20570   7.338   1.769  15.155 -2.4624 -0.2501 -2.7157
  169DOPC  H17S20571   7.367   1.926  15.187  0.0608 -0.0790 -0.0857
  169DOPC  C21820572   7.153   1.892  15.157 -0.4960 -0.7141  0.3710
  169DOPC  H18R20573   7.166   1.933  15.054  3.1885 -1.9652  0.1662
  169DOPC  H18S20574   7.118   1.982  15.212 -1.8967 -0.7832 -0.3547
  169DOPC  H18T20575   7.069   1.820  15.159 -0.7394 -0.5182 -1.3096
  169DOPC   C3320576   7.537   1.071  16.498 -0.0849  0.0419  0.3012
  169DOPC   H3X20577   7.508   0.964  16.494  0.9361 -0.2052 -1.6910
  169DOPC   H3Y20578   7.593   1.076  16.594 -0.2949  4.2842  0.3999
  169DOPC   C3420579   7.642   1.068  16.384 -0.3785 -0.2715 -0.3115
  169DOPC   H4X20580   7.696   1.165  16.390 -0.3541 -0.3715  2.2829
  169DOPC   H4Y20581   7.601   1.060  16.281  1.1694  0.3883 -1.0103
  169DOPC   C3520582   7.746   0.957  16.403 -0.2644 -0.8612 -0.1239
  169DOPC   H5X20583   7.690   0.861  16.401 -1.2396 -0.2920 -0.9136
  169DOPC   H5Y20584   7.786   0.973  16.506  1.0819  2.1052 -0.9962
  169DOPC   C3620585   7.859   0.967  16.305  0.2675  0.2870 -0.2962
  169DOPC   H6X20586   7.908   1.063  16.332  0.9937 -0.6986  2.1456
  169DOPC   H6Y20587   7.934   0.890  16.331 -0.5073 -0.2012  0.5920
  169DOPC   C3720588   7.837   0.963  16.153  0.1327 -0.0998  0.6495
  169DOPC   H7X20589   7.841   0.863  16.103  0.6693  1.5228 -2.9033
  169DOPC   H7Y20590   7.731   0.991  16.139 -0.1500 -1.5594 -0.2961
  169DOPC   C3820591   7.926   1.070  16.092  0.7479 -0.0471  0.5432
  169DOPC   H8X20592   7.906   1.163  16.150  1.7736  1.9475 -2.0923
  169DOPC   H8Y20593   7.881   1.084  15.991  1.9520 -2.6639 -0.4414
  169DOPC   C3920594   8.075   1.042  16.096 -0.3973  0.4486  0.5712
  169DOPC   H9X20595   8.122   1.032  16.195 -1.0319  0.4026  0.8743
  169DOPC  C31020596   8.161   1.028  15.993 -0.3357 -0.1423 -0.0411
  169DOPC  H10X20597   8.266   0.999  16.009 -0.4896 -0.1846  0.9730
  169DOPC  C31120598   8.119   1.057  15.846 -0.5106 -0.5971  0.2890
  169DOPC  H11X20599   8.020   1.009  15.831 -1.4694  0.5876  2.4406
  169DOPC  H11Y20600   8.191   1.012  15.774  0.9059  1.3250  0.4290
  169DOPC  C31220601   8.104   1.205  15.807  0.6419 -0.5564  0.3412
  169DOPC  H12X20602   8.191   1.268  15.835 -0.9639  1.2391  1.4938
  169DOPC  H12Y20603   8.018   1.243  15.866  0.1483 -0.0883 -0.6669
  169DOPC  C31320604   8.100   1.226  15.655 -0.0697 -0.2448 -0.0730
  169DOPC  H13X20605   8.186   1.181  15.600  0.6939 -2.2183  2.5491
  169DOPC  H13Y20606   8.006   1.180  15.618  0.0565 -1.2282  0.7993
  169DOPC  C31420607   8.075   1.373  15.607 -0.6107 -0.7947  0.5488
  169DOPC  H14X20608   8.004   1.422  15.676 -0.3891  1.9529 -1.0553
  169DOPC  H14Y20609   8.175   1.422  15.607 -0.9425 -0.1170 -0.0022
  169DOPC  C31520610   8.031   1.393  15.462  0.2847 -0.6262 -0.6710
  169DOPC  H15X20611   8.010   1.497  15.426 -1.4878 -0.6890  0.0976
  169DOPC  H15Y20612   7.934   1.342  15.447 -0.9509  1.6388 -0.9372
  169DOPC  C31620613   8.140   1.346  15.363  0.5478  0.2100  0.5275
  169DOPC  H16X20614   8.233   1.405  15.378 -0.3761  2.1659 -0.9340
  169DOPC  H16Y20615   8.149   1.238  15.386  1.0319  0.4987  1.7751
  169DOPC  C31720616   8.095   1.371  15.220 -0.5915 -0.2601  0.0233
  169DOPC  H17X20617   7.986   1.358  15.204 -0.5325  1.4044 -2.0767
  169DOPC  H17Y20618   8.097   1.480  15.197  0.1968 -0.2873 -0.0477
  169DOPC  C31820619   8.171   1.289  15.124  0.0810 -0.4296 -0.2533
  169DOPC  H18X20620   8.152   1.180  15.133  0.6803 -0.5065  0.1686
  169DOPC  H18Y20621   8.146   1.321  15.021  0.5453 -0.8786 -0.5129
  169DOPC  H18Z20622   8.280   1.309  15.138  0.1892 -2.4794  2.7085
  170DOPC     N20623   5.859   6.924  17.534 -0.1291 -0.2893 -0.4561
  170DOPC   C1220624   5.807   6.806  17.448  0.4446 -0.2759 -0.2019
  170DOPC  H12A20625   5.710   6.773  17.483  0.5596  0.0792  0.4564
  170DOPC  H12B20626   5.879   6.726  17.458  0.2259 -0.4417  0.0463
  170DOPC   C1320627   5.769   7.035  17.523  0.0315 -0.9006 -0.5248
  170DOPC  H13A20628   5.668   7.000  17.541 -0.0667  0.7788  3.1544
  170DOPC  H13B20629   5.801   7.106  17.598 -0.9192  1.0360 -1.8717
  170DOPC  H13C20630   5.775   7.081  17.426  0.2157  1.3892  0.5149
  170DOPC   C1420631   5.999   6.967  17.508  0.0516  1.2688 -1.2042
  170DOPC  H14A20632   6.063   6.882  17.529  1.2401  2.3851 -0.1416
  170DOPC  H14B20633   6.011   6.993  17.404 -0.3005  1.8543 -1.1003
  170DOPC  H14C20634   6.033   7.047  17.571 -0.8808 -0.3012  1.4264
  170DOPC   C1520635   5.858   6.888  17.681 -0.4248 -0.5333 -0.4221
  170DOPC  H15A20636   5.760   6.859  17.714 -0.4444 -0.1020 -0.0831
  170DOPC  H15B20637   5.888   6.980  17.730 -1.0509  0.0070 -1.0255
  170DOPC  H15C20638   5.924   6.808  17.712 -0.5736 -0.8268 -0.8592
  170DOPC   C1120639   5.785   6.836  17.303  0.1285  0.1777  0.8258
  170DOPC  H11A20640   5.731   6.756  17.249 -1.2497  0.5076  1.6654
  170DOPC  H11B20641   5.724   6.924  17.275  1.0668 -0.0106 -2.0862
  170DOPC     P20642   6.015   6.739  17.205 -0.2768  0.3348  0.5171
  170DOPC   O1320643   6.022   6.638  17.309 -0.4381  0.1050 -0.4733
  170DOPC   O1420644   6.142   6.811  17.181 -0.4641 -0.4308 -0.3304
  170DOPC   O1220645   5.906   6.857  17.233 -0.1338  0.0455  0.6055
  170DOPC   O1120646   5.965   6.683  17.060 -0.3419  0.6725  0.0978
  170DOPC    C120647   5.879   6.754  16.971  0.1500 -0.5487 -0.0492
  170DOPC    HA20648   5.844   6.854  17.005 -0.5822 -0.1991 -1.7484
  170DOPC    HB20649   5.780   6.706  16.961  0.2950 -1.1920  1.3486
  170DOPC    C220650   5.949   6.768  16.835  0.2772 -0.6235  0.9799
  170DOPC    HS20651   5.889   6.844  16.780  0.2626 -1.8393 -0.7942
  170DOPC   O2120652   5.944   6.644  16.761  0.1227 -0.5732  0.3092
  170DOPC   C2120653   5.822   6.607  16.725  0.3549  0.3267 -0.0394
  170DOPC   O2220654   5.722   6.676  16.734  0.0620 -0.1236  0.1807
  170DOPC   C2220655   5.840   6.468  16.656 -0.0814 -0.8404 -0.5860
  170DOPC   H2R20656   5.747   6.410  16.677  0.1907 -0.7141  1.1204
  170DOPC   H2S20657   5.920   6.411  16.709  0.2057  0.0541 -0.0354
  170DOPC    C320658   6.096   6.831  16.831 -0.0166  0.5664  0.0181
  170DOPC    HX20659   6.164   6.771  16.895 -0.8094 -1.1610 -0.7025
  170DOPC    HY20660   6.087   6.930  16.881 -3.2981 -1.2073  3.5200
  170DOPC   O3120661   6.141   6.843  16.696 -0.1882  0.3844  0.2741
  170DOPC   C3120662   6.234   6.752  16.654  0.3366 -0.1659  0.4174
  170DOPC   O3220663   6.264   6.654  16.718 -0.8483 -0.0561 -0.5404
  170DOPC   C3220664   6.280   6.770  16.508  0.0568 -0.0535 -0.0579
  170DOPC   H2X20665   6.189   6.795  16.449 -1.0152 -1.3160  0.9941
  170DOPC   H2Y20666   6.365   6.841  16.508  1.5964 -1.7895 -0.9853
  170DOPC   C2320667   5.895   6.494  16.515 -0.1365  0.0546 -0.4248
  170DOPC   H3R20668   6.005   6.481  16.524 -0.2294 -0.3118  0.2138
  170DOPC   H3S20669   5.878   6.598  16.479 -0.9178 -0.2992 -1.1139
  170DOPC   C2420670   5.837   6.393  16.407  0.1995 -0.3264 -0.1565
  170DOPC   H4R20671   5.737   6.432  16.382  0.0760  0.7184  1.8136
  170DOPC   H4S20672   5.822   6.295  16.457  3.6119 -0.7487  0.3372
  170DOPC   C2520673   5.936   6.391  16.283 -0.1946 -0.3391 -0.0327
  170DOPC   H5R20674   6.040   6.376  16.320  0.3759 -0.0130 -1.4683
  170DOPC   H5S20675   5.919   6.491  16.236  0.3620  0.1891  0.8530
  170DOPC   C2620676   5.904   6.280  16.177 -0.1524 -0.6332  0.0534
  170DOPC   H6R20677   5.978   6.293  16.095 -0.3513  1.6606  0.1766
  170DOPC   H6S20678   5.803   6.299  16.135 -0.1672 -0.1372  0.3017
  170DOPC   C2720679   5.903   6.141  16.236 -0.2004  0.1873 -0.1875
  170DOPC   H7R20680   5.861   6.129  16.338 -0.7084 -1.5042 -0.5617
  170DOPC   H7S20681   6.010   6.109  16.236  0.0059  0.8372 -0.9682
  170DOPC   C2820682   5.821   6.039  16.148 -0.0499 -0.3241 -0.6099
  170DOPC   H8R20683   5.715   6.070  16.146  0.5261  1.7551 -1.5893
  170DOPC   H8S20684   5.812   5.941  16.200  0.4632 -0.7140 -1.2292
  170DOPC   C2920685   5.858   6.030  16.005  0.0306 -0.0261 -0.3701
  170DOPC   H9R20686   5.794   6.093  15.942 -0.6330  0.5640  0.8494
  170DOPC  C21020687   5.940   5.943  15.943  0.0839 -0.3981  0.2666
  170DOPC  H10R20688   5.961   5.953  15.836  0.9745 -1.4936  0.3118
  170DOPC  C21120689   6.017   5.833  16.006  0.0308 -0.0908  0.6815
  170DOPC  H11R20690   6.044   5.864  16.109 -1.7634 -1.3301  1.5909
  170DOPC  H11S20691   6.113   5.826  15.952 -0.2662 -1.1907  0.2756
  170DOPC  C21220692   5.940   5.698  16.002 -0.2441  0.5063 -0.6587
  170DOPC  H12R20693   5.838   5.701  16.045  0.9613  2.8694  2.4080
  170DOPC  H12S20694   5.985   5.629  16.076 -1.4244  0.6033  0.1778
  170DOPC  C21320695   5.950   5.628  15.869  0.2615 -0.0171 -0.3043
  170DOPC  H13R20696   6.052   5.587  15.853  0.8550  1.1377  0.3610
  170DOPC  H13S20697   5.920   5.698  15.789  1.5897  1.1194  0.1588
  170DOPC  C21420698   5.857   5.510  15.849 -0.0687  0.1565 -0.1871
  170DOPC  H14R20699   5.854   5.517  15.739  0.6641  0.3587 -0.1993
  170DOPC  H14S20700   5.755   5.528  15.888  0.4653  1.9839  0.4763
  170DOPC  C21520701   5.918   5.378  15.888  0.6292 -0.0192 -0.4097
  170DOPC  H15R20702   5.927   5.355  15.996 -0.9489 -3.0249 -0.8278
  170DOPC  H15S20703   6.021   5.377  15.845  0.2483  1.1880 -1.4063
  170DOPC  C21620704   5.849   5.253  15.823 -0.4396  0.7609  0.6061
  170DOPC  H16R20705   5.912   5.166  15.848  0.0491  0.5770 -1.1525
  170DOPC  H16S20706   5.841   5.274  15.714 -0.1561  2.3541  0.8615
  170DOPC  C21720707   5.704   5.226  15.880  0.3907 -0.1135  0.1150
  170DOPC  H17R20708   5.661   5.327  15.860  2.6261  0.2662 -3.5809
  170DOPC  H17S20709   5.705   5.193  15.986 -0.0135  0.7315  0.3887
  170DOPC  C21820710   5.618   5.124  15.799 -1.4175 -0.4818  0.7028
  170DOPC  H18R20711   5.591   5.178  15.706  1.4813  0.1289  0.1187
  170DOPC  H18S20712   5.529   5.091  15.857  0.2969 -3.8077  1.7058
  170DOPC  H18T20713   5.678   5.036  15.766  1.4135  2.0638 -1.5111
  170DOPC   C3320714   6.340   6.643  16.446 -0.0053  0.5142 -0.0761
  170DOPC   H3X20715   6.269   6.558  16.435  1.6194 -0.5715 -3.9730
  170DOPC   H3Y20716   6.430   6.607  16.499  1.9292  1.3736 -2.5817
  170DOPC   C3420717   6.372   6.670  16.298 -0.1182  0.3021  0.4751
  170DOPC   H4X20718   6.415   6.773  16.294 -1.4777  1.1001  3.5180
  170DOPC   H4Y20719   6.280   6.660  16.237  1.0785 -0.1141 -1.3444
  170DOPC   C3520720   6.468   6.571  16.239 -0.1176 -0.1166  0.1768
  170DOPC   H5X20721   6.457   6.466  16.274  0.4873 -0.1664  0.2259
  170DOPC   H5Y20722   6.565   6.607  16.279  0.7562 -3.5290  1.4669
  170DOPC   C3620723   6.481   6.588  16.091  0.2887 -0.0488  0.4978
  170DOPC   H6X20724   6.393   6.550  16.035  0.7288  1.0890 -1.0191
  170DOPC   H6Y20725   6.493   6.696  16.067  0.6358 -0.1113  0.3864
  170DOPC   C3720726   6.617   6.539  16.029  0.1453 -0.2394 -0.0922
  170DOPC   H7X20727   6.694   6.569  16.103  3.0714 -0.6182 -2.7892
  170DOPC   H7Y20728   6.622   6.429  16.018  1.3066 -0.5587  2.7494
  170DOPC   C3820729   6.654   6.619  15.908 -0.6976 -0.0092 -0.7929
  170DOPC   H8X20730   6.757   6.588  15.877 -0.2173  2.8720 -2.4848
  170DOPC   H8Y20731   6.666   6.727  15.933 -0.1955 -0.0836 -0.6956
  170DOPC   C3920732   6.560   6.596  15.800  0.0400  0.1399  0.4152
  170DOPC   H9X20733   6.493   6.673  15.760 -0.7033 -1.0457 -0.7052
  170DOPC  C31020734   6.547   6.481  15.730 -0.7975  1.1017  0.1996
  170DOPC  H10X20735   6.460   6.474  15.663  0.3172  0.7572 -1.2877
  170DOPC  C31120736   6.630   6.348  15.750  0.2466 -0.3839  0.0763
  170DOPC  H11X20737   6.563   6.273  15.798  0.9413 -2.5439 -2.1208
  170DOPC  H11Y20738   6.717   6.367  15.816 -0.4377  1.0859  0.6171
  170DOPC  C31220739   6.676   6.288  15.614  0.4608  0.2527  0.3435
  170DOPC  H12X20740   6.738   6.362  15.559  0.2050 -1.3063 -2.2439
  170DOPC  H12Y20741   6.590   6.274  15.545  1.7723 -0.4683 -1.2257
  170DOPC  C31320742   6.756   6.162  15.630 -0.0651 -0.1774  0.2967
  170DOPC  H13X20743   6.853   6.174  15.683 -0.3568  2.1872  0.4113
  170DOPC  H13Y20744   6.698   6.094  15.696 -0.5287  0.8508  0.9847
  170DOPC  C31420745   6.770   6.082  15.503  0.1647 -0.0003 -0.8604
  170DOPC  H14X20746   6.788   5.974  15.523  1.6116  0.2193 -0.8810
  170DOPC  H14Y20747   6.674   6.089  15.446 -0.0524  3.5120 -0.2455
  170DOPC  C31520748   6.888   6.133  15.414 -0.3187 -0.0724  0.1234
  170DOPC  H15X20749   6.860   6.235  15.380  0.9256  1.4264  3.2146
  170DOPC  H15Y20750   6.902   6.060  15.331 -0.1074  1.0184 -0.8179
  170DOPC  C31620751   7.022   6.135  15.481 -0.3650  0.1751  0.2141
  170DOPC  H16X20752   7.041   6.225  15.544  3.0241 -0.7064  0.6347
  170DOPC  H16Y20753   7.018   6.051  15.553 -1.2642  0.9244  1.0799
  170DOPC  C31720754   7.145   6.123  15.393 -0.1608  0.3866  0.4129
  170DOPC  H17X20755   7.116   6.030  15.338 -1.5744  1.2260 -0.3080
  170DOPC  H17Y20756   7.154   6.206  15.320 -0.8152 -0.5945 -0.8283
  170DOPC  C31820757   7.272   6.095  15.472 -0.3767  0.2926  1.0099
  170DOPC  H18X20758   7.300   6.183  15.534  1.1550 -2.1662  4.0917
  170DOPC  H18Y20759   7.266   6.005  15.537  0.1158 -1.1005 -0.7853
  170DOPC  H18Z20760   7.355   6.084  15.400 -0.3585  0.6201  0.9772
  171DOPC     N20761   3.171   2.321  12.978  0.0286 -0.0236 -0.0299
  171DOPC   C1220762   3.291   2.406  12.960 -0.2947  0.1272 -0.0130
  171DOPC  H12A20763   3.277   2.471  12.876 -0.9419  1.3025  0.9691
  171DOPC  H12B20764   3.373   2.341  12.933 -0.6044 -1.1028  1.8020
  171DOPC   C1320765   3.048   2.401  12.996  0.2322  0.5496 -0.8313
  171DOPC  H13A20766   3.025   2.477  12.923 -2.6276  0.9523  0.3647
  171DOPC  H13B20767   2.963   2.335  12.998  1.4298 -1.0242  0.4083
  171DOPC  H13C20768   3.051   2.459  13.087 -1.3679 -0.0792 -0.3438
  171DOPC   C1420769   3.198   2.224  13.091 -0.1699  0.6992 -0.0106
  171DOPC  H14A20770   3.291   2.170  13.085 -0.4848 -0.4834  3.5190
  171DOPC  H14B20771   3.182   2.275  13.185  1.7629 -0.0510  0.7674
  171DOPC  H14C20772   3.133   2.139  13.077  1.8532 -1.1141  1.0706
  171DOPC   C1520773   3.146   2.246  12.857  0.1424 -0.2582 -0.2218
  171DOPC  H15A20774   3.122   2.307  12.771  4.3176  0.4241 -1.1189
  171DOPC  H15B20775   3.062   2.179  12.868  0.3604 -0.3988  0.6361
  171DOPC  H15C20776   3.228   2.186  12.822 -1.0586 -2.0357 -0.1576
  171DOPC   C1120777   3.328   2.499  13.083 -0.8855  0.1590  0.2419
  171DOPC  H11A20778   3.354   2.436  13.171  1.0157  1.0854  0.3889
  171DOPC  H11B20779   3.428   2.543  13.059 -0.7471 -0.3471 -0.1314
  171DOPC     P20780   3.237   2.743  13.046 -0.2325  0.0163  0.2266
  171DOPC   O1320781   3.104   2.807  13.045 -0.3614 -0.4053 -0.7996
  171DOPC   O1420782   3.300   2.728  12.911  0.5263  0.4349 -0.7699
  171DOPC   O1220783   3.234   2.598  13.120  0.2685 -0.2773  0.4313
  171DOPC   O1120784   3.344   2.829  13.123  0.0775 -0.2170 -0.2686
  171DOPC    C120785   3.427   2.798  13.233 -0.4891 -0.4139 -0.1715
  171DOPC    HA20786   3.512   2.870  13.226 -0.5221 -0.3090  0.4830
  171DOPC    HB20787   3.472   2.698  13.218 -0.1963 -0.4825  1.1110
  171DOPC    C220788   3.346   2.802  13.361  0.0172 -0.4365  0.2260
  171DOPC    HS20789   3.295   2.703  13.358 -1.3081  0.2567 -1.2386
  171DOPC   O2120790   3.244   2.914  13.359  0.4206 -0.2149 -0.0606
  171DOPC   C2120791   3.121   2.877  13.411 -0.5223  0.3425  0.8386
  171DOPC   O2220792   3.091   2.765  13.445 -0.0858  0.8956  0.0921
  171DOPC   C2220793   3.032   3.005  13.408  0.5009 -0.3120 -0.0737
  171DOPC   H2R20794   3.039   3.040  13.303  0.3769 -0.9836 -0.3146
  171DOPC   H2S20795   3.085   3.063  13.486  0.5147  0.5646 -0.7204
  171DOPC    C320796   3.423   2.804  13.486  0.0164 -0.0389  0.2648
  171DOPC    HX20797   3.454   2.910  13.490  0.2052 -0.0417 -0.9496
  171DOPC    HY20798   3.515   2.744  13.471  0.1807 -0.8385  3.6537
  171DOPC   O3120799   3.350   2.765  13.603  0.3427 -0.0857  0.3037
  171DOPC   C3120800   3.361   2.640  13.646  0.0120 -0.9195  0.2717
  171DOPC   O3220801   3.449   2.569  13.615  0.0650 -0.2121  0.2429
  171DOPC   C3220802   3.245   2.583  13.721  0.2864  0.8871 -0.2259
  171DOPC   H2X20803   3.225   2.624  13.823  0.5655 -1.6424  0.9119
  171DOPC   H2Y20804   3.156   2.602  13.657  1.2227  0.9365 -1.5425
  171DOPC   C2320805   2.883   2.985  13.452  0.7506 -0.1321 -0.4271
  171DOPC   H3R20806   2.899   2.920  13.541 -1.4433  1.1972  1.0349
  171DOPC   H3S20807   2.820   2.926  13.382 -0.6140 -0.4319  1.0009
  171DOPC   C2420808   2.818   3.123  13.477 -0.1216 -0.2847  0.4384
  171DOPC   H4R20809   2.863   3.193  13.403  0.4069  0.3383  1.3322
  171DOPC   H4S20810   2.827   3.160  13.581  0.5555  0.6520  0.0606
  171DOPC   C2520811   2.667   3.123  13.455  0.0210  0.0287  0.0898
  171DOPC   H5R20812   2.639   3.063  13.365  0.4683 -1.2177  0.7564
  171DOPC   H5S20813   2.620   3.223  13.447 -2.3852 -1.0475 -0.2894
  171DOPC   C2620814   2.573   3.056  13.567  0.4081 -0.5380  0.0619
  171DOPC   H6R20815   2.572   3.129  13.650 -1.6152  0.7481 -1.0123
  171DOPC   H6S20816   2.618   2.959  13.595 -0.9662 -0.8643  1.2398
  171DOPC   C2720817   2.429   3.034  13.508  0.0464  0.5847  0.3765
  171DOPC   H7R20818   2.449   2.976  13.416  0.5228 -0.6558  1.2351
  171DOPC   H7S20819   2.400   3.137  13.480  0.8517  0.8931  0.6443
  171DOPC   C2820820   2.334   2.956  13.603  0.5681  0.3401 -0.2731
  171DOPC   H8R20821   2.344   2.997  13.706 -0.6880 -0.6136  0.2583
  171DOPC   H8S20822   2.359   2.848  13.615 -0.4619  0.1538  0.3427
  171DOPC   C2920823   2.193   2.986  13.563  0.5978  0.1783  0.3537
  171DOPC   H9R20824   2.183   2.973  13.454 -1.0178  2.2878  0.1792
  171DOPC  C21020825   2.083   3.036  13.625 -0.1377  0.0988 -0.4264
  171DOPC  H10R20826   1.988   3.041  13.570  0.1973  0.2260 -0.9998
  171DOPC  C21120827   2.063   3.055  13.773 -0.7686 -0.5374 -0.0342
  171DOPC  H11R20828   1.983   3.129  13.797 -0.9079 -0.5212 -0.5267
  171DOPC  H11S20829   2.154   3.096  13.822 -0.7277  1.1548 -1.4173
  171DOPC  C21220830   2.018   2.932  13.858  0.4693 -0.1830  0.7207
  171DOPC  H12R20831   2.067   2.839  13.821 -0.0470  0.0366 -0.5773
  171DOPC  H12S20832   1.909   2.913  13.842  1.2443 -2.5078 -3.0416
  171DOPC  C21320833   2.044   2.958  14.014  0.4339  0.8686 -0.1831
  171DOPC  H13R20834   1.982   3.046  14.040 -0.0173  0.9044 -1.3448
  171DOPC  H13S20835   2.155   2.967  14.021  0.6715 -1.6757  0.1072
  171DOPC  C21420836   1.996   2.836  14.104  0.3305  0.4728 -0.4500
  171DOPC  H14R20837   2.041   2.741  14.070  0.3258 -0.7520  2.6301
  171DOPC  H14S20838   1.887   2.830  14.081  0.4933 -1.9100 -0.7822
  171DOPC  C21520839   2.011   2.858  14.250  0.2603  0.1982  0.1034
  171DOPC  H15R20840   1.961   2.778  14.310 -0.4537 -0.0506 -0.7905
  171DOPC  H15S20841   1.955   2.952  14.272  0.5032 -0.2633  3.1468
  171DOPC  C21620842   2.151   2.887  14.297  0.1365  0.5713 -0.9253
  171DOPC  H16R20843   2.144   2.927  14.401 -1.3241  0.6776 -1.0457
  171DOPC  H16S20844   2.189   2.973  14.237 -1.2770  0.3437 -2.2239
  171DOPC  C21720845   2.248   2.769  14.304 -0.8001  0.1600  0.1227
  171DOPC  H17R20846   2.271   2.733  14.201  2.2363 -0.2253  0.8358
  171DOPC  H17S20847   2.200   2.697  14.373 -1.1062 -1.3741 -1.6080
  171DOPC  C21820848   2.386   2.816  14.361  0.1657  0.2266  0.2410
  171DOPC  H18R20849   2.442   2.725  14.394 -0.9633 -0.1796  1.1010
  171DOPC  H18S20850   2.377   2.865  14.460  0.6690  0.0359  0.3817
  171DOPC  H18T20851   2.452   2.871  14.291  1.8950 -1.0197  0.8068
  171DOPC   C3320852   3.257   2.430  13.748  0.1308  0.1027 -0.3363
  171DOPC   H3X20853   3.353   2.396  13.794 -1.3826 -0.2882  2.7802
  171DOPC   H3Y20854   3.250   2.373  13.653 -2.8577 -2.0619  1.0374
  171DOPC   C3420855   3.139   2.389  13.833 -0.4567 -0.7446  0.0094
  171DOPC   H4X20856   3.110   2.282  13.822  0.0467 -0.9315  0.4484
  171DOPC   H4Y20857   3.048   2.443  13.799  0.9744  1.4990 -0.4524
  171DOPC   C3520858   3.157   2.411  13.983 -0.3513 -0.0491  0.1235
  171DOPC   H5X20859   3.161   2.520  14.003 -0.3037 -0.0838  0.2996
  171DOPC   H5Y20860   3.256   2.366  14.004 -0.0654  0.7367  0.4982
  171DOPC   C3620861   3.053   2.345  14.067 -0.6012 -0.6498 -0.4760
  171DOPC   H6X20862   2.951   2.357  14.025 -0.3187  1.2269 -0.7085
  171DOPC   H6Y20863   3.068   2.236  14.084 -1.8356 -0.3653  3.3934
  171DOPC   C3720864   3.051   2.389  14.216  0.1165 -0.2206  0.3233
  171DOPC   H7X20865   3.116   2.332  14.286  1.2136  1.4520  0.7195
  171DOPC   H7Y20866   3.103   2.487  14.213  0.3046 -0.3209  0.3518
  171DOPC   C3820867   2.906   2.400  14.268 -0.9355  0.1237  0.2372
  171DOPC   H8X20868   2.866   2.297  14.274  1.7886 -1.0308  0.1750
  171DOPC   H8Y20869   2.836   2.461  14.207  0.2644  2.9626  1.5151
  171DOPC   C3920870   2.925   2.452  14.410  0.1507  0.0205  0.5328
  171DOPC   H9X20871   2.970   2.381  14.480  0.6961 -1.7264 -1.4789
  171DOPC  C31020872   2.904   2.575  14.458  0.9079  0.0866 -0.4545
  171DOPC  H10X20873   2.936   2.595  14.562  1.6881 -0.1683 -0.6404
  171DOPC  C31120874   2.841   2.698  14.396 -0.6240  0.2812  0.9334
  171DOPC  H11X20875   2.792   2.765  14.469 -1.5751 -0.5703  1.0978
  171DOPC  H11Y20876   2.755   2.671  14.331 -0.8849 -1.4977  1.9313
  171DOPC  C31220877   2.943   2.786  14.328 -0.3095  0.2182  0.3081
  171DOPC  H12X20878   3.010   2.729  14.260  1.6617  2.2027  0.5024
  171DOPC  H12Y20879   3.014   2.817  14.407  0.2621  0.6974 -0.3787
  171DOPC  C31320880   2.875   2.909  14.267 -0.2798 -0.4035  0.5323
  171DOPC  H13X20881   2.806   2.953  14.343  0.9831  0.1649  1.3745
  171DOPC  H13Y20882   2.938   2.999  14.253  0.6972 -1.4096 -2.2349
  171DOPC  C31420883   2.805   2.884  14.133 -0.6367  0.4244 -0.1359
  171DOPC  H14X20884   2.720   2.816  14.155 -0.1682 -0.5838 -1.3801
  171DOPC  H14Y20885   2.768   2.985  14.105  1.9339  1.1745 -1.1530
  171DOPC  C31520886   2.890   2.828  14.018 -0.2956 -0.3666  0.0666
  171DOPC  H15X20887   2.814   2.805  13.940 -1.9030 -0.8595  1.7152
  171DOPC  H15Y20888   2.932   2.732  14.054  0.7990  0.2017  0.3495
  171DOPC  C31620889   2.999   2.928  13.984  0.4294  0.1130 -0.0967
  171DOPC  H16X20890   3.058   2.958  14.073 -2.1104  2.0614  1.0568
  171DOPC  H16Y20891   3.065   2.882  13.908 -0.5167 -1.8272  0.2045
  171DOPC  C31720892   2.936   3.050  13.911 -0.3216  0.2317  0.0033
  171DOPC  H17X20893   2.839   3.025  13.863  0.1808  0.6478 -1.2684
  171DOPC  H17Y20894   2.906   3.119  13.993  2.0526  1.3705 -0.0137
  171DOPC  C31820895   3.019   3.104  13.806 -0.1264  0.4206 -0.4020
  171DOPC  H18X20896   3.129   3.091  13.821 -0.2235 -1.3958 -0.9526
  171DOPC  H18Y20897   2.988   3.038  13.721  1.3224 -1.2502  0.2935
  171DOPC  H18Z20898   2.988   3.210  13.806 -0.2936  0.3791  0.6102
  172DOPC     N20899   3.094   3.151  12.865 -0.6031 -0.2141  0.0507
  172DOPC   C1220900   2.992   3.052  12.917  0.2198  0.3487  0.0220
  172DOPC  H12A20901   3.041   2.973  12.972  0.5293 -0.1297 -0.9148
  172DOPC  H12B20902   2.954   3.002  12.830  0.7201 -1.2546  0.6790
  172DOPC   C1320903   3.131   3.233  12.973 -0.0629 -0.4549 -0.5523
  172DOPC  H13A20904   3.181   3.323  12.941 -0.5671  0.1178  0.2239
  172DOPC  H13B20905   3.051   3.265  13.037  0.2288 -0.3007 -0.2588
  172DOPC  H13C20906   3.203   3.189  13.041 -0.3716  1.3808  1.0279
  172DOPC   C1420907   3.045   3.234  12.755  0.2477 -0.4362  0.1877
  172DOPC  H14A20908   2.955   3.278  12.793  2.1066  2.2509  1.8354
  172DOPC  H14B20909   3.110   3.319  12.745  1.6519 -1.4017  0.6967
  172DOPC  H14C20910   3.045   3.179  12.662  1.0981  1.4047 -0.9569
  172DOPC   C1520911   3.219   3.078  12.811  0.1072  0.2935  0.0103
  172DOPC  H15A20912   3.297   3.150  12.795 -1.1084  1.3632 -1.3724
  172DOPC  H15B20913   3.192   3.019  12.724  0.1270 -0.1148  0.2782
  172DOPC  H15C20914   3.262   3.012  12.885 -0.1231  2.1845  1.9264
  172DOPC   C1120915   2.867   3.104  12.985  0.1717 -0.3540  0.1088
  172DOPC  H11A20916   2.791   3.029  13.018 -0.0535  0.1869  0.8525
  172DOPC  H11B20917   2.899   3.154  13.079 -2.1160  1.8534 -0.1774
  172DOPC     P20918   2.754   3.350  12.974 -0.1432 -0.4453 -0.3269
  172DOPC   O1320919   2.625   3.337  13.048 -0.1130  0.0158 -0.2844
  172DOPC   O1420920   2.742   3.450  12.865 -0.9700  0.2585 -0.7419
  172DOPC   O1220921   2.796   3.207  12.918 -0.3200  0.6019 -0.0797
  172DOPC   O1120922   2.868   3.381  13.075  0.6100  0.2544  0.2902
  172DOPC    C120923   2.945   3.504  13.086  0.8811  0.2455  1.3653
  172DOPC    HA20924   2.879   3.586  13.049  2.8026  0.7896 -1.1582
  172DOPC    HB20925   3.027   3.506  13.011  1.5421 -0.4101  2.0501
  172DOPC    C220926   3.004   3.531  13.221 -0.5025 -0.5914  0.2316
  172DOPC    HS20927   3.033   3.638  13.231 -2.2134  0.0358 -1.1040
  172DOPC   O2120928   3.120   3.448  13.241 -0.1860  0.5014 -0.5043
  172DOPC   C2120929   3.217   3.483  13.321  0.2574  0.1013  0.0346
  172DOPC   O2220930   3.241   3.597  13.355  0.0131 -0.2185 -0.4382
  172DOPC   C2220931   3.306   3.364  13.370  0.7611  0.3314 -0.1427
  172DOPC   H2R20932   3.407   3.381  13.327  1.2585  2.1768  1.5736
  172DOPC   H2S20933   3.266   3.268  13.330  1.6161  0.5938 -1.6662
  172DOPC    C320934   2.910   3.510  13.341  0.8114  0.5351 -0.8386
  172DOPC    HX20935   2.850   3.419  13.319 -2.2544  1.9843  0.9041
  172DOPC    HY20936   2.833   3.589  13.332  0.2625  0.0006 -0.9539
  172DOPC   O3120937   2.965   3.500  13.477  0.1763  0.2058  0.4457
  172DOPC   C3120938   2.879   3.485  13.575  0.3033 -0.2164  0.7849
  172DOPC   O3220939   2.755   3.482  13.561  0.0974  0.1388 -0.0431
  172DOPC   C3220940   2.955   3.493  13.710  0.0754  0.0752  0.7218
  172DOPC   H2X20941   3.015   3.400  13.721 -1.8047 -1.4194 -0.9443
  172DOPC   H2Y20942   3.032   3.573  13.707  1.3001 -1.0818 -0.1869
  172DOPC   C2320943   3.302   3.350  13.525  0.7231  0.0241 -0.4475
  172DOPC   H3R20944   3.199   3.365  13.562  0.7674 -1.5962  0.4313
  172DOPC   H3S20945   3.355   3.433  13.577  0.5701 -0.3532  0.3170
  172DOPC   C2420946   3.351   3.213  13.575 -0.8238 -0.6811  0.2179
  172DOPC   H4R20947   3.435   3.182  13.510 -2.4543  1.4004 -3.1396
  172DOPC   H4S20948   3.262   3.148  13.562 -1.4980 -0.2067  2.0873
  172DOPC   C2520949   3.380   3.207  13.723  0.3493  0.1844 -0.1448
  172DOPC   H5R20950   3.289   3.236  13.779  0.6219 -0.4429  0.6344
  172DOPC   H5S20951   3.457   3.282  13.753 -0.1003 -0.8502  4.1894
  172DOPC   C2620952   3.415   3.072  13.779  0.3440  0.7237 -0.2154
  172DOPC   H6R20953   3.498   3.025  13.721 -0.4693 -1.5130  0.3300
  172DOPC   H6S20954   3.329   3.005  13.761  1.0496  0.4236 -2.9750
  172DOPC   C2720955   3.458   3.069  13.926  0.0739  0.9380  0.2620
  172DOPC   H7R20956   3.386   3.129  13.985  1.7371  1.4208  1.8887
  172DOPC   H7S20957   3.560   3.113  13.929 -0.1142  1.3625  0.5293
  172DOPC   C2820958   3.470   2.924  13.985 -0.8883  0.5956 -0.5891
  172DOPC   H8R20959   3.525   2.931  14.082 -1.4739  2.4050 -0.3439
  172DOPC   H8S20960   3.540   2.869  13.919 -0.4872  0.1746  0.1643
  172DOPC   C2920961   3.341   2.835  13.988 -0.2456 -0.2198 -0.1276
  172DOPC   H9R20962   3.296   2.825  13.888 -1.0025  2.5452 -0.1289
  172DOPC  C21020963   3.291   2.787  14.103  0.3070  0.2495 -0.5574
  172DOPC  H10R20964   3.214   2.708  14.100  1.6940 -1.1571 -3.1054
  172DOPC  C21120965   3.352   2.814  14.239  0.5338 -0.0456 -0.5394
  172DOPC  H11R20966   3.461   2.794  14.231  0.2000 -1.1413 -3.5745
  172DOPC  H11S20967   3.312   2.730  14.301  0.9834 -0.9071 -1.3849
  172DOPC  C21220968   3.319   2.960  14.288 -0.0595  0.4385  0.4654
  172DOPC  H12R20969   3.209   2.972  14.280 -0.2047 -0.1558  1.3747
  172DOPC  H12S20970   3.366   3.038  14.225  1.0527  0.2660  1.0407
  172DOPC  C21320971   3.365   2.969  14.435  0.5788 -0.3195  0.4353
  172DOPC  H13R20972   3.476   2.966  14.438  0.5804  0.0073  0.7810
  172DOPC  H13S20973   3.323   2.879  14.486 -0.3847  0.5467  1.1956
  172DOPC  C21420974   3.313   3.086  14.507  0.5017  0.2395  0.3175
  172DOPC  H14R20975   3.209   3.049  14.517  1.0672 -1.5525  0.0342
  172DOPC  H14S20976   3.317   3.169  14.434 -0.7102 -0.0100 -0.0665
  172DOPC  C21520977   3.389   3.119  14.633 -0.1299 -0.4772 -0.2296
  172DOPC  H15R20978   3.486   3.166  14.608 -0.3496  0.0808 -0.0504
  172DOPC  H15S20979   3.410   3.025  14.688 -0.7028 -1.6035 -1.8658
  172DOPC  C21620980   3.307   3.214  14.724  0.1621 -0.3795 -0.0085
  172DOPC  H16R20981   3.278   3.298  14.658  0.6504 -0.7792 -0.7394
  172DOPC  H16S20982   3.380   3.259  14.794  0.2916  0.0145 -0.3953
  172DOPC  C21720983   3.177   3.161  14.794 -0.4108  0.5064  0.6564
  172DOPC  H17R20984   3.210   3.080  14.862  0.3498  0.8760  0.7281
  172DOPC  H17S20985   3.111   3.109  14.721  2.1063 -1.2353 -0.5089
  172DOPC  C21820986   3.109   3.273  14.867  0.2162 -0.2353  0.2665
  172DOPC  H18R20987   3.022   3.239  14.927 -0.9445 -0.4750 -1.4684
  172DOPC  H18S20988   3.068   3.350  14.798 -1.0608 -0.5009  0.6890
  172DOPC  H18T20989   3.180   3.329  14.931 -0.8342  2.6275 -0.9015
  172DOPC   C3320990   2.858   3.509  13.826 -0.1621  0.1979 -0.3293
  172DOPC   H3X20991   2.795   3.417  13.829 -1.1511  0.9004  1.1227
  172DOPC   H3Y20992   2.784   3.589  13.803  0.3638  1.2265  1.4247
  172DOPC   C3420993   2.912   3.534  13.962  0.3163  0.5938 -0.2244
  172DOPC   H4X20994   2.837   3.593  14.018  1.8733  2.5616 -0.1033
  172DOPC   H4Y20995   3.003   3.595  13.943 -0.3778  1.2643 -1.5351
  172DOPC   C3520996   2.970   3.410  14.022 -0.2625 -0.3603 -0.4133
  172DOPC   H5X20997   3.071   3.387  13.980  1.9484  2.2877  2.9012
  172DOPC   H5Y20998   2.899   3.327  14.005  0.7469 -1.3487  0.0662
  172DOPC   C3620999   2.993   3.417  14.169 -0.0390  0.5732 -1.1347
  172DOPC   H6X21000   3.083   3.475  14.199  2.4362 -3.3393 -0.1426
  172DOPC   H6Y21001   2.903   3.461  14.218  1.5351  1.2704  1.3329
  172DOPC   C3721002   3.008   3.280  14.240 -0.1632  0.0404 -0.4681
  172DOPC   H7X21003   2.919   3.220  14.212 -0.0056  1.6906 -5.4923
  172DOPC   H7Y21004   3.096   3.231  14.194  1.4952  3.2462 -0.9598
  172DOPC   C3821005   3.039   3.289  14.393 -0.1553 -0.7272  0.4963
  172DOPC   H8X21006   3.136   3.343  14.400 -0.1008 -0.6951 -0.4293
  172DOPC   H8Y21007   3.076   3.195  14.441  2.7800  1.0777  2.1165
  172DOPC   C3921008   2.959   3.369  14.497  0.5830 -0.6857 -0.3351
  172DOPC   H9X21009   2.979   3.476  14.483  1.5602 -0.6374  1.2419
  172DOPC  C31021010   2.862   3.323  14.579  0.5239  0.0650 -0.4618
  172DOPC  H10X21011   2.819   3.388  14.656 -0.3267  2.0668 -2.5311
  172DOPC  C31121012   2.817   3.181  14.594 -0.0863  1.2385  0.1134
  172DOPC  H11X21013   2.905   3.114  14.601 -1.2886 -0.3736  0.3810
  172DOPC  H11Y21014   2.763   3.150  14.502 -0.3827  0.0167  0.6905
  172DOPC  C31221015   2.735   3.165  14.720  0.9908  0.0498 -0.0041
  172DOPC  H12X21016   2.657   3.242  14.736  0.2086 -0.7450  0.0735
  172DOPC  H12Y21017   2.798   3.168  14.811  2.3898  1.7902 -0.9557
  172DOPC  C31321018   2.677   3.025  14.733  0.7222 -0.1056 -0.0690
  172DOPC  H13X21019   2.591   3.012  14.663  1.0244  0.0739 -0.4751
  172DOPC  H13Y21020   2.749   2.942  14.720  0.6174 -0.5038  1.6546
  172DOPC  C31421021   2.622   2.986  14.868 -0.6753 -0.6324 -0.0739
  172DOPC  H14X21022   2.699   2.982  14.948 -3.0385  0.1190  2.3614
  172DOPC  H14Y21023   2.560   3.072  14.900 -1.2279 -0.9564 -0.2498
  172DOPC  C31521024   2.528   2.870  14.870  0.0285  0.3211  0.3380
  172DOPC  H15X21025   2.596   2.788  14.838 -0.9300  0.0270 -1.0723
  172DOPC  H15Y21026   2.457   2.881  14.785  1.8101 -2.0725 -1.6247
  172DOPC  C31621027   2.461   2.839  15.001 -0.5000 -0.1713 -0.9836
  172DOPC  H16X21028   2.543   2.825  15.075 -1.3371  0.5145  0.1068
  172DOPC  H16Y21029   2.393   2.917  15.043 -0.0723 -0.1267 -0.3545
  172DOPC  C31721030   2.390   2.708  14.991 -0.3372  0.1266  0.5976
  172DOPC  H17X21031   2.470   2.635  14.965  1.2781  2.4915 -1.5750
  172DOPC  H17Y21032   2.351   2.684  15.092 -1.6711  0.9577  0.3000
  172DOPC  C31821033   2.269   2.711  14.898 -0.6406  0.2638  0.0348
  172DOPC  H18X21034   2.197   2.633  14.931  2.3408 -1.8844  1.9772
  172DOPC  H18Y21035   2.227   2.814  14.902  0.9657  1.0098 -0.9089
  172DOPC  H18Z21036   2.283   2.683  14.791  0.7280 -1.5257  0.6251
  173DOPC     N21037   1.194   1.373  12.928  0.5420  0.0765  0.2417
  173DOPC   C1221038   1.307   1.356  13.020 -0.5935  0.5976  0.3777
  173DOPC  H12A21039   1.402   1.347  12.971 -0.2827 -3.0729  1.3276
  173DOPC  H12B21040   1.295   1.259  13.065  2.3312  0.3562  0.7657
  173DOPC   C1321041   1.212   1.278  12.815  0.6933 -0.7627  0.0840
  173DOPC  H13A21042   1.208   1.175  12.845 -0.8513 -0.6092  0.5061
  173DOPC  H13B21043   1.129   1.280  12.746  1.3310 -2.1675 -0.7681
  173DOPC  H13C21044   1.308   1.296  12.768  0.8384 -0.0859  0.6139
  173DOPC   C1421045   1.181   1.511  12.878  0.3764 -0.2394 -0.0579
  173DOPC  H14A21046   1.280   1.537  12.844  0.3391  1.8936  1.2523
  173DOPC  H14B21047   1.107   1.518  12.799 -0.7103  1.9583  1.0533
  173DOPC  H14C21048   1.153   1.583  12.954  1.0816 -1.0186  0.9594
  173DOPC   C1521049   1.058   1.340  12.994  0.4928 -0.4168 -0.6779
  173DOPC  H15A21050   0.976   1.349  12.924 -1.3666  1.5366  1.5707
  173DOPC  H15B21051   1.040   1.410  13.074  1.7129 -0.5699 -0.2442
  173DOPC  H15C21052   1.063   1.242  13.038  2.9164  0.5105  1.3510
  173DOPC   C1121053   1.322   1.451  13.136  0.5391 -0.4173  0.0562
  173DOPC  H11A21054   1.408   1.405  13.188 -0.0488 -0.6891  0.7960
  173DOPC  H11B21055   1.349   1.555  13.107  2.2200 -0.6079  0.8206
  173DOPC     P21056   1.196   1.343  13.334 -0.3383 -0.0099 -0.3066
  173DOPC   O1321057   1.246   1.217  13.279  0.0814 -0.1586  0.6483
  173DOPC   O1421058   1.064   1.338  13.395  0.1801 -0.4030  0.5256
  173DOPC   O1221059   1.204   1.452  13.216  0.1166  0.0464  0.1335
  173DOPC   O1121060   1.300   1.392  13.436 -1.0117  0.2736  0.1174
  173DOPC    C121061   1.332   1.530  13.457  0.2332  0.3692  0.3448
  173DOPC    HA21062   1.266   1.598  13.400  1.2218 -0.0038 -1.3340
  173DOPC    HB21063   1.436   1.551  13.424  0.1650 -0.7170 -0.6105
  173DOPC    C221064   1.312   1.580  13.609 -0.1148  0.7505 -0.8748
  173DOPC    HS21065   1.335   1.689  13.603  0.3286  0.9232  2.0716
  173DOPC   O2121066   1.401   1.512  13.700 -0.4322  0.3237  0.1709
  173DOPC   C2121067   1.532   1.539  13.679 -0.9330  0.2322 -0.7253
  173DOPC   O2221068   1.582   1.625  13.606 -0.1756 -0.2987 -0.3450
  173DOPC   C2221069   1.611   1.453  13.790 -0.2419  0.4741  0.6216
  173DOPC   H2R21070   1.691   1.413  13.724  0.1996  1.6518  0.4349
  173DOPC   H2S21071   1.537   1.373  13.816  1.6313 -1.0191  1.6109
  173DOPC    C321072   1.165   1.560  13.646  0.2111 -0.0958 -0.4068
  173DOPC    HX21073   1.147   1.456  13.611  0.1338  0.2452 -1.4020
  173DOPC    HY21074   1.097   1.625  13.587  0.8476  1.2762  0.3224
  173DOPC   O3121075   1.151   1.573  13.786 -0.0447 -0.3534  0.7250
  173DOPC   C3121076   1.158   1.693  13.839 -0.4189 -0.2939 -0.2663
  173DOPC   O3221077   1.162   1.793  13.771 -0.3173  0.3292 -0.2164
  173DOPC   C3221078   1.122   1.693  13.990  0.7236  0.4162 -0.0201
  173DOPC   H2X21079   1.030   1.634  14.003  0.0077  1.3384 -0.7096
  173DOPC   H2Y21080   1.201   1.655  14.058  0.1083 -0.1170  0.4067
  173DOPC   C2321081   1.652   1.523  13.922 -0.1041 -0.0871  0.4360
  173DOPC   H3R21082   1.562   1.582  13.948 -0.0070  0.3981 -0.2982
  173DOPC   H3S21083   1.740   1.591  13.915 -0.4521  0.2709 -0.5668
  173DOPC   C2421084   1.680   1.426  14.033  0.2549  0.1747  0.3812
  173DOPC   H4R21085   1.770   1.365  14.009  0.6972  0.6419  0.8206
  173DOPC   H4S21086   1.590   1.361  14.039  0.1325  0.4993  3.0690
  173DOPC   C2521087   1.703   1.504  14.167  0.1072  0.4499  0.0674
  173DOPC   H5R21088   1.604   1.548  14.192 -1.1629 -0.7914 -2.4598
  173DOPC   H5S21089   1.773   1.586  14.139 -1.3237  1.8174  0.3555
  173DOPC   C2621090   1.748   1.413  14.281 -0.1216 -0.2766  0.5182
  173DOPC   H6R21091   1.854   1.383  14.267  0.2876  0.8510  1.0525
  173DOPC   H6S21092   1.691   1.318  14.290  2.0689 -1.5437  2.0377
  173DOPC   C2721093   1.749   1.478  14.419  0.1235 -0.9336 -0.0802
  173DOPC   H7R21094   1.790   1.404  14.491 -1.8258  0.8440  3.1051
  173DOPC   H7S21095   1.644   1.504  14.447 -0.0894 -0.7903 -0.9886
  173DOPC   C2821096   1.827   1.612  14.418  0.2054  0.4093  0.1208
  173DOPC   H8R21097   1.800   1.667  14.511 -3.3418  2.7251 -2.0380
  173DOPC   H8S21098   1.782   1.678  14.340  0.8480  2.0948  1.1111
  173DOPC   C2921099   1.978   1.598  14.408  0.0848  0.1446  1.3050
  173DOPC   H9R21100   2.021   1.538  14.490  0.2846 -1.4987  0.0489
  173DOPC  C21021101   2.061   1.664  14.320 -0.2455  0.5672  0.9161
  173DOPC  H10R21102   2.168   1.659  14.342  0.4993  2.3661 -1.8367
  173DOPC  C21121103   2.033   1.759  14.207  0.2441 -0.5605  0.2461
  173DOPC  H11R21104   2.086   1.855  14.228  1.3125 -1.1538  0.3572
  173DOPC  H11S21105   1.924   1.774  14.195  0.2205  0.5247  1.5800
  173DOPC  C21221106   2.082   1.723  14.063  0.2746  0.0223 -0.1649
  173DOPC  H12R21107   2.040   1.626  14.029  1.3314 -0.5860  0.2469
  173DOPC  H12S21108   2.190   1.705  14.047 -0.5210 -2.7969 -3.4660
  173DOPC  C21321109   2.041   1.819  13.948 -0.2832  0.3559  0.1746
  173DOPC  H13R21110   2.074   1.921  13.977 -1.1949  0.4246  1.0131
  173DOPC  H13S21111   1.932   1.837  13.940 -0.0114  1.5510 -1.2794
  173DOPC  C21421112   2.110   1.777  13.815 -0.1527  0.1195  0.1782
  173DOPC  H14R21113   2.205   1.727  13.844  1.1941  0.1710 -3.5460
  173DOPC  H14S21114   2.125   1.872  13.760  0.0254 -0.0828 -0.1277
  173DOPC  C21521115   2.024   1.683  13.725 -0.2285  0.1472 -0.3026
  173DOPC  H15R21116   1.921   1.677  13.765  0.7950  1.2935  2.8677
  173DOPC  H15S21117   2.062   1.580  13.741  0.0845  0.4222  0.8624
  173DOPC  C21621118   2.039   1.722  13.575  0.2275 -0.0261 -0.1728
  173DOPC  H16R21119   2.024   1.630  13.513  2.0640 -1.3885  1.2961
  173DOPC  H16S21120   2.148   1.733  13.560  0.6199 -1.8008  1.1245
  173DOPC  C21721121   1.962   1.841  13.528  0.0468  0.2494  0.2799
  173DOPC  H17R21122   1.965   1.928  13.596 -0.9873  0.5785 -0.0765
  173DOPC  H17S21123   1.853   1.817  13.524  0.1997 -0.3733 -0.4897
  173DOPC  C21821124   1.989   1.895  13.390  0.2126 -0.1116  0.0059
  173DOPC  H18R21125   1.966   2.003  13.390 -3.1472 -0.7143  1.2760
  173DOPC  H18S21126   1.927   1.837  13.318 -0.6055  1.2411 -0.4085
  173DOPC  H18T21127   2.098   1.882  13.369 -0.0838  0.1585 -1.8938
  173DOPC   C3321128   1.073   1.837  14.030 -0.4568 -0.1990 -0.5315
  173DOPC   H3X21129   0.989   1.873  13.967 -1.3272 -0.1626  0.6255
  173DOPC   H3Y21130   1.147   1.920  14.035 -1.6020  0.9056 -1.2602
  173DOPC   C3421131   1.005   1.832  14.172 -0.2838 -0.0537  0.2922
  173DOPC   H4X21132   1.076   1.780  14.241 -0.9993 -1.7058 -0.1733
  173DOPC   H4Y21133   0.914   1.769  14.165 -1.0886  0.9568  1.2964
  173DOPC   C3521134   0.954   1.966  14.220 -0.4960 -0.1073 -0.0647
  173DOPC   H5X21135   0.881   2.006  14.147 -0.9480  0.6087  0.7651
  173DOPC   H5Y21136   1.042   2.031  14.241  1.5839 -1.9233 -2.3947
  173DOPC   C3621137   0.855   1.945  14.340 -0.4073 -0.0852 -0.0881
  173DOPC   H6X21138   0.801   2.041  14.353  0.7705  0.6730 -0.6395
  173DOPC   H6Y21139   0.783   1.868  14.304  0.2977 -1.5523  1.5118
  173DOPC   C3721140   0.932   1.903  14.465  0.2186  0.3076 -0.0615
  173DOPC   H7X21141   0.946   1.795  14.448 -1.1105 -0.0362  0.8960
  173DOPC   H7Y21142   1.035   1.944  14.470  0.9025 -1.4411  0.5911
  173DOPC   C3821143   0.872   1.932  14.600  0.4007  0.3376 -0.0828
  173DOPC   H8X21144   0.761   1.932  14.606  0.3805 -1.1525 -0.2077
  173DOPC   H8Y21145   0.893   2.039  14.624 -0.5233  0.3064  0.9453
  173DOPC   C3921146   0.937   1.833  14.698  0.2641 -0.8468 -0.3109
  173DOPC   H9X21147   0.877   1.741  14.698 -1.5352  0.2620 -0.2847
  173DOPC  C31021148   1.058   1.838  14.763  0.1045 -0.5871 -0.0167
  173DOPC  H10X21149   1.079   1.760  14.837 -0.0198 -1.0708 -0.4874
  173DOPC  C31121150   1.154   1.953  14.758  0.0408  0.2246  0.3480
  173DOPC  H11X21151   1.124   2.023  14.677  0.1923  1.4852  1.3501
  173DOPC  H11Y21152   1.257   1.921  14.730  0.6604  1.6315  0.9188
  173DOPC  C31221153   1.154   2.025  14.893 -0.1016 -1.2950  0.0356
  173DOPC  H12X21154   1.052   2.061  14.918  0.5222  1.9210 -1.5210
  173DOPC  H12Y21155   1.210   2.121  14.891 -0.4026 -1.1286 -0.7839
  173DOPC  C31321156   1.213   1.943  15.013 -0.2589 -0.0753 -0.6439
  173DOPC  H13X21157   1.156   1.856  15.052  0.1029  1.3377  3.5412
  173DOPC  H13Y21158   1.317   1.917  14.982  0.8291  0.6820  2.1068
  173DOPC  C31421159   1.230   2.025  15.143  0.6689 -0.0869  0.9235
  173DOPC  H14X21160   1.288   2.118  15.126  0.7559  0.1732  2.5047
  173DOPC  H14Y21161   1.128   2.061  15.169  0.1649 -1.3831  0.8059
  173DOPC  C31521162   1.293   1.946  15.261 -0.1860  0.1954 -0.0946
  173DOPC  H15X21163   1.306   2.015  15.346  0.8291  0.8894 -0.7960
  173DOPC  H15Y21164   1.392   1.913  15.223  0.4976  1.6387  0.3429
  173DOPC  C31621165   1.211   1.820  15.313  0.6797  0.0900 -0.2872
  173DOPC  H16X21166   1.119   1.841  15.370  2.0524 -0.8534  2.4694
  173DOPC  H16Y21167   1.184   1.754  15.228  0.2604  0.2994 -0.3190
  173DOPC  C31721168   1.285   1.744  15.413  0.8266  0.2162  0.2698
  173DOPC  H17X21169   1.391   1.733  15.382  0.9967  0.8245  0.6198
  173DOPC  H17Y21170   1.290   1.791  15.514 -2.2627  1.1424  0.0778
  173DOPC  C31821171   1.236   1.599  15.440  0.2619 -0.7336  0.0481
  173DOPC  H18X21172   1.219   1.554  15.340  0.1712 -0.0581 -0.2441
  173DOPC  H18Y21173   1.316   1.539  15.489 -1.4394 -1.9253  1.5061
  173DOPC  H18Z21174   1.139   1.610  15.494 -0.3461  1.8918 -1.4184
  174DOPC     N21175   3.597   2.120  12.571  0.4369 -0.2919  0.2700
  174DOPC   C1221176   3.468   2.061  12.624 -0.2341 -0.2582 -0.3185
  174DOPC  H12A21177   3.450   1.974  12.563  1.4570  1.1320 -3.0025
  174DOPC  H12B21178   3.382   2.123  12.608 -0.0977  0.5748  1.7975
  174DOPC   C1321179   3.713   2.033  12.602 -0.3037 -0.1732  0.5473
  174DOPC  H13A21180   3.703   1.940  12.548  0.7357  2.1557 -4.2102
  174DOPC  H13B21181   3.806   2.083  12.580 -1.3324  2.1917  1.1995
  174DOPC  H13C21182   3.707   2.015  12.708 -2.4335  3.2152  1.1343
  174DOPC   C1421183   3.631   2.251  12.636  0.4031 -0.0886 -0.0409
  174DOPC  H14A21184   3.727   2.287  12.602  0.5391  0.9242  1.3532
  174DOPC  H14B21185   3.554   2.325  12.619  1.0660  0.8302  0.8572
  174DOPC  H14C21186   3.634   2.236  12.743  0.8082 -2.1269 -0.2980
  174DOPC   C1521187   3.593   2.144  12.421  0.2266  0.1928 -0.4254
  174DOPC  H15A21188   3.503   2.197  12.393 -0.4676 -1.4578 -1.4412
  174DOPC  H15B21189   3.593   2.059  12.355  2.0589 -0.5623  0.4840
  174DOPC  H15C21190   3.677   2.209  12.400  0.8555  0.5013  2.5870
  174DOPC   C1121191   3.465   2.016  12.770 -1.2385  0.1028 -0.0520
  174DOPC  H11A21192   3.379   1.952  12.800  0.5581 -2.6618 -0.4504
  174DOPC  H11B21193   3.555   1.951  12.765 -1.9171 -0.9129  0.6100
  174DOPC     P21194   3.589   2.132  12.980 -0.0807  0.2033  0.0791
  174DOPC   O1321195   3.615   2.275  12.997 -0.5518 -0.1397 -0.3293
  174DOPC   O1421196   3.709   2.058  12.938 -0.0780 -0.3468 -0.4129
  174DOPC   O1221197   3.482   2.113  12.869  0.5364  0.0197 -0.2153
  174DOPC   O1121198   3.514   2.084  13.110 -0.4522 -0.9879  0.1313
  174DOPC    C121199   3.497   1.939  13.117 -0.0942 -0.9187 -0.2511
  174DOPC    HA21200   3.585   1.899  13.171  0.1256 -0.2378 -0.0891
  174DOPC    HB21201   3.473   1.891  13.019  0.5373 -0.0822 -0.8327
  174DOPC    C221202   3.386   1.897  13.212 -0.5820 -0.1065 -0.6132
  174DOPC    HS21203   3.296   1.956  13.184 -0.3855  2.1383  2.8923
  174DOPC   O2121204   3.423   1.923  13.353  0.7123  0.0634  1.0431
  174DOPC   C2121205   3.323   1.958  13.433 -0.4109 -0.2578  0.0530
  174DOPC   O2221206   3.210   1.990  13.398 -0.2363 -0.3381  0.3879
  174DOPC   C2221207   3.369   1.947  13.584  0.8135 -0.5227 -0.5354
  174DOPC   H2R21208   3.479   1.956  13.583  0.6967  1.4094 -1.6636
  174DOPC   H2S21209   3.341   1.844  13.614 -0.0365 -0.1822 -0.1049
  174DOPC    C321210   3.348   1.746  13.201 -0.0383  0.2487  0.3876
  174DOPC    HX21211   3.329   1.731  13.092 -0.5280 -0.5201  0.5686
  174DOPC    HY21212   3.252   1.734  13.255  0.5681  1.9543  1.9390
  174DOPC   O3121213   3.459   1.667  13.240  0.7324  0.0608  0.4874
  174DOPC   C3121214   3.434   1.583  13.339  0.2626 -0.9160  0.2629
  174DOPC   O3221215   3.323   1.562  13.389  0.0132  0.6636 -0.1363
  174DOPC   C3221216   3.565   1.524  13.394 -0.8472  0.0744 -0.0549
  174DOPC   H2X21217   3.601   1.449  13.321 -2.0079  0.1960 -0.7673
  174DOPC   H2Y21218   3.640   1.606  13.396 -1.8361  1.0167 -0.5461
  174DOPC   C2321219   3.293   2.043  13.683 -0.4622 -0.5691  0.3033
  174DOPC   H3R21220   3.187   2.060  13.656  0.2745  0.9468 -1.8612
  174DOPC   H3S21221   3.352   2.137  13.671 -0.2823 -0.6093  0.8341
  174DOPC   C2421222   3.295   2.000  13.834  0.2608 -0.5000  0.2703
  174DOPC   H4R21223   3.255   1.897  13.833 -1.9172  0.3115 -0.5803
  174DOPC   H4S21224   3.236   2.071  13.896  0.4806  0.2129 -0.3176
  174DOPC   C2521225   3.438   2.000  13.890  0.7281  0.3257 -0.5994
  174DOPC   H5R21226   3.487   2.099  13.884  1.2903 -0.0154 -2.9944
  174DOPC   H5S21227   3.509   1.934  13.836  0.3150 -0.9813  0.4202
  174DOPC   C2621228   3.430   1.956  14.045  0.6356 -0.1676  0.4953
  174DOPC   H6R21229   3.412   1.847  14.061  0.2425  0.1304  2.2991
  174DOPC   H6S21230   3.346   2.006  14.097  0.4901  0.0989  0.0154
  174DOPC   C2721231   3.553   2.000  14.129  0.4169 -0.0025  0.7255
  174DOPC   H7R21232   3.516   1.977  14.231  0.4176 -1.8907  0.3346
  174DOPC   H7S21233   3.557   2.111  14.120  1.1399 -0.0658  0.1431
  174DOPC   C2821234   3.685   1.938  14.091  0.3746 -0.2132 -0.0006
  174DOPC   H8R21235   3.708   1.955  13.984  2.9892 -1.1422  0.3412
  174DOPC   H8S21236   3.666   1.829  14.101 -1.1917  0.0747  0.4183
  174DOPC   C2921237   3.795   2.000  14.163  0.3078 -0.5701 -1.2237
  174DOPC   H9R21238   3.834   2.097  14.129 -0.9545 -0.3991 -2.2326
  174DOPC  C21021239   3.869   1.947  14.258 -0.0627  0.2094  0.0272
  174DOPC  H10R21240   3.948   2.010  14.300  0.8646  1.1845 -2.9558
  174DOPC  C21121241   3.847   1.804  14.307  0.0563  0.1520 -0.5777
  174DOPC  H11R21242   3.934   1.777  14.371 -0.5386 -2.6029 -0.8042
  174DOPC  H11S21243   3.842   1.726  14.227 -2.4793 -1.2742  0.8525
  174DOPC  C21221244   3.715   1.791  14.390  0.1158  0.2615 -0.0987
  174DOPC  H12R21245   3.714   1.681  14.406 -0.0323  0.3151  0.2660
  174DOPC  H12S21246   3.625   1.820  14.331 -0.0147 -1.2763 -0.7067
  174DOPC  C21321247   3.717   1.852  14.529  0.2238  0.0277  0.4817
  174DOPC  H13R21248   3.725   1.961  14.510 -0.5306  0.2001  1.1138
  174DOPC  H13S21249   3.810   1.816  14.578  2.5850  5.1264  0.3596
  174DOPC  C21421250   3.594   1.828  14.608  0.2808 -1.2129 -0.0445
  174DOPC  H14R21251   3.578   1.718  14.617  0.4563 -1.3707 -1.4014
  174DOPC  H14S21252   3.511   1.880  14.557  1.4510  0.0574 -0.7215
  174DOPC  C21521253   3.617   1.906  14.744 -0.1022  0.3116 -0.1036
  174DOPC  H15R21254   3.644   2.014  14.741 -0.2987  0.3542 -2.6825
  174DOPC  H15S21255   3.695   1.850  14.800 -0.7352  0.3507  0.8330
  174DOPC  C21621256   3.488   1.899  14.825 -0.1139  0.2670  0.4402
  174DOPC  H16R21257   3.441   1.803  14.794  2.3268 -1.0330  0.5180
  174DOPC  H16S21258   3.412   1.978  14.810 -1.7125 -1.7246 -3.4357
  174DOPC  C21721259   3.511   1.882  14.978 -0.5758 -0.2790  0.6272
  174DOPC  H17R21260   3.569   1.962  15.028 -1.3981  1.7005 -1.4274
  174DOPC  H17S21261   3.569   1.787  14.985 -2.0342 -1.1215  2.2552
  174DOPC  C21821262   3.387   1.873  15.068 -0.3509  0.4054  0.3526
  174DOPC  H18R21263   3.350   1.974  15.097 -0.3508  0.2590  0.8601
  174DOPC  H18S21264   3.401   1.822  15.165  0.6024 -0.0992 -0.0375
  174DOPC  H18T21265   3.309   1.819  15.010 -0.4648 -0.7567  1.5525
  174DOPC   C3321266   3.554   1.462  13.539  0.1244  0.6205 -0.0102
  174DOPC   H3X21267   3.623   1.377  13.556 -1.3609 -0.9992 -1.5676
  174DOPC   H3Y21268   3.455   1.412  13.548  0.2761 -0.0410 -1.5867
  174DOPC   C3421269   3.557   1.566  13.648 -0.2293 -0.5338 -0.0457
  174DOPC   H4X21270   3.466   1.629  13.643  0.6057  0.7530  0.6490
  174DOPC   H4Y21271   3.649   1.628  13.640 -1.5977  1.4707 -1.0918
  174DOPC   C3521272   3.576   1.501  13.782  0.1655 -0.0817  0.8824
  174DOPC   H5X21273   3.656   1.423  13.784  2.1866  1.8253 -0.4579
  174DOPC   H5Y21274   3.485   1.441  13.802  0.0948 -0.3629 -0.2225
  174DOPC   C3621275   3.605   1.596  13.893 -0.0141 -0.1781 -0.4718
  174DOPC   H6X21276   3.546   1.687  13.867  0.7529  0.1669 -1.0498
  174DOPC   H6Y21277   3.570   1.558  13.991  1.2258 -0.5527 -0.1506
  174DOPC   C3721278   3.751   1.621  13.903  0.3267  0.2093  0.2320
  174DOPC   H7X21279   3.793   1.629  13.800 -2.5354  0.1398 -1.0276
  174DOPC   H7Y21280   3.751   1.717  13.958 -2.3151  1.6310 -1.9772
  174DOPC   C3821281   3.840   1.534  13.991  0.1947 -0.5806 -0.1106
  174DOPC   H8X21282   3.835   1.428  13.956 -1.2984 -0.5656 -0.0071
  174DOPC   H8Y21283   3.789   1.545  14.089  0.6230 -0.7281  0.1326
  174DOPC   C3921284   3.988   1.572  14.002 -0.2334 -0.1060 -0.0433
  174DOPC   H9X21285   4.018   1.658  13.942  1.5446  0.3904  1.4756
  174DOPC  C31021286   4.084   1.511  14.076 -0.1473 -0.3246 -0.1946
  174DOPC  H10X21287   4.187   1.545  14.058 -1.0419  2.2309 -0.9438
  174DOPC  C31121288   4.063   1.401  14.184  0.4671  0.3720 -0.0900
  174DOPC  H11X21289   4.112   1.314  14.134  1.3813  0.7729  0.0942
  174DOPC  H11Y21290   3.955   1.374  14.188  0.8421 -1.1992  0.3212
  174DOPC  C31221291   4.121   1.430  14.327  0.0403 -0.0411  0.1113
  174DOPC  H12X21292   4.095   1.355  14.405 -3.1513  0.2162 -0.5859
  174DOPC  H12Y21293   4.078   1.526  14.362  0.6785  0.8790 -1.5129
  174DOPC  C31321294   4.275   1.433  14.341  0.3360 -0.1360  0.4498
  174DOPC  H13X21295   4.310   1.332  14.309 -2.5097 -0.3624 -2.5689
  174DOPC  H13Y21296   4.317   1.515  14.279 -0.3233  1.2471  1.7811
  174DOPC  C31421297   4.330   1.449  14.485 -0.3877  0.2941 -0.1919
  174DOPC  H14X21298   4.275   1.532  14.535 -0.6155 -0.9267  1.6823
  174DOPC  H14Y21299   4.323   1.360  14.552  1.7663 -0.0811 -0.3890
  174DOPC  C31521300   4.484   1.475  14.480 -0.0287  0.2880  0.2334
  174DOPC  H15X21301   4.530   1.482  14.581 -3.2048 -2.0226  2.0062
  174DOPC  H15Y21302   4.490   1.577  14.437  1.2030 -0.6978 -2.1396
  174DOPC  C31621303   4.571   1.376  14.394  0.5748  0.5092  0.2249
  174DOPC  H16X21304   4.569   1.272  14.432  1.9161 -0.3526 -1.9239
  174DOPC  H16Y21305   4.525   1.360  14.294  0.9618  0.0837  0.1161
  174DOPC  C31721306   4.723   1.406  14.384  0.3142  0.1224  0.4725
  174DOPC  H17X21307   4.753   1.512  14.366  1.6012  0.2027  2.7446
  174DOPC  H17Y21308   4.774   1.381  14.480  0.0400  0.2610  0.6541
  174DOPC  C31821309   4.781   1.327  14.266  0.4356 -0.2935  0.7607
  174DOPC  H18X21310   4.749   1.370  14.168  0.7065  1.6929  1.5137
  174DOPC  H18Y21311   4.892   1.326  14.266  0.4593  0.2085 -0.5446
  174DOPC  H18Z21312   4.765   1.217  14.278  1.1142 -0.2875  1.8099
  175DOPC     N21313   2.872   4.716  12.883 -0.1144  0.7486 -0.6299
  175DOPC   C1221314   2.846   4.681  13.028 -0.1619 -0.0733 -0.3350
  175DOPC  H12A21315   2.745   4.708  13.054 -0.4047 -1.1526 -0.1305
  175DOPC  H12B21316   2.913   4.747  13.082  0.4093 -0.2899 -0.7687
  175DOPC   C1321317   3.024   4.755  12.869  0.0873 -0.5404 -0.4919
  175DOPC  H13A21318   3.090   4.673  12.894  1.5356  1.1274  1.5529
  175DOPC  H13B21319   3.047   4.801  12.774 -1.8004  1.1766 -0.1915
  175DOPC  H13C21320   3.056   4.826  12.944  0.0231  0.0708 -1.0413
  175DOPC   C1421321   2.803   4.842  12.837  0.0586  0.1250  0.4483
  175DOPC  H14A21322   2.831   4.868  12.736 -0.4593  0.9217  0.5027
  175DOPC  H14B21323   2.696   4.839  12.851 -0.3523  1.2904 -1.9289
  175DOPC  H14C21324   2.824   4.928  12.898  0.3975 -0.9303  1.8574
  175DOPC   C1521325   2.844   4.604  12.785  0.1544  1.2251  0.2035
  175DOPC  H15A21326   2.899   4.516  12.816  0.0042  1.2854  0.6489
  175DOPC  H15B21327   2.870   4.639  12.686 -0.6307  0.5080 -0.2676
  175DOPC  H15C21328   2.739   4.579  12.777  0.0842  1.5188  0.2161
  175DOPC   C1121329   2.874   4.529  13.067  0.2700  0.3624  0.3363
  175DOPC  H11A21330   2.835   4.510  13.169  1.4578 -1.7900  0.4531
  175DOPC  H11B21331   2.817   4.470  12.992  0.5013  1.9915 -1.1845
  175DOPC     P21332   3.097   4.408  12.980  0.1420 -0.1198 -0.0792
  175DOPC   O1321333   3.210   4.493  12.924  0.2385 -0.3657 -0.6084
  175DOPC   O1421334   3.003   4.341  12.881  0.8083  0.2289 -0.0924
  175DOPC   O1221335   3.012   4.509  13.066 -0.3212 -0.1789 -0.8742
  175DOPC   O1121336   3.144   4.302  13.082 -0.6214 -0.0057  0.3318
  175DOPC    C121337   3.064   4.203  13.147  0.1060  0.5773 -0.3637
  175DOPC    HA21338   3.106   4.101  13.160 -0.9745  0.1666  0.0683
  175DOPC    HB21339   2.969   4.178  13.094  0.6377 -0.7883 -0.6965
  175DOPC    C221340   3.025   4.247  13.287 -0.0842 -0.6942  0.2986
  175DOPC    HS21341   2.960   4.336  13.286 -1.1423 -1.4459  0.4242
  175DOPC   O2121342   3.142   4.260  13.371 -0.0033 -0.2568 -0.3940
  175DOPC   C2121343   3.151   4.375  13.432  0.5149  0.9102  0.3820
  175DOPC   O2221344   3.065   4.463  13.434  0.6115  0.5004  0.1382
  175DOPC   C2221345   3.286   4.378  13.494 -0.3748  0.2744 -0.6183
  175DOPC   H2R21346   3.351   4.407  13.409  1.0159  2.0014  0.9508
  175DOPC   H2S21347   3.316   4.278  13.531  2.5083  1.7361  1.4266
  175DOPC    C321348   2.921   4.153  13.357 -0.1808  0.3496 -0.3172
  175DOPC    HX21349   2.966   4.052  13.373  0.6826  1.0786  2.3250
  175DOPC    HY21350   2.830   4.145  13.294 -1.5218 -1.4271  1.6962
  175DOPC   O3121351   2.881   4.204  13.485 -0.3373 -0.3550 -0.1002
  175DOPC   C3121352   2.922   4.149  13.596 -0.2772  0.5297 -0.3363
  175DOPC   O3221353   3.020   4.078  13.608 -0.0428 -0.1945  0.0114
  175DOPC   C3221354   2.824   4.184  13.703  0.1891  0.2461  0.2826
  175DOPC   H2X21355   2.804   4.293  13.706 -1.0651  0.0403 -0.1033
  175DOPC   H2Y21356   2.730   4.132  13.676 -0.6174  0.7910  1.8945
  175DOPC   C2321357   3.299   4.475  13.608  0.2164  0.8227 -0.6362
  175DOPC   H3R21358   3.273   4.577  13.573 -0.5994  0.9732  0.3687
  175DOPC   H3S21359   3.406   4.476  13.640  0.1357  0.4598 -0.3445
  175DOPC   C2421360   3.216   4.431  13.729 -0.1577  0.0637 -0.1908
  175DOPC   H4R21361   3.264   4.337  13.763  0.6822  0.8701  0.9304
  175DOPC   H4S21362   3.115   4.402  13.694 -0.7770  2.5861 -0.7215
  175DOPC   C2521363   3.212   4.536  13.843  0.5983  0.1381  0.2393
  175DOPC   H5R21364   3.173   4.634  13.808 -1.1195 -0.1107  1.3606
  175DOPC   H5S21365   3.313   4.538  13.891  1.5281 -0.9029 -1.5819
  175DOPC   C2621366   3.122   4.485  13.962 -0.3584  0.5543  0.0550
  175DOPC   H6R21367   3.027   4.454  13.913 -0.1686  0.6454 -0.3689
  175DOPC   H6S21368   3.087   4.572  14.021 -0.3261 -1.3895  3.2364
  175DOPC   C2721369   3.192   4.368  14.036 -0.4188  0.4502 -0.6827
  175DOPC   H7R21370   3.240   4.294  13.969  2.2397 -1.1200  2.6110
  175DOPC   H7S21371   3.106   4.307  14.074  1.5463 -1.7709  0.4875
  175DOPC   C2821372   3.302   4.401  14.135  0.1317  0.2058  0.1529
  175DOPC   H8R21373   3.256   4.467  14.212  0.6293 -0.4264  1.0011
  175DOPC   H8S21374   3.378   4.462  14.081  1.4607 -2.1735 -0.8378
  175DOPC   C2921375   3.368   4.273  14.192  0.1080 -0.0989 -0.0014
  175DOPC   H9R21376   3.471   4.272  14.154  0.1195  2.6748 -0.2628
  175DOPC  C21021377   3.318   4.196  14.282 -0.8400  0.1219 -0.3385
  175DOPC  H10R21378   3.379   4.106  14.300 -2.0041 -0.4121  1.2274
  175DOPC  C21121379   3.182   4.207  14.353 -0.3657  0.5474 -0.6539
  175DOPC  H11R21380   3.131   4.108  14.344  2.1646 -1.1398  1.9061
  175DOPC  H11S21381   3.112   4.278  14.302 -1.2707 -0.5949 -1.0586
  175DOPC  C21221382   3.195   4.228  14.509  0.3512 -0.2578 -0.2793
  175DOPC  H12R21383   3.092   4.250  14.545  0.6078  0.9656 -0.2365
  175DOPC  H12S21384   3.248   4.323  14.530  1.9097 -1.3392  0.8964
  175DOPC  C21321385   3.267   4.113  14.581 -0.1888  0.0504 -0.7866
  175DOPC  H13R21386   3.272   4.021  14.518 -0.1960  0.7511 -1.8479
  175DOPC  H13S21387   3.216   4.086  14.675  0.8697 -2.0067 -0.7346
  175DOPC  C21421388   3.409   4.157  14.625  0.6667 -0.1077  0.7560
  175DOPC  H14R21389   3.388   4.242  14.693  0.3568  1.2412 -0.9696
  175DOPC  H14S21390   3.471   4.176  14.535 -0.2034 -2.4474 -0.4408
  175DOPC  C21521391   3.472   4.050  14.710  0.9415  0.7230  0.5603
  175DOPC  H15R21392   3.526   3.974  14.652 -1.8425 -1.7694  0.9768
  175DOPC  H15S21393   3.380   4.001  14.750  1.3644  0.0950  0.7656
  175DOPC  C21621394   3.563   4.101  14.825 -0.3135  0.1503 -0.4175
  175DOPC  H16R21395   3.515   4.174  14.894  1.3853  1.6791 -0.7833
  175DOPC  H16S21396   3.645   4.160  14.779  0.1385 -0.9419 -1.0366
  175DOPC  C21721397   3.621   3.995  14.923 -0.5757  0.2722 -0.4708
  175DOPC  H17R21398   3.539   3.934  14.967  0.7600 -1.7552 -0.6878
  175DOPC  H17S21399   3.658   4.054  15.010  1.6508 -0.3217 -0.9472
  175DOPC  C21821400   3.732   3.914  14.874 -0.6785  0.4246 -0.0721
  175DOPC  H18R21401   3.770   3.843  14.949  0.4628  1.1459  0.0573
  175DOPC  H18S21402   3.816   3.981  14.844  0.4566 -0.7213  0.5083
  175DOPC  H18T21403   3.694   3.867  14.780 -1.9002  2.4023 -0.6499
  175DOPC   C3321404   2.861   4.113  13.835 -0.8060 -0.3136  0.1192
  175DOPC   H3X21405   2.961   4.149  13.865 -1.4989  0.9441  0.9714
  175DOPC   H3Y21406   2.872   4.003  13.823 -1.5747 -0.4397  0.5094
  175DOPC   C3421407   2.753   4.145  13.944 -0.0622  0.2003  0.0832
  175DOPC   H4X21408   2.667   4.076  13.934  1.6280 -2.3337  1.6654
  175DOPC   H4Y21409   2.726   4.252  13.931 -1.9469 -0.2315  0.1555
  175DOPC   C3521410   2.812   4.110  14.083 -0.3632  0.1167  0.6072
  175DOPC   H5X21411   2.909   4.164  14.083 -0.1477 -0.2157  2.4536
  175DOPC   H5Y21412   2.828   4.001  14.081  0.1479  0.1226  2.5113
  175DOPC   C3621413   2.714   4.160  14.184 -0.0423  0.1079  0.6308
  175DOPC   H6X21414   2.656   4.246  14.146 -0.5827 -1.1806 -1.6599
  175DOPC   H6Y21415   2.635   4.085  14.208  1.6847 -2.5105 -1.2642
  175DOPC   C3721416   2.782   4.193  14.319  0.0249  0.3575 -0.2642
  175DOPC   H7X21417   2.820   4.101  14.369  1.0131  2.1132  2.4194
  175DOPC   H7Y21418   2.871   4.251  14.286  0.3925 -0.4212 -0.6882
  175DOPC   C3821419   2.692   4.264  14.411  0.1247 -0.2161 -0.5021
  175DOPC   H8X21420   2.607   4.195  14.429 -0.6276  0.4287 -1.4703
  175DOPC   H8Y21421   2.631   4.345  14.367  0.4625  0.0422 -0.4976
  175DOPC   C3921422   2.755   4.304  14.540 -0.6485 -0.2338 -0.2611
  175DOPC   H9X21423   2.831   4.383  14.528 -1.0671 -0.0250 -1.7085
  175DOPC  C31021424   2.721   4.267  14.670  0.1493 -0.3498  1.0596
  175DOPC  H10X21425   2.769   4.313  14.757 -1.1349  0.5904  1.3058
  175DOPC  C31121426   2.605   4.174  14.696 -0.3182  0.2897 -0.0660
  175DOPC  H11X21427   2.575   4.114  14.607  1.1068 -1.7758  0.7702
  175DOPC  H11Y21428   2.512   4.232  14.715 -1.0363 -0.8506  0.0265
  175DOPC  C31221429   2.618   4.083  14.816 -0.4740 -0.9668 -0.9883
  175DOPC  H12X21430   2.715   4.031  14.803 -0.4663 -0.5378 -2.8142
  175DOPC  H12Y21431   2.531   4.014  14.813 -0.6512 -0.7544 -0.7546
  175DOPC  C31321432   2.621   4.156  14.951 -0.4041  0.5147 -0.3050
  175DOPC  H13X21433   2.706   4.228  14.951  1.1291 -1.1243  2.3471
  175DOPC  H13Y21434   2.523   4.207  14.954 -0.3031  0.7013 -0.1332
  175DOPC  C31421435   2.626   4.052  15.078 -0.1158 -0.5127  0.1629
  175DOPC  H14X21436   2.646   4.108  15.171  0.7207 -1.6556  0.6957
  175DOPC  H14Y21437   2.530   3.996  15.078 -0.4824  0.0831  1.6700
  175DOPC  C31521438   2.752   3.967  15.077 -0.3353 -0.0749  0.1982
  175DOPC  H15X21439   2.753   3.892  14.995  1.2763 -0.7598  0.8026
  175DOPC  H15Y21440   2.762   3.917  15.175  1.7246  1.8094  1.0558
  175DOPC  C31621441   2.882   4.051  15.071  0.0773 -0.3481 -0.0100
  175DOPC  H16X21442   2.887   4.086  14.966  0.6611  0.0689  0.1508
  175DOPC  H16Y21443   2.879   4.131  15.149  0.5031  0.9330 -1.2658
  175DOPC  C31721444   2.999   3.961  15.106 -0.9812  0.6288 -0.3244
  175DOPC  H17X21445   2.982   3.937  15.213  0.8825  1.4628  0.1920
  175DOPC  H17Y21446   2.994   3.873  15.039 -1.0674 -0.6760  1.3194
  175DOPC  C31821447   3.126   4.036  15.086 -1.1146 -0.4399  0.0445
  175DOPC  H18X21448   3.144   4.046  14.977 -0.0474  0.7310  0.3093
  175DOPC  H18Y21449   3.121   4.139  15.127  1.8646  1.2924 -3.3562
  175DOPC  H18Z21450   3.214   3.988  15.135  0.0195 -1.9138 -3.1819
  176DOPC     N21451   2.013   0.587  12.837  0.2473 -0.2282  0.2466
  176DOPC   C1221452   2.095   0.511  12.939  0.3605  1.1949 -0.3374
  176DOPC  H12A21453   2.122   0.574  13.023  1.5456 -2.4729  2.3318
  176DOPC  H12B21454   2.191   0.500  12.891  0.7465  1.3961  0.3625
  176DOPC   C1321455   1.877   0.613  12.896 -0.0660  0.7314  0.5806
  176DOPC  H13A21456   1.801   0.650  12.829  0.2204 -0.1614 -0.2485
  176DOPC  H13B21457   1.839   0.518  12.932  0.9122 -0.7961 -2.1779
  176DOPC  H13C21458   1.887   0.680  12.981 -2.7142  1.4415  0.4248
  176DOPC   C1421459   1.987   0.501  12.722  0.1826  0.5392  0.6316
  176DOPC  H14A21460   2.079   0.468  12.677 -1.6746 -2.6391 -1.1594
  176DOPC  H14B21461   1.918   0.426  12.758  0.0242  0.2787 -0.1953
  176DOPC  H14C21462   1.929   0.550  12.645  0.5650 -0.8025 -0.5451
  176DOPC   C1521463   2.073   0.714  12.794 -0.1436 -0.3772 -0.6060
  176DOPC  H15A21464   2.172   0.700  12.752 -0.7721 -1.1407 -1.9050
  176DOPC  H15B21465   2.060   0.787  12.872 -1.4040 -2.0478  0.8153
  176DOPC  H15C21466   2.015   0.759  12.715  1.6500  1.3514 -0.9957
  176DOPC   C1121467   2.035   0.378  12.998 -0.0342  0.2891  0.8114
  176DOPC  H11A21468   2.099   0.342  13.081  2.0826  1.2458 -0.3458
  176DOPC  H11B21469   1.939   0.407  13.046  0.9501  1.7843  1.9749
  176DOPC     P21470   1.897   0.177  12.908  0.2897  0.2610  0.0035
  176DOPC   O1321471   1.925   0.059  12.827 -0.1344 -0.6425  0.2745
  176DOPC   O1421472   1.773   0.245  12.872 -0.8802 -0.5578 -1.1677
  176DOPC   O1221473   2.020   0.272  12.902  0.0141  0.0807 -0.5797
  176DOPC   O1121474   1.897   0.133  13.056 -0.6232 -0.0497  0.0827
  176DOPC    C121475   2.008   0.061  13.121  0.0469 -0.4196 -0.2697
  176DOPC    HA21476   2.109   0.093  13.090 -0.0443  0.7683  0.5992
  176DOPC    HB21477   1.991  -0.049  13.110  1.5669 -0.8353  1.1455
  176DOPC    C221478   1.993   0.073  13.274 -0.2226 -0.0906 -0.5201
  176DOPC    HS21479   1.883   0.059  13.288 -0.1774  1.3581  1.9375
  176DOPC   O2121480   2.054   0.195  13.317  0.3924 -0.2840 -0.0401
  176DOPC   C2121481   1.977   0.287  13.371 -0.0773 -0.7093 -0.1391
  176DOPC   O2221482   1.868   0.268  13.423 -0.1808  0.5825  0.4163
  176DOPC   C2221483   2.048   0.421  13.374 -0.0265  0.9146 -0.7713
  176DOPC   H2R21484   1.994   0.477  13.295 -1.0881  0.4069 -0.4147
  176DOPC   H2S21485   2.155   0.404  13.348 -0.0389 -0.8959  0.2807
  176DOPC    C321486   2.063  -0.049  13.350 -0.1838  0.4295  0.5095
  176DOPC    HX21487   2.170  -0.024  13.337 -0.8760  2.2747 -3.1441
  176DOPC    HY21488   2.027  -0.147  13.312 -1.8370  0.4882  1.7754
  176DOPC   O3121489   2.030  -0.042  13.488 -0.2636 -0.7444 -0.8333
  176DOPC   C3121490   2.116  -0.111  13.560 -0.0882  0.3887 -0.6022
  176DOPC   O3221491   2.214  -0.168  13.520  0.1872 -0.0573 -0.0299
  176DOPC   C3221492   2.081  -0.104  13.711 -0.0737  0.3824 -0.4996
  176DOPC   H2X21493   1.993  -0.038  13.727  1.6599  2.5094  0.7329
  176DOPC   H2Y21494   2.076  -0.211  13.744 -1.2738  0.4369 -0.4540
  176DOPC   C2321495   2.035   0.480  13.520 -0.5282 -0.9845 -0.0843
  176DOPC   H3R21496   1.932   0.487  13.561 -0.3525  0.4520  0.1562
  176DOPC   H3S21497   2.084   0.579  13.519  0.8963 -1.6542  0.1638
  176DOPC   C2421498   2.120   0.400  13.626  0.3270  0.0138  0.4248
  176DOPC   H4R21499   2.222   0.384  13.586 -0.1928  0.4221 -1.1229
  176DOPC   H4S21500   2.072   0.302  13.646  0.0683  0.2638  1.0658
  176DOPC   C2521501   2.151   0.489  13.754  0.4191  0.3298 -0.2780
  176DOPC   H5R21502   2.054   0.531  13.790  1.0952  4.4421 -2.5514
  176DOPC   H5S21503   2.219   0.574  13.732 -0.6795  1.6792  1.2522
  176DOPC   C2621504   2.230   0.402  13.855  0.1967 -0.0131  0.0449
  176DOPC   H6R21505   2.328   0.398  13.802  0.7992 -1.0323  1.1726
  176DOPC   H6S21506   2.192   0.300  13.878  1.4832 -0.4167  0.4647
  176DOPC   C2721507   2.242   0.478  13.994  0.3967  0.2392  0.5095
  176DOPC   H7R21508   2.269   0.585  13.983 -3.0667  1.0332 -2.0895
  176DOPC   H7S21509   2.326   0.434  14.052  1.0041  1.6796  0.7494
  176DOPC   C2821510   2.108   0.469  14.074  0.9892  0.8356  0.5619
  176DOPC   H8R21511   2.069   0.365  14.070  0.2458  1.0582  1.6262
  176DOPC   H8S21512   2.031   0.519  14.012  0.3173 -1.0419 -0.1897
  176DOPC   C2921513   2.141   0.525  14.210 -0.3456 -0.0387  0.1225
  176DOPC   H9R21514   2.109   0.630  14.219  1.9648  0.9001 -1.5073
  176DOPC  C21021515   2.190   0.465  14.319  0.3706  0.6168 -0.4718
  176DOPC  H10R21516   2.223   0.514  14.412 -1.4835 -1.2032  1.2177
  176DOPC  C21121517   2.238   0.324  14.320 -0.5273 -0.1923  0.8349
  176DOPC  H11R21518   2.342   0.321  14.360 -0.9332 -0.6585  1.8907
  176DOPC  H11S21519   2.251   0.280  14.218 -2.3231  0.5959  0.2394
  176DOPC  C21221520   2.149   0.229  14.404 -0.0509  0.1280 -0.2188
  176DOPC  H12R21521   2.169   0.121  14.390 -0.9194 -0.5431  2.8391
  176DOPC  H12S21522   2.046   0.249  14.367 -1.1154 -1.6113  1.6024
  176DOPC  C21321523   2.164   0.253  14.555  0.0413  0.3317  0.3620
  176DOPC  H13R21524   2.069   0.214  14.597  1.0258 -0.4595  1.9377
  176DOPC  H13S21525   2.172   0.358  14.591  0.1207  0.4402  0.0294
  176DOPC  C21421526   2.286   0.176  14.618  0.7020  0.3340  0.6356
  176DOPC  H14R21527   2.373   0.188  14.551 -1.1803  0.7563 -1.8946
  176DOPC  H14S21528   2.250   0.071  14.615 -0.9400  0.8931 -0.8904
  176DOPC  C21521529   2.313   0.224  14.765  0.4183  0.5166 -0.5984
  176DOPC  H15R21530   2.223   0.195  14.823 -0.0542 -0.9312 -1.9835
  176DOPC  H15S21531   2.326   0.334  14.758 -0.1666  0.5179 -2.2997
  176DOPC  C21621532   2.422   0.145  14.839 -0.3431 -0.4178  0.4426
  176DOPC  H16R21533   2.459   0.201  14.928 -0.4537  0.8648 -0.2899
  176DOPC  H16S21534   2.506   0.146  14.767  1.7670 -0.4469  2.7481
  176DOPC  C21721535   2.386  -0.003  14.871  0.1137 -0.3161 -0.3248
  176DOPC  H17R21536   2.383  -0.056  14.773  0.6681  0.4500 -0.7728
  176DOPC  H17S21537   2.286  -0.012  14.917  0.3225 -0.2247  0.1584
  176DOPC  C21821538   2.486  -0.066  14.964 -0.4229 -0.3768 -0.3235
  176DOPC  H18R21539   2.512  -0.170  14.933 -1.4414 -0.4428 -1.0315
  176DOPC  H18S21540   2.450  -0.056  15.068  0.1279  1.9705 -0.3011
  176DOPC  H18T21541   2.575   0.001  14.961  0.8931 -2.0609 -1.3502
  176DOPC   C3321542   2.193  -0.038  13.786 -0.3506  0.1477  0.0750
  176DOPC   H3X21543   2.181   0.070  13.762 -0.7371  0.1018  0.0543
  176DOPC   H3Y21544   2.287  -0.077  13.742 -0.1784 -0.0884  0.6438
  176DOPC   C3421545   2.204  -0.064  13.938 -0.1859  0.5018 -0.8625
  176DOPC   H4X21546   2.218  -0.173  13.957  0.6792  0.7100 -0.1849
  176DOPC   H4Y21547   2.112  -0.039  13.995 -0.0589 -0.6428 -0.1232
  176DOPC   C3521548   2.334  -0.008  14.006 -0.3930 -0.5467 -0.6548
  176DOPC   H5X21549   2.334   0.103  14.007  2.9966 -0.4430  0.0404
  176DOPC   H5Y21550   2.417  -0.045  13.943  2.3049 -1.8678  3.2987
  176DOPC   C3621551   2.356  -0.062  14.151  0.2047 -0.0922 -0.7216
  176DOPC   H6X21552   2.275  -0.023  14.216 -0.9781  0.1183 -2.2768
  176DOPC   H6Y21553   2.348  -0.173  14.148 -1.0904 -0.1663  2.0079
  176DOPC   C3721554   2.499  -0.036  14.206 -0.0487 -0.5974  0.0080
  176DOPC   H7X21555   2.578  -0.081  14.142  1.8287  1.1947  0.9836
  176DOPC   H7Y21556   2.508   0.075  14.205 -1.7783 -0.4161 -0.2995
  176DOPC   C3821557   2.530  -0.077  14.354 -0.7779 -0.1125  0.4946
  176DOPC   H8X21558   2.526  -0.188  14.353 -0.3101 -0.1565 -1.3068
  176DOPC   H8Y21559   2.451  -0.054  14.428 -0.8609 -0.1489  0.4161
  176DOPC   C3921560   2.674  -0.035  14.393  0.1830  0.4170 -0.2202
  176DOPC   H9X21561   2.746   0.000  14.318  0.6212 -0.1672 -0.0760
  176DOPC  C31021562   2.720  -0.049  14.516  0.7446  0.5119 -0.1711
  176DOPC  H10X21563   2.824  -0.029  14.546  1.2540  0.0162 -1.5416
  176DOPC  C31121564   2.644  -0.112  14.632 -0.5666 -0.1071 -0.3177
  176DOPC  H11X21565   2.533  -0.112  14.623 -0.7119 -2.0344  0.7782
  176DOPC  H11Y21566   2.665  -0.068  14.732 -0.1388 -3.7212  1.3501
  176DOPC  C31221567   2.690  -0.259  14.655 -0.0868 -0.5586 -0.6076
  176DOPC  H12X21568   2.651  -0.311  14.565 -1.0732 -0.2570 -0.3645
  176DOPC  H12Y21569   2.642  -0.305  14.744  0.4097  1.6554  0.8916
  176DOPC  C31321570   2.844  -0.271  14.669  0.4038  0.1436 -0.0159
  176DOPC  H13X21571   2.870  -0.271  14.561 -2.4479  3.3418 -0.8609
  176DOPC  H13Y21572   2.885  -0.176  14.709  1.5608  0.5162 -1.9456
  176DOPC  C31421573   2.907  -0.383  14.746 -0.0705  0.5204 -0.5357
  176DOPC  H14X21574   2.886  -0.382  14.855  3.4570  0.5078  0.2809
  176DOPC  H14Y21575   2.860  -0.468  14.692 -0.6565  0.8745 -0.5827
  176DOPC  C31521576   3.056  -0.399  14.734 -0.5279 -0.0128 -0.0864
  176DOPC  H15X21577   3.106  -0.306  14.769 -0.7456  0.2864 -0.5657
  176DOPC  H15Y21578   3.087  -0.401  14.628 -0.3681 -0.2085 -0.0377
  176DOPC  C31621579   3.116  -0.516  14.814  0.0128  0.0147  0.1857
  176DOPC  H16X21580   3.051  -0.605  14.819  0.7984 -0.5102  1.6303
  176DOPC  H16Y21581   3.217  -0.538  14.772 -0.0626 -0.0914  0.0593
  176DOPC  C31721582   3.136  -0.462  14.955 -0.5248  0.4790  0.1433
  176DOPC  H17X21583   3.182  -0.361  14.955 -0.7896  0.6016  0.7719
  176DOPC  H17Y21584   3.036  -0.461  15.003 -2.0100  0.9979 -2.7034
  176DOPC  C31821585   3.230  -0.550  15.026  0.0664 -0.5984  0.5798
  176DOPC  H18X21586   3.232  -0.522  15.134 -2.6983  1.8737  0.1136
  176DOPC  H18Y21587   3.203  -0.657  15.016  1.5734 -0.7936 -2.4444
  176DOPC  H18Z21588   3.333  -0.531  14.988 -0.7549  1.3060 -0.8805
  177DOPC     N21589   3.887   5.997  12.765 -0.9875  0.0586  0.1400
  177DOPC   C1221590   3.883   5.975  12.916  0.3406 -0.6174  0.1030
  177DOPC  H12A21591   3.781   5.981  12.950 -0.0617 -0.7820 -1.0307
  177DOPC  H12B21592   3.941   6.051  12.966 -1.1006  1.0010 -0.6051
  177DOPC   C1321593   3.803   5.897  12.696 -0.1814  0.4242  0.1182
  177DOPC  H13A21594   3.697   5.906  12.718 -0.0633  1.3139  0.3451
  177DOPC  H13B21595   3.827   5.913  12.592  1.2585  1.7071  0.6126
  177DOPC  H13C21596   3.836   5.796  12.713 -1.5240  0.0531  0.6395
  177DOPC   C1421597   4.025   6.002  12.713  0.5726 -0.0571  0.5549
  177DOPC  H14A21598   4.071   5.905  12.726  1.5365  0.3516  0.2864
  177DOPC  H14B21599   4.050   6.036  12.614  2.6533 -0.0532  1.0404
  177DOPC  H14C21600   4.083   6.075  12.768  1.3040 -0.1689 -0.0582
  177DOPC   C1521601   3.813   6.126  12.731  0.0025 -0.3809  0.5616
  177DOPC  H15A21602   3.814   6.139  12.624  1.2582  0.7906  0.6885
  177DOPC  H15B21603   3.870   6.212  12.763  1.7390  0.1794 -3.5388
  177DOPC  H15C21604   3.710   6.139  12.762  0.5103  4.4035  0.9776
  177DOPC   C1121605   3.936   5.835  12.960  0.3079  0.1683  0.2349
  177DOPC  H11A21606   4.036   5.839  12.913  0.0722 -1.9578 -0.5389
  177DOPC  H11B21607   3.948   5.819  13.070  1.0148 -1.3587 -0.0447
  177DOPC     P21608   3.709   5.704  12.974  0.1016 -0.0522  0.0997
  177DOPC   O1321609   3.641   5.578  12.924 -0.3323  0.0897 -0.2103
  177DOPC   O1421610   3.631   5.823  12.944 -0.4169  0.4514  0.0237
  177DOPC   O1221611   3.855   5.722  12.915  0.5734  0.0150 -0.0759
  177DOPC   O1121612   3.722   5.689  13.132  0.0160 -0.9435 -0.4638
  177DOPC    C121613   3.809   5.584  13.182 -0.2911 -0.6711 -0.1255
  177DOPC    HA21614   3.904   5.586  13.125  0.5497 -1.0052  1.2199
  177DOPC    HB21615   3.767   5.482  13.172 -1.5489 -0.6572  3.5945
  177DOPC    C221616   3.846   5.602  13.333 -0.1361  0.0689 -0.0432
  177DOPC    HS21617   3.893   5.507  13.368  0.8783  1.1775  1.8160
  177DOPC   O2121618   3.737   5.632  13.424  0.4077 -0.4845 -0.7547
  177DOPC   C2121619   3.634   5.546  13.429 -0.7543 -0.0549  0.4673
  177DOPC   O2221620   3.629   5.441  13.362 -0.0614 -0.6135  0.5786
  177DOPC   C2221621   3.522   5.605  13.526 -0.8632 -0.0916  0.3101
  177DOPC   H2R21622   3.474   5.701  13.495 -0.9990 -0.2658 -0.0254
  177DOPC   H2S21623   3.567   5.633  13.624 -1.0142  0.0747  0.3341
  177DOPC    C321624   3.947   5.720  13.342  0.2886  0.1801 -0.1833
  177DOPC    HX21625   3.893   5.817  13.332 -1.5043 -0.7353  0.1198
  177DOPC    HY21626   4.006   5.712  13.249 -0.4690  2.7684 -0.9659
  177DOPC   O3121627   4.029   5.720  13.459 -0.0341  0.4657 -0.6969
  177DOPC   C3121628   3.996   5.804  13.558  0.2672 -0.1394  0.0906
  177DOPC   O3221629   3.934   5.908  13.544  0.3042 -0.0731 -0.1886
  177DOPC   C3221630   4.049   5.743  13.686 -0.3688 -0.1694  0.7492
  177DOPC   H2X21631   4.152   5.707  13.662 -1.2708 -2.2673 -0.2525
  177DOPC   H2Y21632   4.048   5.825  13.761  0.4929 -0.1131  0.7092
  177DOPC   C2321633   3.422   5.493  13.553 -1.1245 -0.6203 -0.0463
  177DOPC   H3R21634   3.479   5.404  13.588  1.2566  1.0498  0.6054
  177DOPC   H3S21635   3.372   5.462  13.459  2.7203 -3.7540 -1.3226
  177DOPC   C2421636   3.328   5.537  13.668  0.4215 -0.3782  0.3243
  177DOPC   H4R21637   3.306   5.644  13.644  1.0554 -0.6064 -1.4289
  177DOPC   H4S21638   3.378   5.545  13.767  0.2107 -0.6914  0.4563
  177DOPC   C2521639   3.208   5.439  13.683  0.0972 -0.4225  0.0008
  177DOPC   H5R21640   3.235   5.347  13.740 -2.1849 -0.5068  1.0568
  177DOPC   H5S21641   3.170   5.416  13.581  2.0915 -0.3270 -0.8140
  177DOPC   C2621642   3.083   5.501  13.748  0.3836  0.1825  0.1202
  177DOPC   H6R21643   3.040   5.570  13.673 -1.5412  2.4631  3.0864
  177DOPC   H6S21644   3.105   5.539  13.851 -0.0994 -0.0578  0.3157
  177DOPC   C2721645   2.976   5.395  13.761  0.1306  1.2818 -0.1544
  177DOPC   H7R21646   3.026   5.307  13.806  0.9201  2.0784  0.5612
  177DOPC   H7S21647   2.942   5.366  13.659  2.3184  0.1742 -0.6292
  177DOPC   C2821648   2.861   5.430  13.862  0.0736 -0.1436  0.0489
  177DOPC   H8R21649   2.825   5.527  13.823  0.8331  0.1292  0.0089
  177DOPC   H8S21650   2.910   5.456  13.959 -0.4309  1.4664 -0.1107
  177DOPC   C2921651   2.767   5.314  13.878  0.1401 -0.0492 -0.7968
  177DOPC   H9R21652   2.703   5.280  13.795 -0.7918 -0.3734  0.0310
  177DOPC  C21021653   2.766   5.241  13.990  0.7453  0.2296  0.5138
  177DOPC  H10R21654   2.715   5.144  13.980  0.5970  0.5542 -3.5320
  177DOPC  C21121655   2.847   5.265  14.120  0.1905 -0.3019 -0.3337
  177DOPC  H11R21656   2.857   5.374  14.139  0.2808  0.0096 -1.9582
  177DOPC  H11S21657   2.936   5.199  14.110  0.5413  0.2688 -1.1282
  177DOPC  C21221658   2.773   5.212  14.243  0.1299  0.1669  0.2133
  177DOPC  H12R21659   2.746   5.105  14.230  1.9977 -0.1480 -1.6252
  177DOPC  H12S21660   2.685   5.278  14.258  0.9810  1.1835  0.7835
  177DOPC  C21321661   2.862   5.236  14.370 -0.7800  1.0254  0.0481
  177DOPC  H13R21662   2.862   5.344  14.394 -0.5170  0.6905  1.6664
  177DOPC  H13S21663   2.969   5.213  14.347 -1.2396 -1.2358 -0.1022
  177DOPC  C21421664   2.828   5.150  14.491  0.3445  0.3211 -0.3729
  177DOPC  H14R21665   2.806   5.048  14.455  0.6028  0.0221  0.3033
  177DOPC  H14S21666   2.728   5.187  14.524  1.0493  1.0058  1.0991
  177DOPC  C21521667   2.929   5.154  14.607  0.1207  0.4908  0.7054
  177DOPC  H15R21668   3.014   5.093  14.569  0.2547  1.5534 -0.7990
  177DOPC  H15S21669   2.886   5.103  14.696  1.0290  1.2707  1.6162
  177DOPC  C21621670   2.969   5.287  14.657  0.6860  0.0492 -0.2891
  177DOPC  H16R21671   3.019   5.346  14.578 -0.6778  0.8426 -0.5885
  177DOPC  H16S21672   3.050   5.291  14.733 -0.4575  2.4737  0.9079
  177DOPC  C21721673   2.857   5.361  14.733 -0.8610 -0.5857 -0.1009
  177DOPC  H17R21674   2.803   5.292  14.801  0.2706 -2.3638 -0.9106
  177DOPC  H17S21675   2.782   5.399  14.660  1.2067 -1.3161 -2.8123
  177DOPC  C21821676   2.912   5.487  14.803 -0.0037  0.0003  0.0769
  177DOPC  H18R21677   2.978   5.458  14.887 -0.3038 -3.8809 -0.8337
  177DOPC  H18S21678   2.821   5.533  14.846  0.9576  0.3552  1.8174
  177DOPC  H18T21679   2.954   5.567  14.738  0.2419  1.3738  1.8657
  177DOPC   C3321680   3.973   5.627  13.742  0.3447 -0.4553  0.0831
  177DOPC   H3X21681   4.035   5.590  13.827  0.8449  0.6941  0.2436
  177DOPC   H3Y21682   3.968   5.544  13.668 -0.0384  0.4177 -0.9038
  177DOPC   C3421683   3.838   5.678  13.794  0.9866  0.0736  0.0347
  177DOPC   H4X21684   3.784   5.735  13.715  3.6947  0.7419 -1.4862
  177DOPC   H4Y21685   3.855   5.748  13.879 -0.0173 -0.6814  0.8828
  177DOPC   C3521686   3.747   5.562  13.855  0.0776 -0.1870  0.9142
  177DOPC   H5X21687   3.816   5.505  13.921 -0.6178 -0.8391  1.0808
  177DOPC   H5Y21688   3.723   5.494  13.770 -2.5231  2.1902 -0.4112
  177DOPC   C3621689   3.616   5.608  13.926  0.3247  0.1830  0.0525
  177DOPC   H6X21690   3.656   5.684  13.996  3.0805 -1.8797  0.8984
  177DOPC   H6Y21691   3.555   5.659  13.848 -1.4286 -0.8209  0.7400
  177DOPC   C3721692   3.534   5.499  13.985 -0.1887  0.1334  0.2195
  177DOPC   H7X21693   3.495   5.430  13.908 -1.8927  1.8822 -0.5736
  177DOPC   H7Y21694   3.606   5.443  14.048 -0.6265  0.1349  0.7238
  177DOPC   C3821695   3.421   5.547  14.075  0.5459 -0.2852 -0.3226
  177DOPC   H8X21696   3.371   5.634  14.028  1.0179 -0.4516 -1.1638
  177DOPC   H8Y21697   3.467   5.591  14.166 -2.0667  1.1496  0.3779
  177DOPC   C3921698   3.321   5.438  14.103 -0.5118 -0.2985 -0.3139
  177DOPC   H9X21699   3.347   5.342  14.055  0.8084  0.3663 -0.9817
  177DOPC  C31021700   3.206   5.454  14.168  0.1343 -0.0555 -0.0947
  177DOPC  H10X21701   3.147   5.361  14.174  0.3262 -0.3415 -2.0017
  177DOPC  C31121702   3.153   5.584  14.234 -0.9347  0.2023  0.4127
  177DOPC  H11X21703   3.043   5.596  14.223 -0.7880  0.1017 -1.5920
  177DOPC  H11Y21704   3.193   5.681  14.196 -1.2617  0.2658  0.2227
  177DOPC  C31221705   3.183   5.589  14.388 -0.1925 -0.1575 -0.0029
  177DOPC  H12X21706   3.133   5.502  14.435  1.7517 -2.5054 -1.9638
  177DOPC  H12Y21707   3.127   5.678  14.424 -0.7202 -0.8046  0.8269
  177DOPC  C31321708   3.330   5.593  14.429  0.1629 -0.0932 -0.4020
  177DOPC  H13X21709   3.389   5.521  14.367 -1.4153  0.4499 -2.6732
  177DOPC  H13Y21710   3.378   5.690  14.402 -0.8189  1.4033  2.8247
  177DOPC  C31421711   3.340   5.578  14.580  0.1705 -0.4283  0.1746
  177DOPC  H14X21712   3.293   5.668  14.626 -1.4799 -2.3867  2.5323
  177DOPC  H14Y21713   3.293   5.487  14.623  0.7304 -0.5946  0.4468
  177DOPC  C31521714   3.495   5.575  14.619  0.4062 -0.2397 -0.1315
  177DOPC  H15X21715   3.540   5.641  14.542 -0.1662 -0.7368 -0.9115
  177DOPC  H15Y21716   3.533   5.470  14.614 -1.5361 -0.9291 -1.9086
  177DOPC  C31621717   3.520   5.644  14.755 -0.4093  0.1735 -0.6079
  177DOPC  H16X21718   3.629   5.642  14.777 -0.4055  0.2239 -0.6219
  177DOPC  H16Y21719   3.493   5.748  14.727  1.7343  0.9820  0.0878
  177DOPC  C31721720   3.448   5.570  14.874  0.5279 -0.3032 -0.4112
  177DOPC  H17X21721   3.338   5.583  14.866  0.4809 -0.1728  0.4100
  177DOPC  H17Y21722   3.467   5.461  14.867 -0.6139 -0.4362 -1.8645
  177DOPC  C31821723   3.495   5.631  15.011  0.4484  0.5927  0.2662
  177DOPC  H18X21724   3.419   5.621  15.091 -0.0889  3.7258  0.2821
  177DOPC  H18Y21725   3.597   5.595  15.035 -0.4509 -1.9496  0.5146
  177DOPC  H18Z21726   3.494   5.742  15.000 -1.6431  0.8816  2.6314
  178DOPC     N21727   0.866   4.723  12.768 -0.4075  0.2280 -0.5935
  178DOPC   C1221728   1.015   4.684  12.783 -0.1795  0.0353 -0.1281
  178DOPC  H12A21729   1.067   4.747  12.713 -0.1807 -0.5675 -0.6692
  178DOPC  H12B21730   1.027   4.579  12.765  0.2958 -0.2806  1.7778
  178DOPC   C1321731   0.812   4.644  12.652 -0.0535 -0.7877 -0.1286
  178DOPC  H13A21732   0.811   4.538  12.669 -1.1790 -0.6670  0.7405
  178DOPC  H13B21733   0.709   4.671  12.632  0.7517  2.2288 -0.6768
  178DOPC  H13C21734   0.874   4.658  12.565  0.0345  0.2910  0.0907
  178DOPC   C1421735   0.859   4.873  12.753  0.9483 -0.3735  0.5036
  178DOPC  H14A21736   0.889   4.924  12.843  0.5909  0.6237  0.0798
  178DOPC  H14B21737   0.912   4.923  12.674  1.7068  0.3258  1.4284
  178DOPC  H14C21738   0.761   4.910  12.725  1.3224  0.3834  0.1626
  178DOPC   C1521739   0.783   4.677  12.885 -0.1079  0.4666  0.3293
  178DOPC  H15A21740   0.811   4.728  12.976 -0.3514  1.6408 -0.2220
  178DOPC  H15B21741   0.803   4.573  12.906  2.1452  0.9028  0.6047
  178DOPC  H15C21742   0.676   4.679  12.869 -0.2667 -2.9337  0.4052
  178DOPC   C1121743   1.073   4.702  12.922 -0.0483 -0.2359  0.1785
  178DOPC  H11A21744   1.052   4.804  12.959  2.9094 -0.7988  3.9419
  178DOPC  H11B21745   1.028   4.629  12.993  1.6652  0.3849  1.9896
  178DOPC     P21746   1.287   4.536  12.920  0.1695  0.2098 -0.0486
  178DOPC   O1321747   1.430   4.561  12.932 -0.6800 -0.2543 -0.0553
  178DOPC   O1421748   1.238   4.459  12.803  0.1905 -0.4148  0.2429
  178DOPC   O1221749   1.213   4.680  12.921  0.4498 -0.1500 -0.2697
  178DOPC   O1121750   1.237   4.467  13.053 -0.3350 -0.4304  0.6427
  178DOPC    C121751   1.247   4.533  13.178  0.1030 -0.1280 -0.3777
  178DOPC    HA21752   1.171   4.614  13.186  0.3099 -0.0667  1.5825
  178DOPC    HB21753   1.349   4.576  13.189  0.4754 -0.8004 -1.1660
  178DOPC    C221754   1.219   4.428  13.297  0.0798 -0.1040 -0.8454
  178DOPC    HS21755   1.117   4.385  13.282  0.6239 -1.8163  0.1621
  178DOPC   O2121756   1.232   4.503  13.422  0.9583 -0.2348  0.2423
  178DOPC   C2121757   1.125   4.565  13.464  0.3936  0.3077 -0.1494
  178DOPC   O2221758   1.013   4.564  13.411  0.1870 -0.2474  0.1529
  178DOPC   C2221759   1.161   4.646  13.586 -0.2870  1.0561 -0.5941
  178DOPC   H2R21760   1.068   4.667  13.643 -0.3038  0.7603 -0.5112
  178DOPC   H2S21761   1.207   4.744  13.562 -0.8194  1.6806  0.8048
  178DOPC    C321762   1.326   4.312  13.297  0.2853  0.1462  0.2269
  178DOPC    HX21763   1.430   4.351  13.309  0.3418 -0.4501  1.9225
  178DOPC    HY21764   1.328   4.284  13.190  1.5811 -1.0566  0.5333
  178DOPC   O3121765   1.288   4.205  13.380  0.4575  0.2316 -0.5273
  178DOPC   C3121766   1.379   4.111  13.402 -0.4742 -1.6043 -0.8749
  178DOPC   O3221767   1.496   4.116  13.366 -0.5697  0.6370 -0.0207
  178DOPC   C3221768   1.319   4.015  13.495 -0.0031 -0.0270 -0.6546
  178DOPC   H2X21769   1.229   4.062  13.541  0.2086 -0.0641 -0.1996
  178DOPC   H2Y21770   1.288   3.923  13.441  3.3912 -1.6330 -0.1218
  178DOPC   C2321771   1.274   4.575  13.680  0.5051  0.2215 -0.4411
  178DOPC   H3R21772   1.370   4.550  13.630  0.5121 -0.7763  0.0408
  178DOPC   H3S21773   1.231   4.474  13.699 -0.2527  0.1870 -2.1443
  178DOPC   C2421774   1.297   4.647  13.811 -0.0856 -0.2084  0.0326
  178DOPC   H4R21775   1.327   4.565  13.880  1.3341  1.8167  1.9711
  178DOPC   H4S21776   1.204   4.692  13.853  0.6205 -0.7438  2.3076
  178DOPC   C2521777   1.410   4.753  13.812  0.7994 -0.4520  0.1686
  178DOPC   H5R21778   1.380   4.833  13.741 -0.2325 -0.5773  0.4553
  178DOPC   H5S21779   1.497   4.706  13.761  1.0905 -0.4417  0.6502
  178DOPC   C2621780   1.446   4.811  13.950  0.1880 -0.1037 -0.8115
  178DOPC   H6R21781   1.529   4.757  14.002  0.5057  1.3951  0.3039
  178DOPC   H6S21782   1.359   4.792  14.016  0.9457 -1.1023 -0.0680
  178DOPC   C2721783   1.482   4.961  13.950 -0.6476  0.6331  0.1719
  178DOPC   H7R21784   1.472   5.007  14.050 -1.3442  1.3148 -0.2007
  178DOPC   H7S21785   1.408   5.009  13.883  0.2801  2.8887  0.6573
  178DOPC   C2821786   1.631   4.987  13.904 -0.0304 -0.9480  0.0815
  178DOPC   H8R21787   1.664   4.929  13.815 -0.2976 -3.3118  1.4449
  178DOPC   H8S21788   1.701   4.942  13.976 -0.4598 -0.6722  0.6855
  178DOPC   C2921789   1.641   5.141  13.878 -0.0583  0.1030 -0.8805
  178DOPC   H9R21790   1.551   5.195  13.846 -1.1607  0.4575  2.4895
  178DOPC  C21021791   1.747   5.217  13.916  0.6320  0.1950 -0.6766
  178DOPC  H10R21792   1.726   5.325  13.909  2.0331  0.5722  0.5662
  178DOPC  C21121793   1.876   5.171  13.974  0.3173  0.8777  0.4561
  178DOPC  H11R21794   1.960   5.228  13.928  0.2947  2.0955  1.8426
  178DOPC  H11S21795   1.910   5.068  13.947  4.6334  1.6219  2.0788
  178DOPC  C21221796   1.862   5.193  14.126 -0.5474  0.2554 -0.2221
  178DOPC  H12R21797   1.953   5.149  14.171  0.0046  1.8727  0.2967
  178DOPC  H12S21798   1.772   5.145  14.170 -0.2706  1.3567  1.6640
  178DOPC  C21321799   1.851   5.340  14.172 -0.7090 -0.2786 -0.1587
  178DOPC  H13R21800   1.750   5.369  14.138  0.1178  0.9701 -1.6645
  178DOPC  H13S21801   1.932   5.386  14.112 -0.6966 -0.0265  0.0478
  178DOPC  C21421802   1.877   5.369  14.322 -0.3362 -0.3600 -0.2941
  178DOPC  H14R21803   1.933   5.285  14.369 -1.0215 -0.1944  0.8557
  178DOPC  H14S21804   1.772   5.376  14.356 -1.6022 -0.8285 -3.6665
  178DOPC  C21521805   1.961   5.498  14.351 -0.3553 -0.0650  0.1428
  178DOPC  H15R21806   1.924   5.580  14.286  0.3213 -0.5603 -0.8841
  178DOPC  H15S21807   2.068   5.479  14.327 -0.2253 -2.9119  2.3660
  178DOPC  C21621808   1.976   5.536  14.497 -0.3072  0.4580 -0.0547
  178DOPC  H16R21809   2.000   5.447  14.559 -1.7559  0.3056  0.3269
  178DOPC  H16S21810   1.879   5.565  14.542  1.7366 -0.1117  5.4562
  178DOPC  C21721811   2.072   5.650  14.525 -0.6438  0.5187 -0.6289
  178DOPC  H17R21812   2.036   5.692  14.622  0.3430 -0.2419  0.0912
  178DOPC  H17S21813   2.066   5.726  14.445 -0.9642 -1.1277 -2.2287
  178DOPC  C21821814   2.222   5.610  14.551  0.2860 -0.2171  0.0257
  178DOPC  H18R21815   2.226   5.516  14.610  0.5861  0.5701  1.3105
  178DOPC  H18S21816   2.261   5.697  14.607 -1.1090  0.9623 -0.7414
  178DOPC  H18T21817   2.283   5.590  14.461  1.2291 -2.4724  1.0986
  178DOPC   C3321818   1.399   3.981  13.621  0.6731  0.3056  0.2135
  178DOPC   H3X21819   1.390   4.056  13.702  0.3631  0.8104 -0.2787
  178DOPC   H3Y21820   1.503   3.974  13.583  0.5671 -0.9860  0.1269
  178DOPC   C3421821   1.365   3.846  13.670  0.2666 -0.8086 -0.4978
  178DOPC   H4X21822   1.401   3.777  13.591  0.4776  0.8067 -1.8678
  178DOPC   H4Y21823   1.255   3.838  13.681  0.3907 -1.1265  0.6182
  178DOPC   C3521824   1.440   3.820  13.806  0.3472 -0.7729  0.4794
  178DOPC   H5X21825   1.431   3.906  13.877  3.8874 -0.5744  0.8734
  178DOPC   H5Y21826   1.547   3.797  13.790  0.8791  0.8833  1.3969
  178DOPC   C3621827   1.388   3.697  13.881 -0.7858  0.6668 -0.3477
  178DOPC   H6X21828   1.279   3.705  13.902 -0.9124  0.2073 -0.8122
  178DOPC   H6Y21829   1.383   3.606  13.819  0.2893 -0.0456  0.5732
  178DOPC   C3721830   1.459   3.677  14.016 -0.1480  0.1040 -0.3518
  178DOPC   H7X21831   1.564   3.651  13.990 -0.1296  0.2649 -0.4412
  178DOPC   H7Y21832   1.477   3.762  14.085 -0.0376 -0.6773  0.6053
  178DOPC   C3821833   1.409   3.553  14.087 -0.2275 -0.3591  0.2733
  178DOPC   H8X21834   1.425   3.473  14.012  0.4265  2.0583 -2.3413
  178DOPC   H8Y21835   1.303   3.564  14.119 -0.6419 -1.4752 -0.6613
  178DOPC   C3921836   1.485   3.515  14.212 -0.7070  0.0743 -0.2551
  178DOPC   H9X21837   1.595   3.516  14.199 -0.4072  1.3615  1.8662
  178DOPC  C31021838   1.433   3.460  14.329  0.0535  0.2769  0.0938
  178DOPC  H10X21839   1.511   3.434  14.402  2.1622 -1.0046 -2.4550
  178DOPC  C31121840   1.289   3.443  14.374 -0.1386  0.3973  0.2605
  178DOPC  H11X21841   1.228   3.519  14.321  0.8268  1.1003  0.1208
  178DOPC  H11Y21842   1.268   3.456  14.482 -0.6820 -1.0251  0.3516
  178DOPC  C31221843   1.235   3.305  14.329 -0.0867 -0.4880  0.4135
  178DOPC  H12X21844   1.255   3.284  14.222 -0.2150 -0.6805  0.4270
  178DOPC  H12Y21845   1.127   3.298  14.356 -0.5472 -0.2546 -1.2511
  178DOPC  C31321846   1.300   3.195  14.411  0.4870  0.0727  0.0889
  178DOPC  H13X21847   1.409   3.192  14.394  0.5720 -2.1635  0.7065
  178DOPC  H13Y21848   1.284   3.207  14.520 -0.0823 -0.6697  0.0931
  178DOPC  C31421849   1.226   3.057  14.389 -0.0134 -0.5542  0.0761
  178DOPC  H14X21850   1.119   3.053  14.419 -0.3823 -1.1085 -1.2648
  178DOPC  H14Y21851   1.227   3.027  14.282 -1.9267 -0.3613 -0.0303
  178DOPC  C31521852   1.294   2.939  14.455  0.2065 -0.5244  0.3833
  178DOPC  H15X21853   1.235   2.848  14.431  1.5715 -1.5423  0.7016
  178DOPC  H15Y21854   1.308   2.960  14.563  2.6376  0.0557  0.0221
  178DOPC  C31621855   1.437   2.917  14.402 -0.4727  0.6394  0.4098
  178DOPC  H16X21856   1.445   2.906  14.291 -2.5122  3.0590 -0.0933
  178DOPC  H16Y21857   1.497   3.003  14.440 -1.0837  0.0444  2.8643
  178DOPC  C31721858   1.507   2.789  14.457 -0.2032 -0.6118  0.3995
  178DOPC  H17X21859   1.539   2.806  14.562  3.1685  1.1425 -0.7311
  178DOPC  H17Y21860   1.438   2.703  14.455 -1.3405  0.2759  0.3139
  178DOPC  C31821861   1.639   2.763  14.376  0.2690  0.3119 -0.5260
  178DOPC  H18X21862   1.689   2.670  14.410 -0.1865  0.1861 -0.1917
  178DOPC  H18Y21863   1.602   2.746  14.273  0.1046 -1.4092 -0.2019
  178DOPC  H18Z21864   1.712   2.846  14.384  0.3259  0.1755  0.5911
  179DOPC     N21865   5.265   4.966  12.710  0.1409 -0.0189  0.2668
  179DOPC   C1221866   5.267   4.823  12.757  0.2814 -0.3211  0.0773
  179DOPC  H12A21867   5.187   4.763  12.715  0.3094 -0.7623  0.6454
  179DOPC  H12B21868   5.238   4.813  12.861 -0.6293 -1.0077 -0.2269
  179DOPC   C1321869   5.128   5.012  12.746  0.0978 -0.3088 -0.0921
  179DOPC  H13A21870   5.097   4.968  12.840  2.1335 -2.2113 -0.2193
  179DOPC  H13B21871   5.123   5.120  12.749  2.2450 -0.1380 -0.9898
  179DOPC  H13C21872   5.064   4.980  12.665 -1.1140  1.8685 -0.0667
  179DOPC   C1421873   5.285   4.986  12.565  0.1827  0.1038  0.5369
  179DOPC  H14A21874   5.284   5.093  12.554 -1.4514  0.0306 -0.3876
  179DOPC  H14B21875   5.380   4.951  12.527 -0.1856 -0.3120 -0.0173
  179DOPC  H14C21876   5.205   4.942  12.508  0.0678 -1.7109  2.0098
  179DOPC   C1521877   5.368   5.043  12.780  0.0297  0.0843  0.0374
  179DOPC  H15A21878   5.379   5.136  12.727 -1.4072 -0.1453 -0.7021
  179DOPC  H15B21879   5.461   4.988  12.788  1.0956  1.9932  1.7461
  179DOPC  H15C21880   5.343   5.071  12.882 -0.0580  3.6295 -0.8324
  179DOPC   C1121881   5.399   4.745  12.748  0.6309  0.1617 -0.0076
  179DOPC  H11A21882   5.373   4.637  12.737  0.8277  0.2149 -1.1709
  179DOPC  H11B21883   5.454   4.781  12.658 -0.0119 -0.0274 -0.4886
  179DOPC     P21884   5.506   4.659  12.968  0.1279 -0.7382 -0.3548
  179DOPC   O1321885   5.633   4.695  13.034  0.0077  0.0807  0.2445
  179DOPC   O1421886   5.491   4.533  12.899 -0.0792  0.1513  0.6817
  179DOPC   O1221887   5.478   4.775  12.859 -0.8677  0.2666 -0.2240
  179DOPC   O1121888   5.383   4.689  13.065  0.3509 -0.3909 -0.3135
  179DOPC    C121889   5.353   4.817  13.115  0.4956  0.0792 -0.6493
  179DOPC    HA21890   5.254   4.846  13.074  1.2026 -0.3209 -2.7509
  179DOPC    HB21891   5.419   4.896  13.074 -0.3622  1.8390  1.1552
  179DOPC    C221892   5.340   4.830  13.272 -0.1697  0.0118 -0.2939
  179DOPC    HS21893   5.444   4.845  13.306  0.3854 -1.0534 -1.4409
  179DOPC   O2121894   5.282   4.709  13.327  0.2335 -0.4090  0.5266
  179DOPC   C2121895   5.366   4.613  13.354  0.0605 -0.9314 -0.8451
  179DOPC   O2221896   5.485   4.630  13.358 -1.1806 -0.2217  0.0687
  179DOPC   C2221897   5.297   4.484  13.385  0.1159 -0.0172 -0.2434
  179DOPC   H2R21898   5.328   4.409  13.308  1.2104  0.5782 -0.3997
  179DOPC   H2S21899   5.188   4.496  13.370 -0.2707 -1.1966  1.3346
  179DOPC    C321900   5.249   4.947  13.330  0.5786  0.7668  0.3832
  179DOPC    HX21901   5.144   4.924  13.303  0.6336 -1.2209  1.7279
  179DOPC    HY21902   5.290   5.034  13.274 -0.3356  0.1534 -1.3089
  179DOPC   O3121903   5.263   4.954  13.475  0.2680  0.0098 -0.3700
  179DOPC   C3121904   5.173   5.024  13.540  0.5164 -0.1556 -0.4821
  179DOPC   O3221905   5.078   5.080  13.488  0.1022  0.0316 -0.1294
  179DOPC   C3221906   5.228   5.053  13.680 -0.2245  0.1952 -0.0325
  179DOPC   H2X21907   5.338   5.055  13.661 -0.1084 -1.1155  0.4203
  179DOPC   H2Y21908   5.189   5.153  13.710 -1.2386 -0.3081  0.3534
  179DOPC   C2321909   5.335   4.440  13.530  0.3423  1.1272 -0.0407
  179DOPC   H3R21910   5.441   4.408  13.541 -0.1623 -1.0335 -0.8155
  179DOPC   H3S21911   5.279   4.349  13.561  1.8714  0.7729  1.9078
  179DOPC   C2421912   5.311   4.547  13.638 -0.9797  0.6365  0.4037
  179DOPC   H4R21913   5.200   4.542  13.631 -0.8840  0.6161 -1.4594
  179DOPC   H4S21914   5.359   4.643  13.609 -0.9742 -0.0083 -1.9395
  179DOPC   C2521915   5.352   4.492  13.770 -0.3461  0.1320 -0.1893
  179DOPC   H5R21916   5.452   4.444  13.763  0.1645  0.8469  1.6737
  179DOPC   H5S21917   5.285   4.409  13.801  0.4605 -1.1298 -1.6550
  179DOPC   C2621918   5.350   4.605  13.867 -0.0356  0.5015  0.3458
  179DOPC   H6R21919   5.243   4.635  13.873  0.2902  1.8588 -0.1287
  179DOPC   H6S21920   5.414   4.692  13.841 -0.2036 -0.0357 -2.1535
  179DOPC   C2721921   5.386   4.547  14.002  0.6389  0.1979 -0.6688
  179DOPC   H7R21922   5.496   4.533  13.998  0.6029 -0.0828 -0.6986
  179DOPC   H7S21923   5.337   4.447  14.006  0.3087  0.3668 -0.4675
  179DOPC   C2821924   5.350   4.643  14.122  0.3873  0.1389 -0.5099
  179DOPC   H8R21925   5.240   4.632  14.108  0.6454 -1.6511 -1.4615
  179DOPC   H8S21926   5.382   4.748  14.105  3.5863 -0.8248 -1.0301
  179DOPC   C2921927   5.384   4.592  14.261  0.1983 -0.2998 -1.1292
  179DOPC   H9R21928   5.303   4.527  14.299  0.9673 -0.2221  0.7437
  179DOPC  C21021929   5.493   4.616  14.337 -0.1429  0.5311  0.5159
  179DOPC  H10R21930   5.507   4.572  14.437  1.0402  1.2316  0.6671
  179DOPC  C21121931   5.622   4.684  14.298 -0.6506 -0.6067 -0.2431
  179DOPC  H11R21932   5.640   4.777  14.357  2.8449 -1.0829 -0.3296
  179DOPC  H11S21933   5.636   4.711  14.191  2.0687  0.4930  0.2990
  179DOPC  C21221934   5.738   4.581  14.314 -0.9697  0.5712  1.0151
  179DOPC  H12R21935   5.712   4.481  14.272  0.1020  1.2263 -1.4018
  179DOPC  H12S21936   5.777   4.567  14.417  2.7242 -0.3168 -0.3123
  179DOPC  C21321937   5.850   4.632  14.220 -0.2415 -0.6270 -0.3955
  179DOPC  H13R21938   5.865   4.739  14.246  0.8342 -0.6726 -0.7472
  179DOPC  H13S21939   5.819   4.630  14.114  1.1425 -0.3243 -0.8332
  179DOPC  C21421940   5.982   4.561  14.230 -0.0590 -0.4636  0.2235
  179DOPC  H14R21941   6.016   4.519  14.328  0.9743  2.1937  1.0929
  179DOPC  H14S21942   6.054   4.641  14.203 -0.6657  0.2040  0.5521
  179DOPC  C21521943   5.994   4.441  14.138  0.2517 -0.5142 -0.9151
  179DOPC  H15R21944   5.984   4.457  14.028 -1.4550 -2.8766 -1.1887
  179DOPC  H15S21945   5.914   4.367  14.158  0.2920  0.2761  2.8966
  179DOPC  C21621946   6.134   4.371  14.131  0.3278 -0.1714  0.1918
  179DOPC  H16R21947   6.148   4.350  14.239  0.9713 -1.2446 -0.0882
  179DOPC  H16S21948   6.225   4.428  14.103 -0.5588  2.0295  1.5295
  179DOPC  C21721949   6.133   4.236  14.057 -0.4619  0.3774  0.0468
  179DOPC  H17R21950   6.100   4.256  13.953  1.1188  0.1163 -0.5367
  179DOPC  H17S21951   6.053   4.168  14.093  1.2671 -1.4405  0.6177
  179DOPC  C21821952   6.258   4.154  14.042 -0.1690  0.4521 -0.5762
  179DOPC  H18R21953   6.253   4.064  13.977  3.4353 -2.9829  3.3132
  179DOPC  H18S21954   6.277   4.115  14.144 -2.1944 -1.3766 -0.8281
  179DOPC  H18T21955   6.346   4.215  14.012  0.4768 -1.1552 -2.1362
  179DOPC   C3321956   5.190   4.943  13.787 -0.5277 -0.1030  0.8613
  179DOPC   H3X21957   5.233   4.845  13.759  2.2449  1.0922  0.6496
  179DOPC   H3Y21958   5.079   4.937  13.788 -0.4814 -1.0228  0.9181
  179DOPC   C3421959   5.244   4.985  13.925  0.1021  0.0291  0.3237
  179DOPC   H4X21960   5.342   5.037  13.912 -0.8093  1.6677 -0.2582
  179DOPC   H4Y21961   5.266   4.893  13.984  1.8897  0.1124 -0.1321
  179DOPC   C3521962   5.147   5.069  14.011 -0.1380  0.5268 -0.1457
  179DOPC   H5X21963   5.055   5.008  14.008 -0.5544  1.1053  0.5552
  179DOPC   H5Y21964   5.120   5.157  13.948 -0.0367  2.0703  1.8900
  179DOPC   C3621965   5.192   5.120  14.143 -0.1440  0.0494  0.4384
  179DOPC   H6X21966   5.300   5.143  14.155 -0.3321  1.0247  0.3356
  179DOPC   H6Y21967   5.149   5.222  14.143  2.0176  1.0120 -0.0051
  179DOPC   C3721968   5.138   5.026  14.254 -0.6126  0.0252 -0.0841
  179DOPC   H7X21969   5.030   5.014  14.231 -0.4596 -0.3409 -0.6001
  179DOPC   H7Y21970   5.193   4.934  14.227 -0.1134  0.8774 -2.1503
  179DOPC   C3821971   5.154   5.082  14.400  0.3107 -0.0829 -0.6706
  179DOPC   H8X21972   5.100   5.179  14.409 -0.5045 -0.7044  2.5426
  179DOPC   H8Y21973   5.261   5.094  14.426  0.2667 -0.7662 -0.1408
  179DOPC   C3921974   5.091   4.992  14.497  0.2776  0.4804 -0.2022
  179DOPC   H9X21975   4.985   5.013  14.516 -0.2016 -0.3806 -1.7054
  179DOPC  C31021976   5.160   4.893  14.563  0.7591 -0.9733  0.3923
  179DOPC  H10X21977   5.120   4.843  14.652  2.3145  0.6947  2.1526
  179DOPC  C31121978   5.306   4.862  14.547 -0.1911 -0.0641 -0.4603
  179DOPC  H11X21979   5.362   4.943  14.495 -0.4061  1.4969  1.6338
  179DOPC  H11Y21980   5.308   4.787  14.465  2.3553  0.6494 -1.1376
  179DOPC  C31221981   5.395   4.826  14.668 -0.1051  0.1380  0.1838
  179DOPC  H12X21982   5.493   4.810  14.619 -0.7209 -1.1015 -0.6759
  179DOPC  H12Y21983   5.361   4.731  14.715  0.2960 -0.6260 -1.0317
  179DOPC  C31321984   5.408   4.931  14.778 -0.3033  0.1003 -0.8465
  179DOPC  H13X21985   5.480   4.881  14.846 -1.6990  0.1193  0.7356
  179DOPC  H13Y21986   5.450   5.028  14.745  0.4888 -0.9489 -3.0760
  179DOPC  C31421987   5.279   4.955  14.863 -0.8572 -0.4131 -0.1442
  179DOPC  H14X21988   5.212   5.032  14.820  0.7525  1.3891  0.3963
  179DOPC  H14Y21989   5.236   4.853  14.859  0.0284 -0.7611 -1.4838
  179DOPC  C31521990   5.316   5.003  15.008  0.1210 -0.0938  0.2726
  179DOPC  H15X21991   5.370   5.099  14.997  0.7079 -0.5807 -1.3077
  179DOPC  H15Y21992   5.388   4.926  15.045  1.9234 -0.6029 -3.7320
  179DOPC  C31621993   5.209   5.001  15.114  0.1433  0.2374  0.4370
  179DOPC  H16X21994   5.119   5.059  15.085 -0.0885 -1.0055 -1.4763
  179DOPC  H16Y21995   5.177   4.895  15.119  2.9265 -0.6426  1.8181
  179DOPC  C31721996   5.258   5.036  15.250  0.3218  0.6211  0.0449
  179DOPC  H17X21997   5.356   4.985  15.261 -1.4096 -2.8888  0.7280
  179DOPC  H17Y21998   5.271   5.146  15.246  1.0800  0.5266 -0.1762
  179DOPC  C31821999   5.164   4.990  15.357  0.5764  0.1697 -0.1784
  179DOPC  H18X22000   5.139   4.882  15.358 -1.0605  0.4470  3.0534
  179DOPC  H18Y22001   5.219   5.017  15.450 -0.4678  1.6062  0.0432
  179DOPC  H18Z22002   5.067   5.043  15.352  0.9369  0.9769  0.9334
  180DOPC     N22003   5.063   2.252  12.670  0.0639 -0.0643 -0.1924
  180DOPC   C1222004   5.094   2.279  12.821  0.1849  0.0254 -0.0588
  180DOPC  H12A22005   5.126   2.183  12.859 -1.0063 -0.1804  0.4998
  180DOPC  H12B22006   5.007   2.317  12.874  0.9119 -0.1156  1.2564
  180DOPC   C1322007   5.190   2.220  12.604 -0.1110  0.4050  0.0181
  180DOPC  H13A22008   5.245   2.141  12.653 -0.9056  0.8349  1.6722
  180DOPC  H13B22009   5.176   2.192  12.501 -1.1267 -1.3478  0.5985
  180DOPC  H13C22010   5.264   2.298  12.600  0.1423  0.1247 -1.2192
  180DOPC   C1422011   4.987   2.367  12.626  0.4435 -0.0249 -0.0400
  180DOPC  H14A22012   4.956   2.355  12.523 -1.5360 -2.6426  0.7440
  180DOPC  H14B22013   4.897   2.382  12.685  0.3691 -1.8719  0.3791
  180DOPC  H14C22014   5.052   2.453  12.629  1.1115 -0.5012 -0.6000
  180DOPC   C1522015   4.979   2.126  12.657 -0.0322 -0.2398 -0.0194
  180DOPC  H15A22016   4.942   2.125  12.556  0.5210  2.5771 -0.3274
  180DOPC  H15B22017   4.895   2.127  12.726 -0.2477 -1.2729 -0.2476
  180DOPC  H15C22018   5.037   2.038  12.680  3.1820  2.4574  3.6370
  180DOPC   C1122019   5.215   2.369  12.856 -0.2750 -0.4848 -0.6591
  180DOPC  H11A22020   5.215   2.463  12.796  1.8023 -0.6436 -0.9685
  180DOPC  H11B22021   5.223   2.410  12.959  3.2787 -0.2008 -0.9212
  180DOPC     P22022   5.377   2.181  12.937 -0.2183  0.4592 -0.1903
  180DOPC   O1322023   5.517   2.155  12.911 -0.3458  0.0231  0.1883
  180DOPC   O1422024   5.290   2.061  12.926  0.3967  0.4885  0.1851
  180DOPC   O1222025   5.334   2.301  12.835 -0.2789 -0.0156  0.3027
  180DOPC   O1122026   5.346   2.251  13.077 -0.7396 -0.0360  0.1168
  180DOPC    C122027   5.446   2.281  13.165 -0.5279  0.6947  0.2756
  180DOPC    HA22028   5.494   2.378  13.140 -0.2745  0.9557  1.6702
  180DOPC    HB22029   5.524   2.202  13.171 -1.4478 -0.2427  0.1294
  180DOPC    C222030   5.382   2.298  13.303 -0.7058 -0.0359 -0.0167
  180DOPC    HS22031   5.469   2.332  13.363  0.9973 -1.2325 -1.6852
  180DOPC   O2122032   5.334   2.168  13.339 -0.5477 -0.3052 -0.1762
  180DOPC   C2122033   5.370   2.123  13.462  0.6627 -0.4234 -0.4902
  180DOPC   O2222034   5.455   2.179  13.532 -0.2807  0.0752 -0.0814
  180DOPC   C2222035   5.283   2.004  13.502 -0.0911  0.1587 -0.0085
  180DOPC   H2R22036   5.339   1.911  13.482 -0.3602 -0.1329  0.5718
  180DOPC   H2S22037   5.191   2.001  13.439 -0.0781 -0.7669  0.0027
  180DOPC    C322038   5.267   2.399  13.314 -1.2641  0.5848  0.5659
  180DOPC    HX22039   5.186   2.370  13.244 -0.3280 -0.9367  0.0645
  180DOPC    HY22040   5.296   2.503  13.286  1.3531  0.3670  2.1116
  180DOPC   O3122041   5.214   2.399  13.450  0.7629  0.0131 -0.8341
  180DOPC   C3122042   5.106   2.477  13.452 -0.4773  0.7650  0.3871
  180DOPC   O3222043   5.062   2.540  13.358  0.6837  0.0555  0.2649
  180DOPC   C3222044   5.030   2.465  13.582  0.2935 -0.4641 -0.7923
  180DOPC   H2X22045   4.985   2.364  13.589 -0.4876  0.0156  3.2899
  180DOPC   H2Y22046   5.105   2.468  13.664  2.1095 -2.1716 -2.2920
  180DOPC   C2322047   5.242   1.987  13.653  0.4250  0.0257  0.5139
  180DOPC   H3R22048   5.331   1.999  13.719 -0.6722 -0.6890  2.1993
  180DOPC   H3S22049   5.199   1.885  13.662 -2.3209  0.9762 -0.6922
  180DOPC   C2422050   5.144   2.096  13.697 -0.0334  0.1949  0.5414
  180DOPC   H4R22051   5.047   2.101  13.643 -1.2183 -0.5784  2.4862
  180DOPC   H4S22052   5.196   2.192  13.674 -2.1756  1.3447  0.2207
  180DOPC   C2522053   5.111   2.090  13.846  0.0475 -1.4790 -0.3173
  180DOPC   H5R22054   5.206   2.101  13.902 -0.5108 -2.0252  0.7560
  180DOPC   H5S22055   5.073   1.988  13.867  0.5109 -1.4532  0.7176
  180DOPC   C2622056   5.010   2.197  13.895 -0.6512  0.3309 -0.4340
  180DOPC   H6R22057   4.904   2.187  13.862  0.2756 -3.1111 -2.8981
  180DOPC   H6S22058   5.053   2.295  13.866 -1.9831  1.1064  0.1376
  180DOPC   C2722059   5.012   2.206  14.052  0.2318  0.2393  0.0408
  180DOPC   H7R22060   5.118   2.213  14.083 -0.0465  1.3905  0.7979
  180DOPC   H7S22061   4.993   2.102  14.086 -0.6470  0.6543  0.8908
  180DOPC   C2822062   4.910   2.302  14.115  0.8222 -0.8413 -0.3837
  180DOPC   H8R22063   4.804   2.282  14.091  0.3433  0.0690  0.8587
  180DOPC   H8S22064   4.938   2.406  14.089 -2.1273 -0.0504 -0.7430
  180DOPC   C2922065   4.919   2.263  14.256  0.2829  0.6584 -1.1580
  180DOPC   H9R22066   5.019   2.226  14.282 -0.3812  0.0528  0.6419
  180DOPC  C21022067   4.825   2.227  14.344 -0.0237  0.4583  0.1344
  180DOPC  H10R22068   4.861   2.175  14.435 -1.1778 -1.7048 -0.5663
  180DOPC  C21122069   4.673   2.242  14.329 -0.0380  0.4435  0.5520
  180DOPC  H11R22070   4.639   2.158  14.265 -1.2502  0.4626  1.1585
  180DOPC  H11S22071   4.662   2.338  14.273  1.8630  0.7657  0.6698
  180DOPC  C21222072   4.603   2.241  14.463 -0.3127 -0.6974 -0.3714
  180DOPC  H12R22073   4.617   2.148  14.522  1.5526 -0.7781 -0.8710
  180DOPC  H12S22074   4.501   2.255  14.422 -0.2390  0.5245 -0.1856
  180DOPC  C21322075   4.631   2.356  14.562  0.3376 -0.1365 -0.1696
  180DOPC  H13R22076   4.636   2.453  14.508  1.9394 -0.8580 -1.3998
  180DOPC  H13S22077   4.733   2.346  14.604 -0.1511  0.7343  1.3217
  180DOPC  C21422078   4.529   2.366  14.672 -0.3498  0.2917 -0.2844
  180DOPC  H14R22079   4.535   2.272  14.730  0.2644  0.3150 -0.3066
  180DOPC  H14S22080   4.434   2.382  14.616  0.1905 -1.0691 -1.6526
  180DOPC  C21522081   4.552   2.476  14.782 -0.0459 -0.7572  0.0448
  180DOPC  H15R22082   4.655   2.464  14.821 -0.5526 -0.5107  1.5259
  180DOPC  H15S22083   4.479   2.459  14.864 -1.7813  0.0337 -1.2621
  180DOPC  C21622084   4.544   2.629  14.738 -0.0874 -0.0743 -0.2547
  180DOPC  H16R22085   4.438   2.652  14.714 -0.2103 -0.1040  0.2455
  180DOPC  H16S22086   4.607   2.632  14.647 -1.6207  0.0014 -1.3711
  180DOPC  C21722087   4.603   2.719  14.851 -0.7897  0.6244 -0.5263
  180DOPC  H17R22088   4.564   2.704  14.954 -0.3075  2.7253  0.0072
  180DOPC  H17S22089   4.571   2.822  14.826  0.7899  1.2233 -0.2227
  180DOPC  C21822090   4.758   2.718  14.873 -0.2961 -1.1459 -1.0423
  180DOPC  H18R22091   4.786   2.788  14.955  2.4514 -1.8494 -1.3101
  180DOPC  H18S22092   4.811   2.748  14.780  0.0735  0.4436 -0.3535
  180DOPC  H18T22093   4.783   2.616  14.907 -0.2438 -0.2275  1.9841
  180DOPC   C3322094   4.928   2.580  13.594 -1.4721 -0.2230 -0.6543
  180DOPC   H3X22095   4.857   2.571  13.509 -0.3055 -2.1314 -1.4917
  180DOPC   H3Y22096   4.975   2.679  13.576 -0.3843 -0.8699 -1.4947
  180DOPC   C3422097   4.862   2.586  13.737  0.4313  0.0871  0.3955
  180DOPC   H4X22098   4.811   2.490  13.758 -0.9877  0.3955 -1.3830
  180DOPC   H4Y22099   4.788   2.669  13.744 -1.5077 -1.3871 -1.3312
  180DOPC   C3522100   4.973   2.608  13.844  0.5230 -0.0824 -0.3796
  180DOPC   H5X22101   5.053   2.671  13.798  1.0710 -1.0005 -0.7138
  180DOPC   H5Y22102   5.020   2.509  13.862 -2.6418 -2.6223 -4.3174
  180DOPC   C3622103   4.924   2.682  13.968 -0.1852 -0.2196 -0.1151
  180DOPC   H6X22104   4.869   2.774  13.939  1.2678  0.3568 -1.1765
  180DOPC   H6Y22105   4.852   2.622  14.027  0.8585  0.9969  2.5496
  180DOPC   C3722106   5.039   2.730  14.060 -0.2144 -0.2781 -1.2611
  180DOPC   H7X22107   5.127   2.662  14.055  1.2860  1.1643  2.2323
  180DOPC   H7Y22108   5.084   2.826  14.027 -2.9388  1.6979  0.3583
  180DOPC   C3822109   4.989   2.770  14.199 -0.5501 -0.0616  0.2564
  180DOPC   H8X22110   4.913   2.851  14.190 -1.6869 -0.8574  2.1346
  180DOPC   H8Y22111   5.072   2.799  14.266 -0.0903 -0.7545  0.0008
  180DOPC   C3922112   4.922   2.662  14.274  0.4804  0.7260  0.2817
  180DOPC   H9X22113   4.983   2.571  14.274  0.5481  0.7524 -0.7786
  180DOPC  C31022114   4.811   2.666  14.351 -0.1121 -0.5218  0.2514
  180DOPC  H10X22115   4.781   2.575  14.405 -0.6965 -0.5098 -0.0454
  180DOPC  C31122116   4.737   2.795  14.390 -0.4367 -0.2699  0.2243
  180DOPC  H11X22117   4.793   2.878  14.438  0.0719 -1.7270  2.2704
  180DOPC  H11Y22118   4.660   2.776  14.468  0.8649  1.2520  1.9479
  180DOPC  C31222119   4.658   2.846  14.264  0.6016  0.4542 -0.0197
  180DOPC  H12X22120   4.713   2.857  14.168 -1.2663  2.8186 -0.8951
  180DOPC  H12Y22121   4.620   2.949  14.281  0.8207  0.5610 -0.1732
  180DOPC  C31322122   4.535   2.752  14.227  0.3239 -0.0739  0.0870
  180DOPC  H13X22123   4.584   2.654  14.211 -0.7951 -0.9960  1.9981
  180DOPC  H13Y22124   4.458   2.727  14.303 -0.0632 -0.0316 -0.2877
  180DOPC  C31422125   4.465   2.793  14.095  0.5246 -0.2943 -0.1064
  180DOPC  H14X22126   4.364   2.833  14.121  0.7525 -0.9894  2.0508
  180DOPC  H14Y22127   4.514   2.874  14.037  2.6830  0.0399  1.9957
  180DOPC  C31522128   4.424   2.674  14.006  0.2335  0.3196 -0.1112
  180DOPC  H15X22129   4.355   2.602  14.054  0.0384  0.2367 -0.5144
  180DOPC  H15Y22130   4.516   2.612  13.998  0.6974  1.0477 -0.6238
  180DOPC  C31622131   4.360   2.720  13.873 -0.0555 -0.8083 -0.1326
  180DOPC  H16X22132   4.279   2.648  13.853  1.0996 -1.2246 -4.1962
  180DOPC  H16Y22133   4.296   2.809  13.888 -0.8536 -1.4161  0.0967
  180DOPC  C31722134   4.453   2.733  13.752 -0.2473  0.9069  0.2597
  180DOPC  H17X22135   4.539   2.796  13.784 -0.4245  1.1250  0.3090
  180DOPC  H17Y22136   4.491   2.631  13.730 -1.2002  0.6958 -0.4905
  180DOPC  C31822137   4.395   2.758  13.608 -0.0160  0.3307 -0.3219
  180DOPC  H18X22138   4.323   2.676  13.587 -1.6385  1.2613  1.3015
  180DOPC  H18Y22139   4.338   2.853  13.612 -2.7231 -1.2258  0.0721
  180DOPC  H18Z22140   4.474   2.757  13.530  1.2071  0.9644  0.8704
  181DOPC     N22141   0.164   2.971  12.918  0.2670  0.0337 -0.6658
  181DOPC   C1222142   0.021   3.014  12.943  0.0019 -0.6252  0.1291
  181DOPC  H12A22143   0.011   3.110  12.894 -1.0565 -1.0879 -0.6111
  181DOPC  H12B22144  -0.005   3.012  13.048 -2.0168  0.1161 -0.2995
  181DOPC   C1322145   0.253   3.080  12.964 -0.1911 -1.1517  0.0456
  181DOPC  H13A22146   0.229   3.167  12.904  0.5950 -1.7289 -1.1274
  181DOPC  H13B22147   0.247   3.093  13.071  0.4019  1.0542 -0.1353
  181DOPC  H13C22148   0.351   3.053  12.929  0.6317  1.7288 -0.1388
  181DOPC   C1422149   0.191   2.942  12.771  0.3675  0.3311 -0.3585
  181DOPC  H14A22150   0.125   2.862  12.742 -1.3160  2.2697 -2.2096
  181DOPC  H14B22151   0.165   3.034  12.721 -2.6316  0.1369  0.6154
  181DOPC  H14C22152   0.293   2.927  12.741  0.3396 -1.0839  0.1593
  181DOPC   C1522153   0.191   2.848  12.990 -0.6781  0.0200  0.7671
  181DOPC  H15A22154   0.109   2.781  12.970 -1.7430  2.2367 -3.8605
  181DOPC  H15B22155   0.217   2.858  13.094 -2.3078 -0.5644  1.2557
  181DOPC  H15C22156   0.277   2.807  12.940 -2.4577 -0.9993 -1.6951
  181DOPC   C1122157  -0.091   2.927  12.876  0.1450 -0.3296 -0.3409
  181DOPC  H11A22158  -0.187   2.982  12.870  0.3119  0.0033  0.0364
  181DOPC  H11B22159  -0.066   2.915  12.768  3.3842 -1.3969  0.4209
  181DOPC     P22160  -0.206   2.773  13.042  0.5620  0.2272  0.1771
  181DOPC   O1322161  -0.151   2.674  13.134 -0.0600 -0.2092  0.4485
  181DOPC   O1422162  -0.345   2.749  12.993  0.1221 -0.1302 -0.4001
  181DOPC   O1222163  -0.097   2.794  12.929 -0.2130 -0.4070  0.3172
  181DOPC   O1122164  -0.204   2.920  13.117  0.3132  0.3869  0.5377
  181DOPC    C122165  -0.250   2.926  13.253  0.1382 -0.0606 -0.1210
  181DOPC    HA22166  -0.341   2.866  13.276  0.3098 -0.1164  0.4305
  181DOPC    HB22167  -0.283   3.030  13.277  1.2013  0.5524 -1.2208
  181DOPC    C222168  -0.148   2.883  13.365  0.6369  0.1621 -0.4996
  181DOPC    HS22169  -0.134   2.774  13.358 -3.3086 -0.6196  1.1222
  181DOPC   O2122170  -0.215   2.912  13.486  0.1438  1.0492 -0.0447
  181DOPC   C2122171  -0.173   2.849  13.598 -0.2983  0.4586  0.6098
  181DOPC   O2222172  -0.088   2.764  13.598 -0.4127 -0.3029 -0.4217
  181DOPC   C2222173  -0.242   2.895  13.721 -0.4042 -0.3116  0.1894
  181DOPC   H2R22174  -0.337   2.839  13.726  1.0636 -2.9518  0.7023
  181DOPC   H2S22175  -0.257   3.005  13.712  0.6548 -0.2389 -1.0434
  181DOPC    C322176  -0.020   2.968  13.359  1.1136 -0.2225 -0.4879
  181DOPC    HX22177  -0.058   3.069  13.385  1.1683  0.3484 -2.4907
  181DOPC    HY22178   0.020   2.968  13.256  2.9502  2.6671  0.1025
  181DOPC   O3122179   0.076   2.921  13.461  0.3168 -0.0786 -0.3930
  181DOPC   C3122180   0.186   2.871  13.417 -0.0668 -0.1361 -0.0146
  181DOPC   O3222181   0.226   2.868  13.306  0.2677  0.7118  0.0147
  181DOPC   C3222182   0.259   2.811  13.536 -0.0271  0.3783 -0.4859
  181DOPC   H2X22183   0.198   2.825  13.628  1.0096 -1.2676  0.5148
  181DOPC   H2Y22184   0.267   2.704  13.507  1.1331 -0.0498  1.2197
  181DOPC   C2322185  -0.159   2.852  13.850 -0.1077 -0.2204 -0.5122
  181DOPC   H3R22186  -0.121   2.748  13.852  0.7390  0.0515  2.7953
  181DOPC   H3S22187  -0.226   2.876  13.935  0.4618  1.7020 -0.5386
  181DOPC   C2422188  -0.034   2.947  13.867  0.4100 -0.2079 -0.0406
  181DOPC   H4R22189  -0.091   3.040  13.887 -1.5449 -1.4002  0.2183
  181DOPC   H4S22190   0.030   2.956  13.776 -1.3770 -0.9482 -1.4447
  181DOPC   C2522191   0.058   2.913  13.986  0.0021 -0.1245 -1.2626
  181DOPC   H5R22192   0.094   2.810  13.972  0.2356 -0.2865  0.3522
  181DOPC   H5S22193  -0.004   2.924  14.078  0.4776 -2.2527 -0.6328
  181DOPC   C2622194   0.190   2.996  13.996  0.0095 -0.4700 -0.5106
  181DOPC   H6R22195   0.152   3.100  13.987 -2.9149 -1.5956 -3.4677
  181DOPC   H6S22196   0.248   2.968  13.906 -0.9843  0.3778 -1.4482
  181DOPC   C2722197   0.279   2.979  14.125  0.3113  0.0586  0.4379
  181DOPC   H7R22198   0.291   2.871  14.146  0.7260 -0.0617 -0.3478
  181DOPC   H7S22199   0.207   3.019  14.199 -0.7084  0.8336 -0.9171
  181DOPC   C2822200   0.404   3.070  14.125  0.1470  0.1307 -0.2873
  181DOPC   H8R22201   0.439   3.057  14.229 -1.0234  2.8930  0.5522
  181DOPC   H8S22202   0.373   3.177  14.136 -0.8598 -0.3005  1.3924
  181DOPC   C2922203   0.504   3.051  14.012  0.1356 -0.0268 -0.1236
  181DOPC   H9R22204   0.503   3.123  13.928  0.0208  0.0220 -0.0808
  181DOPC  C21022205   0.612   2.971  14.021  0.0938  0.3020 -0.3100
  181DOPC  H10R22206   0.671   2.939  13.934  1.7500 -1.6966  1.4459
  181DOPC  C21122207   0.636   2.888  14.144 -1.0831 -0.1473  0.4673
  181DOPC  H11R22208   0.674   2.787  14.115  1.2554  0.8130 -0.0695
  181DOPC  H11S22209   0.540   2.868  14.196 -1.2214  0.6623  0.5267
  181DOPC  C21222210   0.735   2.957  14.245 -0.2795 -0.4465  0.6396
  181DOPC  H12R22211   0.720   3.066  14.240  1.4259 -0.2257 -3.2320
  181DOPC  H12S22212   0.838   2.948  14.203  0.4287  2.5709  1.5465
  181DOPC  C21322213   0.721   2.905  14.387 -0.5276 -0.2945 -0.2037
  181DOPC  H13R22214   0.814   2.940  14.438  0.5627  0.1583 -2.3857
  181DOPC  H13S22215   0.715   2.794  14.392 -0.5627 -0.2546  0.7318
  181DOPC  C21422216   0.597   2.968  14.456  0.4924 -0.2250  0.5057
  181DOPC  H14R22217   0.586   2.907  14.549 -1.8945  0.3364  0.6629
  181DOPC  H14S22218   0.506   2.950  14.394  1.0427 -0.8663 -0.1320
  181DOPC  C21522219   0.614   3.111  14.502  0.4928  0.0752 -0.0847
  181DOPC  H15R22220   0.642   3.184  14.423  0.8930  2.0513  1.7963
  181DOPC  H15S22221   0.690   3.104  14.583 -1.6827  0.5743  2.1239
  181DOPC  C21622222   0.500   3.168  14.584 -0.0160  0.1669  0.6234
  181DOPC  H16R22223   0.421   3.197  14.512  0.4950 -3.2412 -1.5467
  181DOPC  H16S22224   0.539   3.263  14.626 -0.6091  0.8520 -0.3438
  181DOPC  C21722225   0.448   3.079  14.702 -0.1458 -0.2367  0.6728
  181DOPC  H17R22226   0.409   2.980  14.670  1.1121 -0.7889  0.7931
  181DOPC  H17S22227   0.362   3.133  14.746  0.5674  0.1368  1.6269
  181DOPC  C21822228   0.545   3.055  14.815 -0.0199 -0.5158  0.0349
  181DOPC  H18R22229   0.634   3.000  14.776  1.3034  1.0229  0.8030
  181DOPC  H18S22230   0.512   2.980  14.890 -0.2584  0.4363  0.8999
  181DOPC  H18T22231   0.573   3.155  14.853  0.2056 -1.0986  1.4867
  181DOPC   C3322232   0.400   2.875  13.556 -0.0583  0.7250  0.2997
  181DOPC   H3X22233   0.469   2.858  13.471  2.7687  0.2661  2.5145
  181DOPC   H3Y22234   0.451   2.817  13.636  1.5559 -0.6585 -1.6597
  181DOPC   C3422235   0.395   3.019  13.616 -0.7257 -0.3202  0.3207
  181DOPC   H4X22236   0.495   3.051  13.652  0.0925  0.6480 -2.5423
  181DOPC   H4Y22237   0.324   3.002  13.699 -1.6674  0.7756 -0.2344
  181DOPC   C3522238   0.349   3.127  13.519 -0.2628  0.4792  0.0314
  181DOPC   H5X22239   0.247   3.108  13.481 -0.2432  0.8696 -0.2185
  181DOPC   H5Y22240   0.422   3.122  13.435 -1.7140 -1.7756 -1.1887
  181DOPC   C3622241   0.360   3.273  13.574 -0.1676 -0.6372  0.3817
  181DOPC   H6X22242   0.465   3.301  13.597 -0.1862  0.9218 -1.1658
  181DOPC   H6Y22243   0.358   3.349  13.492 -0.0832 -1.2297 -0.1738
  181DOPC   C3722244   0.270   3.313  13.697 -0.1890  0.2620  0.1932
  181DOPC   H7X22245   0.293   3.236  13.773  1.5409 -0.7144 -1.2356
  181DOPC   H7Y22246   0.296   3.409  13.747 -0.9604  0.1511  0.8206
  181DOPC   C3822247   0.115   3.328  13.669 -0.2267  0.0608  0.2478
  181DOPC   H8X22248   0.055   3.316  13.762  0.3207  3.1808  1.1311
  181DOPC   H8Y22249   0.088   3.240  13.608 -0.8114 -0.4284  1.1877
  181DOPC   C3922250   0.074   3.456  13.611  0.3647 -0.1790  0.1659
  181DOPC   H9X22251   0.083   3.462  13.502 -0.6250  1.6512  0.1413
  181DOPC  C31022252   0.040   3.572  13.673  0.5119 -0.3833  0.5797
  181DOPC  H10X22253   0.022   3.661  13.611  1.5995 -0.2996  0.3674
  181DOPC  C31122254   0.033   3.590  13.823 -0.4872 -0.0530 -0.3423
  181DOPC  H11X22255   0.102   3.674  13.845  0.5535 -0.8640 -0.4476
  181DOPC  H11Y22256   0.070   3.501  13.877  1.0028 -0.8877 -2.5986
  181DOPC  C31222257  -0.111   3.611  13.869  0.0718  0.0995 -0.4447
  181DOPC  H12X22258  -0.119   3.611  13.979  1.1398  0.9866 -0.3410
  181DOPC  H12Y22259  -0.170   3.523  13.836  1.1797  0.0255 -2.3789
  181DOPC  C31322260  -0.180   3.737  13.807  0.1503  0.2727  0.4363
  181DOPC  H13X22261  -0.144   3.776  13.710  1.1454 -0.2944  0.5586
  181DOPC  H13Y22262  -0.287   3.710  13.795 -0.1717  1.3390  0.7744
  181DOPC  C31422263  -0.173   3.853  13.906 -0.0130 -0.1307  0.0707
  181DOPC  H14X22264  -0.256   3.923  13.882  0.7746  0.7063 -0.2860
  181DOPC  H14Y22265  -0.192   3.828  14.013  0.1567  1.4693  0.4982
  181DOPC  C31522266  -0.043   3.941  13.896 -0.3529  0.5837  0.3640
  181DOPC  H15X22267  -0.005   3.921  13.794 -2.8219 -0.8592 -0.3774
  181DOPC  H15Y22268   0.030   3.893  13.964  0.6659 -1.2442 -1.8545
  181DOPC  C31622269  -0.054   4.087  13.928  0.2571  0.1655 -0.7114
  181DOPC  H16X22270  -0.135   4.119  13.858  1.0714 -2.0410 -2.8349
  181DOPC  H16Y22271  -0.087   4.105  14.032 -3.4316  3.1998 -2.1604
  181DOPC  C31722272   0.063   4.173  13.888 -0.0346  0.6273  0.4796
  181DOPC  H17X22273   0.050   4.281  13.910  0.6526  0.9091 -0.4294
  181DOPC  H17Y22274   0.146   4.139  13.954 -1.4601 -2.0020  1.0642
  181DOPC  C31822275   0.105   4.168  13.740  0.5507  0.0940  0.0291
  181DOPC  H18X22276   0.113   4.063  13.703  1.2110 -0.0960  0.6944
  181DOPC  H18Y22277   0.035   4.222  13.672  0.6077 -0.8971 -0.8574
  181DOPC  H18Z22278   0.197   4.225  13.719 -0.2417  1.2135 -0.4861
  182DOPC     N22279   2.869   7.235  12.607  0.5043 -0.3075  0.1080
  182DOPC   C1222280   2.894   7.245  12.759 -0.0634 -0.2627  0.6133
  182DOPC  H12A22281   2.918   7.348  12.783 -0.9948 -0.5752  3.1550
  182DOPC  H12B22282   2.977   7.180  12.783 -0.2190 -0.4182  0.7289
  182DOPC   C1322283   2.986   7.286  12.528  0.7726 -0.6668 -0.3027
  182DOPC  H13A22284   3.072   7.227  12.555 -0.4596 -2.6352 -0.4108
  182DOPC  H13B22285   2.971   7.268  12.422 -0.7879 -0.0313 -0.2208
  182DOPC  H13C22286   3.008   7.391  12.540 -1.2085 -0.0469 -1.5461
  182DOPC   C1422287   2.749   7.313  12.563  0.0460  0.2586 -0.6761
  182DOPC  H14A22288   2.669   7.305  12.635  0.8248 -3.1439 -0.0099
  182DOPC  H14B22289   2.774   7.417  12.549 -0.3108  0.1911 -1.9318
  182DOPC  H14C22290   2.710   7.283  12.466  2.3378 -2.5808 -0.8418
  182DOPC   C1522291   2.838   7.088  12.582  0.2649  0.3796  0.2497
  182DOPC  H15A22292   2.927   7.041  12.542  0.0461 -0.1852  0.4169
  182DOPC  H15B22293   2.766   7.087  12.502  1.4028 -3.0786 -0.8869
  182DOPC  H15C22294   2.811   7.035  12.673  1.2626 -0.8073 -0.1236
  182DOPC   C1122295   2.780   7.203  12.852  0.3454 -1.0759 -0.1216
  182DOPC  H11A22296   2.731   7.110  12.818  0.1309 -0.8294 -0.4942
  182DOPC  H11B22297   2.817   7.187  12.956 -0.3223  0.3652  0.3758
  182DOPC     P22298   2.698   7.420  12.960 -0.1763 -0.2504  0.1602
  182DOPC   O1322299   2.607   7.530  12.924 -0.3413  0.2624  0.1801
  182DOPC   O1422300   2.846   7.442  12.963  0.0873  0.3264 -0.0657
  182DOPC   O1222301   2.680   7.307  12.851 -0.2510  0.2560  0.3085
  182DOPC   O1122302   2.655   7.350  13.090  0.2050  0.1024 -0.0919
  182DOPC    C122303   2.528   7.290  13.102  0.8726 -0.1414 -0.5465
  182DOPC    HA22304   2.523   7.185  13.066  0.2601 -0.8796  1.5664
  182DOPC    HB22305   2.458   7.332  13.027 -0.2150  2.0186  1.5526
  182DOPC    C222306   2.448   7.316  13.240  0.6387 -0.2622 -0.7460
  182DOPC    HS22307   2.338   7.313  13.229  0.4970  0.5221  0.2066
  182DOPC   O2122308   2.483   7.441  13.305  0.2351 -0.3410 -0.4201
  182DOPC   C2122309   2.431   7.548  13.245 -0.2760  0.6985 -0.5322
  182DOPC   O2222310   2.351   7.545  13.154  0.2000  0.3267  0.5010
  182DOPC   C2222311   2.458   7.669  13.335 -0.4126 -0.3374 -0.0329
  182DOPC   H2R22312   2.568   7.671  13.346  0.1433 -0.3996 -4.1096
  182DOPC   H2S22313   2.402   7.659  13.431  3.5697  0.1559  2.5580
  182DOPC    C322314   2.485   7.204  13.339 -0.3098  0.6461 -0.1792
  182DOPC    HX22315   2.596   7.201  13.335 -0.3351  0.9313 -1.3464
  182DOPC    HY22316   2.459   7.105  13.295  0.0340  0.3637  0.2417
  182DOPC   O3122317   2.422   7.224  13.472  0.7421  0.0750  0.3204
  182DOPC   C3122318   2.491   7.281  13.567 -0.0786 -0.4180  0.0162
  182DOPC   O3222319   2.609   7.315  13.557  0.4857  0.0663  0.4600
  182DOPC   C3222320   2.414   7.292  13.695 -0.3333  0.0982  0.2102
  182DOPC   H2X22321   2.332   7.367  13.688 -1.0143 -0.4495  1.7716
  182DOPC   H2Y22322   2.359   7.195  13.701 -1.8524  0.9419  0.3885
  182DOPC   C2322323   2.424   7.802  13.263 -0.1765  0.6035  0.3095
  182DOPC   H3R22324   2.336   7.805  13.196 -0.0623  0.1640  0.1410
  182DOPC   H3S22325   2.509   7.817  13.192 -1.2088 -1.6935 -1.5375
  182DOPC   C2422326   2.408   7.921  13.363  0.2971 -0.1999 -0.8835
  182DOPC   H4R22327   2.333   7.894  13.441  1.6152  0.9508  0.8628
  182DOPC   H4S22328   2.373   8.011  13.309  1.4901 -0.1788 -1.6317
  182DOPC   C2522329   2.542   7.944  13.440  0.3219  0.3127  0.1925
  182DOPC   H5R22330   2.611   7.953  13.353 -1.4985  1.2227 -1.2435
  182DOPC   H5S22331   2.560   7.864  13.514  0.7862  0.4683  0.2531
  182DOPC   C2622332   2.543   8.059  13.532 -0.2149 -0.9993  1.0563
  182DOPC   H6R22333   2.478   8.049  13.622  0.3549  0.9661  1.7281
  182DOPC   H6S22334   2.513   8.153  13.481 -0.4836 -1.4772  0.3124
  182DOPC   C2722335   2.682   8.083  13.596  1.0086 -0.1951  0.5227
  182DOPC   H7R22336   2.757   8.102  13.517  0.1757  0.4386 -0.1285
  182DOPC   H7S22337   2.723   7.998  13.656  1.0025  0.5753  1.6506
  182DOPC   C2822338   2.681   8.208  13.688 -0.1756  0.1418  0.2859
  182DOPC   H8R22339   2.769   8.203  13.756 -0.7277 -1.3590  0.9118
  182DOPC   H8S22340   2.589   8.202  13.749 -0.7386  2.0832 -0.2836
  182DOPC   C2922341   2.690   8.343  13.621  0.2904  0.4708  0.4226
  182DOPC   H9R22342   2.756   8.356  13.535 -1.9501 -0.5131 -1.5525
  182DOPC  C21022343   2.603   8.448  13.650  0.4911 -0.2818  0.7000
  182DOPC  H10R22344   2.623   8.540  13.594 -0.1264 -0.5323  0.0518
  182DOPC  C21122345   2.483   8.452  13.745 -0.3037 -0.6855 -0.3078
  182DOPC  H11R22346   2.513   8.454  13.851 -0.0207  1.2565 -0.3924
  182DOPC  H11S22347   2.428   8.357  13.724 -0.6057  0.0149 -3.2027
  182DOPC  C21222348   2.379   8.557  13.708  0.5951 -0.5884  0.1177
  182DOPC  H12R22349   2.427   8.657  13.712 -0.7827  0.1319 -0.5924
  182DOPC  H12S22350   2.296   8.554  13.783 -0.8745 -2.5949 -1.4770
  182DOPC  C21322351   2.312   8.528  13.575  0.5195  0.6282 -0.1265
  182DOPC  H13R22352   2.224   8.463  13.596 -0.1784  0.4155 -3.3092
  182DOPC  H13S22353   2.377   8.483  13.497 -0.1756  0.0615 -0.3854
  182DOPC  C21422354   2.262   8.661  13.510  0.1628  0.0176 -0.0172
  182DOPC  H14R22355   2.348   8.712  13.460 -1.0044  0.7657 -1.3647
  182DOPC  H14S22356   2.222   8.718  13.596 -1.6314 -0.8143 -0.2685
  182DOPC  C21522357   2.141   8.639  13.424  0.0010 -0.0208  0.4739
  182DOPC  H15R22358   2.060   8.588  13.481 -1.0672  0.6051 -0.4514
  182DOPC  H15S22359   2.183   8.574  13.344  0.4379  3.4844 -2.3971
  182DOPC  C21622360   2.099   8.763  13.332  0.1099  0.1786  0.2984
  182DOPC  H16R22361   2.049   8.732  13.238  0.6430  0.9726 -0.2584
  182DOPC  H16S22362   2.195   8.806  13.295  0.3052 -1.7671 -1.5964
  182DOPC  C21722363   2.031   8.878  13.403 -0.0028 -0.0982 -0.0152
  182DOPC  H17R22364   2.018   8.953  13.322  2.6019 -0.6856 -1.0815
  182DOPC  H17S22365   2.096   8.921  13.482  1.5010 -2.4291  0.1095
  182DOPC  C21822366   1.898   8.846  13.470  0.2552  0.5449 -0.4747
  182DOPC  H18R22367   1.850   8.944  13.492 -0.2795  0.3972 -0.9854
  182DOPC  H18S22368   1.914   8.785  13.562 -1.0754 -3.3044 -2.5873
  182DOPC  H18T22369   1.829   8.786  13.407 -2.4459  1.0109  1.8381
  182DOPC   C3322370   2.521   7.321  13.797 -0.6263  0.3331 -0.1211
  182DOPC   H3X22371   2.543   7.430  13.801 -0.4562  0.2743  0.6962
  182DOPC   H3Y22372   2.616   7.266  13.779 -0.1249  1.3298 -0.6851
  182DOPC   C3422373   2.466   7.274  13.938  0.2428 -0.4798  0.7651
  182DOPC   H4X22374   2.424   7.174  13.914 -0.8552  0.2685 -0.5229
  182DOPC   H4Y22375   2.389   7.342  13.981  1.4872  0.4976  1.5190
  182DOPC   C3522376   2.586   7.264  14.038  0.5414  1.2923 -0.5475
  182DOPC   H5X22377   2.642   7.360  14.037  1.5094  0.7345 -1.5153
  182DOPC   H5Y22378   2.662   7.188  14.010 -0.0253  0.4271  0.1881
  182DOPC   C3622379   2.537   7.224  14.176  0.1417 -0.2565 -0.2365
  182DOPC   H6X22380   2.467   7.304  14.210 -0.1879 -0.7023  0.1458
  182DOPC   H6Y22381   2.480   7.129  14.161  1.1616 -0.4564 -3.6098
  182DOPC   C3722382   2.642   7.209  14.285  0.0224  0.0810  0.6538
  182DOPC   H7X22383   2.724   7.139  14.258  1.7675  2.3009 -0.1665
  182DOPC   H7Y22384   2.689   7.310  14.285  1.6132 -0.6220  0.2365
  182DOPC   C3822385   2.590   7.176  14.422  0.4218 -0.6691  0.3165
  182DOPC   H8X22386   2.525   7.258  14.458  1.8836  1.3486 -1.3809
  182DOPC   H8Y22387   2.678   7.179  14.490  0.0500  1.7441  0.7691
  182DOPC   C3922388   2.512   7.043  14.420  0.0506 -0.1867  0.0919
  182DOPC   H9X22389   2.443   7.025  14.337 -0.0055 -2.1407  0.5321
  182DOPC  C31022390   2.513   6.941  14.511  0.6182  0.1932  0.6480
  182DOPC  H10X22391   2.439   6.863  14.489  0.1161  0.0904  2.5472
  182DOPC  C31122392   2.600   6.937  14.631  0.0561 -0.1442  0.2550
  182DOPC  H11X22393   2.638   7.041  14.645 -0.1551 -0.3050  2.4795
  182DOPC  H11Y22394   2.688   6.871  14.616  0.5935  0.3825  0.9830
  182DOPC  C31222395   2.522   6.898  14.766 -0.4354 -0.5230  0.1819
  182DOPC  H12X22396   2.441   6.973  14.780  0.7269  0.6315  0.9232
  182DOPC  H12Y22397   2.582   6.914  14.857 -1.3770 -0.9516  0.8964
  182DOPC  C31322398   2.477   6.750  14.782 -0.6866  0.3032  0.2607
  182DOPC  H13X22399   2.400   6.732  14.704 -0.9576 -0.0019  0.5967
  182DOPC  H13Y22400   2.566   6.686  14.764 -1.6559 -1.5528  1.6825
  182DOPC  C31422401   2.427   6.718  14.918  0.0527  0.0909 -0.4323
  182DOPC  H14X22402   2.514   6.716  14.986 -0.8581  0.1466  0.7707
  182DOPC  H14Y22403   2.356   6.797  14.954  0.5488 -0.0016  0.7926
  182DOPC  C31522404   2.348   6.582  14.915 -0.2253 -0.1039 -0.2614
  182DOPC  H15X22405   2.422   6.502  14.891  1.0601  0.8114  0.5034
  182DOPC  H15Y22406   2.270   6.579  14.836 -0.0310 -0.5716 -0.4417
  182DOPC  C31622407   2.286   6.540  15.057 -0.2863 -0.2050  0.1598
  182DOPC  H16X22408   2.366   6.498  15.122 -0.5367 -2.7612 -1.0554
  182DOPC  H16Y22409   2.266   6.634  15.113 -1.0953 -1.5168  2.1943
  182DOPC  C31722410   2.170   6.440  15.057 -0.5870 -0.3030 -0.2350
  182DOPC  H17X22411   2.131   6.430  15.161 -0.6394  1.0240 -0.1110
  182DOPC  H17Y22412   2.094   6.474  14.984 -0.5015 -2.0699 -1.2008
  182DOPC  C31822413   2.202   6.298  15.010 -0.0873 -0.2290 -0.1910
  182DOPC  H18X22414   2.276   6.259  15.083  0.6662  1.3734 -0.0687
  182DOPC  H18Y22415   2.107   6.240  15.013 -1.6258  2.0889 -0.8461
  182DOPC  H18Z22416   2.255   6.303  14.913  2.5672 -1.0883  1.1111
  183DOPC     N22417   7.030   5.083  13.127 -0.3077  0.2512  0.2690
  183DOPC   C1222418   6.974   4.976  13.228 -0.1288  0.0653 -0.5867
  183DOPC  H12A22419   6.909   5.033  13.292 -0.6860 -1.5280  0.3093
  183DOPC  H12B22420   7.057   4.937  13.285 -0.3240 -0.2822 -0.5336
  183DOPC   C1322421   7.144   5.151  13.191 -0.0170 -0.3670 -0.1059
  183DOPC  H13A22422   7.235   5.092  13.197  0.3448 -0.0521 -1.9282
  183DOPC  H13B22423   7.180   5.231  13.128  0.2395 -0.5683 -0.2155
  183DOPC  H13C22424   7.122   5.196  13.286 -1.0192 -0.5283 -0.2522
  183DOPC   C1422425   6.918   5.178  13.106  0.1260 -0.2146 -0.0219
  183DOPC  H14A22426   6.837   5.118  13.067  1.7398 -1.7652 -1.1649
  183DOPC  H14B22427   6.884   5.225  13.197 -0.6178  1.8377 -1.2914
  183DOPC  H14C22428   6.933   5.260  13.037 -2.8226  0.8133  0.4034
  183DOPC   C1522429   7.072   5.028  12.999  0.4170  0.2522  0.3587
  183DOPC  H15A22430   6.983   4.982  12.957  0.2044  0.7721  0.2310
  183DOPC  H15B22431   7.151   4.956  13.007  1.8064  1.6726 -0.0997
  183DOPC  H15C22432   7.094   5.108  12.930 -1.1076  0.1506 -0.2899
  183DOPC   C1122433   6.879   4.869  13.165  0.5568 -0.3848  0.5642
  183DOPC  H11A22434   6.921   4.827  13.071  0.5162 -1.1287  0.8634
  183DOPC  H11B22435   6.877   4.781  13.233 -0.2771  1.4773  3.0856
  183DOPC     P22436   6.618   4.841  13.200 -0.0840 -0.0965 -0.1024
  183DOPC   O1322437   6.609   4.700  13.150 -0.3852 -0.2624 -0.1169
  183DOPC   O1422438   6.505   4.928  13.176  0.4633  0.2119  0.1891
  183DOPC   O1222439   6.741   4.915  13.147 -0.0180  0.8767 -0.0080
  183DOPC   O1122440   6.660   4.837  13.355 -0.5019 -0.1672 -0.1109
  183DOPC    C122441   6.587   4.765  13.451 -0.3749 -0.0526 -0.0639
  183DOPC    HA22442   6.527   4.681  13.410  1.0630 -0.2040 -1.9964
  183DOPC    HB22443   6.521   4.838  13.503 -0.1722  0.8914 -1.0948
  183DOPC    C222444   6.683   4.685  13.547  0.3999 -0.9740  0.6568
  183DOPC    HS22445   6.625   4.618  13.614 -0.5410 -1.1731 -0.3278
  183DOPC   O2122446   6.772   4.784  13.609 -0.3313  0.1938  0.1891
  183DOPC   C2122447   6.727   4.820  13.736 -0.0779 -0.2898 -0.2114
  183DOPC   O2222448   6.619   4.788  13.785  0.0235 -0.2883  0.0740
  183DOPC   C2222449   6.832   4.915  13.799  0.4853  0.3651 -0.0134
  183DOPC   H2R22450   6.783   5.014  13.806 -0.9851 -0.2666 -1.0305
  183DOPC   H2S22451   6.923   4.923  13.736  0.9462 -0.4522  0.5255
  183DOPC    C322452   6.772   4.589  13.461 -0.0580 -0.2444  0.2973
  183DOPC    HX22453   6.844   4.656  13.410  1.2828 -1.4728  0.5235
  183DOPC    HY22454   6.714   4.533  13.385  0.1924 -0.9126  0.5911
  183DOPC   O3122455   6.844   4.500  13.545  0.1042  0.2495 -0.1239
  183DOPC   C3122456   6.787   4.379  13.576 -0.1440 -0.3870  0.3702
  183DOPC   O3222457   6.680   4.341  13.537  0.9446  0.2263 -0.4991
  183DOPC   C3222458   6.881   4.311  13.672 -0.3592  0.5336 -0.0890
  183DOPC   H2X22459   6.948   4.242  13.616  1.4582 -0.6770  3.2960
  183DOPC   H2Y22460   6.954   4.376  13.724 -0.4673  0.9357 -0.4361
  183DOPC   C2322461   6.878   4.875  13.943 -0.4795 -0.0929 -0.0701
  183DOPC   H3R22462   6.789   4.843  14.001  0.0759  0.9365  1.3977
  183DOPC   H3S22463   6.911   4.972  13.986  0.6681 -0.1107 -0.8712
  183DOPC   C2422464   6.990   4.776  13.951 -0.3046 -0.2710 -0.2775
  183DOPC   H4R22465   7.061   4.791  13.868  0.4392 -1.2001  0.1659
  183DOPC   H4S22466   6.945   4.674  13.940  0.7885 -0.7002 -0.8882
  183DOPC   C2522467   7.070   4.779  14.082 -0.8143 -0.3207  0.0339
  183DOPC   H5R22468   7.105   4.885  14.089 -1.1586 -0.2906  1.8032
  183DOPC   H5S22469   7.154   4.709  14.065 -1.4162 -0.7589 -1.2635
  183DOPC   C2622470   7.004   4.749  14.210  0.1542 -0.4359 -0.0712
  183DOPC   H6R22471   6.957   4.648  14.204  0.5600 -0.6424  0.1391
  183DOPC   H6S22472   6.929   4.827  14.230 -0.3623 -0.9278 -0.0588
  183DOPC   C2722473   7.111   4.768  14.321  0.5302 -0.2740  0.1510
  183DOPC   H7R22474   7.056   4.805  14.411  2.0404  0.1926  0.9257
  183DOPC   H7S22475   7.186   4.845  14.294  2.7734 -3.1010 -2.3351
  183DOPC   C2822476   7.193   4.646  14.360  0.5818 -0.1945 -0.0708
  183DOPC   H8R22477   7.235   4.606  14.265 -0.7154 -3.1581  0.4878
  183DOPC   H8S22478   7.123   4.566  14.394 -1.6879  1.7969  0.1484
  183DOPC   C2922479   7.293   4.683  14.469 -0.3483  0.5458  0.5818
  183DOPC   H9R22480   7.318   4.789  14.488  0.6554  0.2219  1.2150
  183DOPC  C21022481   7.361   4.591  14.545 -0.3120 -0.1313 -0.6129
  183DOPC  H10R22482   7.429   4.621  14.627 -1.8381  0.2366  0.5754
  183DOPC  C21122483   7.343   4.440  14.558 -0.8534  0.0823  0.4045
  183DOPC  H11R22484   7.248   4.408  14.508 -1.6342  0.0118  1.8624
  183DOPC  H11S22485   7.320   4.410  14.663 -0.7907  1.1493  0.7351
  183DOPC  C21222486   7.468   4.352  14.514 -0.5444 -0.1427  0.0154
  183DOPC  H12R22487   7.463   4.263  14.581 -1.8369 -0.8232 -0.9342
  183DOPC  H12S22488   7.552   4.420  14.538  0.1744 -0.7818 -0.6299
  183DOPC  C21322489   7.458   4.317  14.367  0.1956  1.1300 -0.4769
  183DOPC  H13R22490   7.473   4.403  14.299 -0.0633 -0.3340 -2.4913
  183DOPC  H13S22491   7.353   4.286  14.347  0.1750  1.3785 -0.7630
  183DOPC  C21422492   7.560   4.219  14.308 -0.2473  0.4314  0.5063
  183DOPC  H14R22493   7.534   4.206  14.201  0.4344 -0.3920  0.4314
  183DOPC  H14S22494   7.541   4.123  14.360 -0.9905 -0.8079 -1.9086
  183DOPC  C21522495   7.704   4.257  14.327  0.1807 -0.3445 -0.2576
  183DOPC  H15R22496   7.775   4.184  14.282  1.8925  0.6847  0.6829
  183DOPC  H15S22497   7.721   4.250  14.437 -0.9681 -2.0579 -0.1532
  183DOPC  C21622498   7.743   4.386  14.259  0.4296 -0.3106  0.2006
  183DOPC  H16R22499   7.684   4.465  14.310 -1.5466 -0.1059 -2.2347
  183DOPC  H16S22500   7.704   4.389  14.156 -0.3461  2.9337  0.4674
  183DOPC  C21722501   7.893   4.414  14.251 -0.8803  0.5779  0.0302
  183DOPC  H17R22502   7.936   4.333  14.188  0.8927  1.9456 -0.5941
  183DOPC  H17S22503   7.941   4.418  14.352 -0.0987  1.2169 -0.3595
  183DOPC  C21822504   7.924   4.548  14.187  0.5822  0.3149 -0.3160
  183DOPC  H18R22505   7.917   4.532  14.077  0.1162  1.8343 -0.5178
  183DOPC  H18S22506   8.030   4.581  14.193  0.0258  1.8528  1.5857
  183DOPC  H18T22507   7.862   4.633  14.221 -2.4424 -1.4940 -0.8722
  183DOPC   C3322508   6.815   4.230  13.788  0.3800  0.2429  0.0694
  183DOPC   H3X22509   6.892   4.163  13.831 -0.6736 -0.6953  0.5632
  183DOPC   H3Y22510   6.728   4.174  13.745 -1.0159  1.5075  1.1445
  183DOPC   C3422511   6.769   4.316  13.911  0.1654  0.3285  0.4322
  183DOPC   H4X22512   6.861   4.376  13.928  0.8722 -1.3346  2.9893
  183DOPC   H4Y22513   6.748   4.254  14.001 -0.7455  0.6804  0.4668
  183DOPC   C3522514   6.640   4.403  13.882 -0.2752 -0.3248  0.0116
  183DOPC   H5X22515   6.560   4.343  13.834  0.6230 -0.5981 -1.2103
  183DOPC   H5Y22516   6.674   4.481  13.810 -1.8599  1.2833  0.9239
  183DOPC   C3622517   6.581   4.469  14.010 -0.0082  0.0030  0.5158
  183DOPC   H6X22518   6.485   4.516  13.977 -0.1034  0.0066  0.7941
  183DOPC   H6Y22519   6.567   4.386  14.082  1.1801  0.2618  1.0607
  183DOPC   C3722520   6.670   4.580  14.075  0.4720  0.0297 -0.5339
  183DOPC   H7X22521   6.774   4.544  14.086 -0.3698 -2.7983 -1.1088
  183DOPC   H7Y22522   6.670   4.666  14.004  1.6448 -0.0120 -0.5913
  183DOPC   C3822523   6.618   4.631  14.207  0.9251  0.4212 -0.0769
  183DOPC   H8X22524   6.701   4.690  14.251  2.9084 -1.9192 -0.4432
  183DOPC   H8Y22525   6.602   4.547  14.278 -1.3367 -0.3011 -1.3403
  183DOPC   C3922526   6.486   4.705  14.195 -0.5787 -0.1466  0.5186
  183DOPC   H9X22527   6.503   4.795  14.133 -0.6969 -0.9229 -0.6751
  183DOPC  C31022528   6.371   4.686  14.260 -0.3948  0.0120  0.4480
  183DOPC  H10X22529   6.290   4.756  14.236  0.4659  0.6998 -0.5105
  183DOPC  C31122530   6.352   4.586  14.364  0.4119  0.5861  0.0188
  183DOPC  H11X22531   6.442   4.522  14.381  0.7920  0.5213 -1.9595
  183DOPC  H11Y22532   6.278   4.511  14.330  0.7413  0.7496 -1.1295
  183DOPC  C31222533   6.311   4.648  14.498 -0.0297 -0.3633 -0.9644
  183DOPC  H12X22534   6.378   4.727  14.540 -0.0704 -0.7100 -0.2231
  183DOPC  H12Y22535   6.316   4.568  14.575  0.7687 -0.0356 -0.6560
  183DOPC  C31322536   6.168   4.709  14.506  0.5264  0.2144 -0.3579
  183DOPC  H13X22537   6.092   4.653  14.447  2.0674  0.8181 -3.0985
  183DOPC  H13Y22538   6.139   4.711  14.613  2.0667 -1.6830  0.1538
  183DOPC  C31422539   6.145   4.860  14.464 -0.6705  0.2180  0.0154
  183DOPC  H14X22540   6.214   4.917  14.529  0.2846 -0.1715 -0.6227
  183DOPC  H14Y22541   6.176   4.876  14.358  0.4440 -0.4208  0.2242
  183DOPC  C31522542   6.004   4.905  14.485  0.5540 -0.2423 -0.7930
  183DOPC  H15X22543   5.943   4.837  14.421  0.4392 -1.0293  0.1207
  183DOPC  H15Y22544   5.995   5.012  14.458  1.4630  0.2461  0.7195
  183DOPC  C31622545   5.960   4.892  14.633 -0.6129  0.0669  0.4643
  183DOPC  H16X22546   5.946   4.783  14.647  0.0498 -0.1347 -0.3677
  183DOPC  H16Y22547   6.045   4.921  14.700 -1.5163  1.8757  0.8950
  183DOPC  C31722548   5.838   4.986  14.663 -0.0992  0.0098 -0.0130
  183DOPC  H17X22549   5.799   4.959  14.763  2.9265 -0.4165  1.1467
  183DOPC  H17Y22550   5.871   5.092  14.665  2.5810 -0.6543 -2.2228
  183DOPC  C31822551   5.724   4.975  14.561  0.2716  0.2640 -0.0542
  183DOPC  H18X22552   5.634   5.029  14.595  0.3129  0.6976 -0.6146
  183DOPC  H18Y22553   5.768   5.016  14.467  1.7260 -2.3090 -0.6037
  183DOPC  H18Z22554   5.704   4.866  14.548  0.7189  0.1944 -0.1867
  184DOPC     N22555   4.957   0.296  12.792  0.3441  0.0395  0.0310
  184DOPC   C1222556   4.847   0.192  12.762 -0.9305 -0.2879  0.0270
  184DOPC  H12A22557   4.892   0.125  12.691  0.5077  0.2579  0.3881
  184DOPC  H12B22558   4.759   0.228  12.710 -0.9642 -1.3619 -0.6908
  184DOPC   C1322559   5.073   0.235  12.859 -0.9019 -0.3661  0.3756
  184DOPC  H13A22560   5.051   0.198  12.958  2.1316  0.5755  1.5357
  184DOPC  H13B22561   5.119   0.156  12.801  0.1315  0.8300 -0.4900
  184DOPC  H13C22562   5.151   0.309  12.876 -0.8421 -0.8764  2.6171
  184DOPC   C1422563   4.891   0.399  12.878 -0.1164 -0.1949  0.1479
  184DOPC  H14A22564   4.956   0.485  12.888 -1.0044  0.4442  0.5111
  184DOPC  H14B22565   4.806   0.450  12.836  1.3865  3.3179  1.0126
  184DOPC  H14C22566   4.861   0.350  12.970  1.7415 -0.3075  0.7542
  184DOPC   C1522567   4.991   0.370  12.669 -0.3854 -0.6658  0.0496
  184DOPC  H15A22568   5.078   0.435  12.675 -1.2637  0.6771 -0.9883
  184DOPC  H15B22569   4.906   0.431  12.641 -0.8527 -1.5105 -0.3992
  184DOPC  H15C22570   5.010   0.307  12.584 -1.0337  1.0205 -1.4246
  184DOPC   C1122571   4.804   0.109  12.884  0.7719  0.4238  0.2686
  184DOPC  H11A22572   4.742   0.023  12.850 -0.2216  0.8014  1.0720
  184DOPC  H11B22573   4.891   0.080  12.947 -0.3614  2.3312  2.8649
  184DOPC     P22574   4.652   0.130  13.093 -0.2382  0.3765 -0.4325
  184DOPC   O1322575   4.522   0.071  13.059 -0.4539  0.1393 -0.2880
  184DOPC   O1422576   4.647   0.235  13.195 -0.7530 -0.0886 -0.4935
  184DOPC   O1222577   4.722   0.190  12.968 -0.1556 -0.2551  0.3106
  184DOPC   O1122578   4.748   0.014  13.137 -0.2215 -0.0381  0.1020
  184DOPC    C122579   4.797   0.003  13.267 -0.3988 -0.3165  0.3307
  184DOPC    HA22580   4.838  -0.097  13.292 -0.2104 -0.0108  1.2896
  184DOPC    HB22581   4.710   0.013  13.336 -0.7142  1.3899 -0.2768
  184DOPC    C222582   4.909   0.101  13.310 -0.0693  0.9906  0.0690
  184DOPC    HS22583   4.918   0.197  13.256  2.4373  0.5010 -0.4900
  184DOPC   O2122584   5.030   0.032  13.297  0.6192 -0.1009  0.1119
  184DOPC   C2122585   5.149   0.098  13.298  0.4170 -0.2023  0.9582
  184DOPC   O2222586   5.156   0.220  13.314 -0.1439 -0.5175 -0.2070
  184DOPC   C2222587   5.265   0.005  13.305 -0.7385  0.3259 -0.4889
  184DOPC   H2R22588   5.329   0.031  13.218 -0.4368 -0.6844 -0.5827
  184DOPC   H2S22589   5.233  -0.102  13.303  1.2868 -0.3604  0.8767
  184DOPC    C322590   4.899   0.135  13.464 -0.0250 -0.0546  0.4418
  184DOPC    HX22591   4.986   0.192  13.503  0.9139  0.9569 -2.8643
  184DOPC    HY22592   4.898   0.036  13.514 -1.7120  0.0792  0.7219
  184DOPC   O3122593   4.771   0.181  13.509  0.0564 -0.9094  0.2119
  184DOPC   C3122594   4.766   0.312  13.506 -0.7827 -0.1000  0.3482
  184DOPC   O3222595   4.857   0.384  13.475 -0.8063 -0.3221 -0.1547
  184DOPC   C3222596   4.637   0.354  13.565 -1.1488  0.0643 -0.7385
  184DOPC   H2X22597   4.560   0.299  13.507  0.3491 -0.8399 -1.9430
  184DOPC   H2Y22598   4.640   0.325  13.673  1.1108  1.0495 -0.4935
  184DOPC   C2322599   5.344   0.032  13.442  0.8351 -0.4544  0.4104
  184DOPC   H3R22600   5.359   0.140  13.459  3.1012 -0.4789 -1.0413
  184DOPC   H3S22601   5.446  -0.012  13.431  1.7251  1.9680 -1.8371
  184DOPC   C2422602   5.284  -0.043  13.565 -0.2591  0.2162  0.7071
  184DOPC   H4R22603   5.254  -0.146  13.538 -1.4289  0.1055  2.2806
  184DOPC   H4S22604   5.189   0.001  13.603 -0.0846  0.2040  1.1663
  184DOPC   C2522605   5.381  -0.055  13.676 -0.2274 -0.3165 -0.2699
  184DOPC   H5R22606   5.409   0.041  13.725  0.9264 -2.2115  3.1423
  184DOPC   H5S22607   5.477  -0.100  13.640 -0.0441 -0.1973  0.0735
  184DOPC   C2622608   5.324  -0.160  13.773 -0.1514 -0.0439 -0.4207
  184DOPC   H6R22609   5.320  -0.259  13.722 -0.7767 -1.6318  2.4657
  184DOPC   H6S22610   5.223  -0.158  13.820  0.0503 -1.8186  0.1669
  184DOPC   C2722611   5.426  -0.192  13.889  0.5974 -0.1690 -1.2567
  184DOPC   H7R22612   5.524  -0.213  13.840 -0.1123  0.7597 -3.1525
  184DOPC   H7S22613   5.398  -0.281  13.950 -0.2755  0.8792 -0.1024
  184DOPC   C2822614   5.461  -0.072  13.980  0.2448 -0.5538  0.7780
  184DOPC   H8R22615   5.502   0.005  13.911 -0.0748 -0.2346  0.9426
  184DOPC   H8S22616   5.541  -0.110  14.048  1.6628 -1.4171 -1.2704
  184DOPC   C2922617   5.353  -0.007  14.056  0.3252  0.2535  0.7797
  184DOPC   H9R22618   5.279   0.053  14.001  0.9622  0.5103  0.1904
  184DOPC  C21022619   5.343   0.003  14.192  0.3682  0.4157 -0.4080
  184DOPC  H10R22620   5.251   0.049  14.232  0.3604  1.2710 -1.3834
  184DOPC  C21122621   5.429  -0.069  14.298  0.3300 -0.9202 -0.0664
  184DOPC  H11R22622   5.537  -0.042  14.296  0.9456 -3.1510  0.5293
  184DOPC  H11S22623   5.432  -0.179  14.288  1.2050 -0.8806 -0.2889
  184DOPC  C21222624   5.387  -0.030  14.444 -0.1315  0.1420 -0.2681
  184DOPC  H12R22625   5.374   0.080  14.449 -1.6213 -0.0454  0.8454
  184DOPC  H12S22626   5.467  -0.063  14.513  0.1992  2.2758  0.4294
  184DOPC  C21322627   5.252  -0.096  14.475  0.7911  0.2295 -0.6372
  184DOPC  H13R22628   5.264  -0.206  14.480 -2.0304 -0.2205 -1.6643
  184DOPC  H13S22629   5.172  -0.085  14.398 -0.1923 -1.9784 -0.0088
  184DOPC  C21422630   5.205  -0.032  14.614  0.5253 -0.2131  0.1061
  184DOPC  H14R22631   5.204   0.077  14.597 -3.1097 -0.2716 -0.9182
  184DOPC  H14S22632   5.274  -0.057  14.697 -0.8957  1.7243  1.9780
  184DOPC  C21522633   5.062  -0.076  14.661 -0.5144 -0.9816  0.4390
  184DOPC  H15R22634   4.989  -0.042  14.585 -1.1041  1.5848  2.0378
  184DOPC  H15S22635   5.044  -0.010  14.748 -0.3345  0.5614 -0.6666
  184DOPC  C21622636   5.045  -0.227  14.689  0.1727  0.2172  1.2760
  184DOPC  H16R22637   5.125  -0.261  14.757  1.4847  0.1697 -0.2409
  184DOPC  H16S22638   5.043  -0.285  14.595 -0.8198  1.2858  0.6015
  184DOPC  C21722639   4.917  -0.264  14.771  0.1781 -0.6659 -0.8125
  184DOPC  H17R22640   4.923  -0.224  14.874  0.4555 -3.0960  0.1747
  184DOPC  H17S22641   4.915  -0.372  14.795 -1.0405  0.0931  3.1794
  184DOPC  C21822642   4.790  -0.210  14.708  0.3125 -0.1516  0.3243
  184DOPC  H18R22643   4.693  -0.222  14.759 -1.0421  0.3258 -2.0065
  184DOPC  H18S22644   4.785  -0.266  14.612  1.4422  1.1688 -0.5625
  184DOPC  H18T22645   4.798  -0.102  14.684 -0.8069 -0.1208  0.0592
  184DOPC   C3322646   4.601   0.502  13.542 -0.3362  0.3179 -0.5155
  184DOPC   H3X22647   4.595   0.511  13.432  2.4357  1.3023 -0.6683
  184DOPC   H3Y22648   4.690   0.566  13.561 -0.4706 -0.0092  1.4102
  184DOPC   C3422649   4.473   0.551  13.612 -0.1392 -0.4100  0.3298
  184DOPC   H4X22650   4.399   0.485  13.562 -0.2081 -0.1722  0.1154
  184DOPC   H4Y22651   4.450   0.656  13.582  1.4758  0.2976  1.3734
  184DOPC   C3522652   4.467   0.525  13.757 -0.7520  0.2663 -0.7868
  184DOPC   H5X22653   4.558   0.574  13.799 -0.1846 -1.6012  0.2642
  184DOPC   H5Y22654   4.479   0.419  13.785 -2.2419  0.4695  0.7926
  184DOPC   C3622655   4.339   0.596  13.815 -0.5141  0.4221 -0.5116
  184DOPC   H6X22656   4.325   0.690  13.758 -2.3374  0.6665  0.2525
  184DOPC   H6Y22657   4.249   0.540  13.781 -1.7656 -0.5832  3.7446
  184DOPC   C3722658   4.326   0.622  13.966  0.0457 -0.9002  0.0953
  184DOPC   H7X22659   4.349   0.523  14.009  1.1313 -0.5089  0.4380
  184DOPC   H7Y22660   4.403   0.695  13.999 -0.3478 -0.7137  0.6141
  184DOPC   C3822661   4.186   0.672  14.020 -0.0108 -0.6862 -0.6426
  184DOPC   H8X22662   4.149   0.753  13.954 -1.5411  0.4596  1.5007
  184DOPC   H8Y22663   4.203   0.723  14.117  1.6851 -2.4758  0.0770
  184DOPC   C3922664   4.086   0.560  14.029  0.0311  0.4637  0.3954
  184DOPC   H9X22665   4.022   0.546  13.941  1.4445  0.2033 -0.6299
  184DOPC  C31022666   4.071   0.473  14.131  0.3828 -0.3005  0.5765
  184DOPC  H10X22667   3.992   0.399  14.112  2.2256 -1.8696 -1.5095
  184DOPC  C31122668   4.158   0.470  14.258 -0.4996 -0.3490  0.3303
  184DOPC  H11X22669   4.240   0.544  14.255  0.3553 -1.1803  2.0338
  184DOPC  H11Y22670   4.195   0.366  14.265  2.9718  0.8152  1.0194
  184DOPC  C31222671   4.078   0.479  14.391 -0.3481  0.3401  0.8224
  184DOPC  H12X22672   4.006   0.562  14.374 -2.3415 -1.7683 -1.9883
  184DOPC  H12Y22673   4.145   0.496  14.478  1.1865  1.3967 -0.4777
  184DOPC  C31322674   3.991   0.351  14.416  0.0649  0.0982 -0.4479
  184DOPC  H13X22675   3.925   0.332  14.328 -1.6550  1.3138  0.5287
  184DOPC  H13Y22676   4.060   0.265  14.434  1.7923  1.4406 -0.4541
  184DOPC  C31422677   3.905   0.353  14.541 -0.6025 -0.7696 -0.4096
  184DOPC  H14X22678   3.894   0.258  14.599 -0.8951 -1.3204 -1.3460
  184DOPC  H14Y22679   3.967   0.414  14.610  0.3080 -1.1847 -0.8443
  184DOPC  C31522680   3.772   0.425  14.515  0.0030  0.0400  0.0307
  184DOPC  H15X22681   3.786   0.511  14.445 -2.4702  0.8116  0.3773
  184DOPC  H15Y22682   3.734   0.476  14.606  0.7858  1.0718 -0.2030
  184DOPC  C31622683   3.669   0.322  14.464  0.6901  0.0199 -0.0731
  184DOPC  H16X22684   3.578   0.369  14.422  1.5407  0.8369 -1.0924
  184DOPC  H16Y22685   3.724   0.277  14.378  0.4427  1.1139 -0.8277
  184DOPC  C31722686   3.624   0.216  14.563 -0.5603  0.6553  0.1108
  184DOPC  H17X22687   3.595   0.140  14.489 -0.9642  0.1550  0.7699
  184DOPC  H17Y22688   3.707   0.175  14.625  0.1729 -0.5542 -1.5991
  184DOPC  C31822689   3.495   0.255  14.650  0.0124  0.3712  0.3996
  184DOPC  H18X22690   3.406   0.232  14.589  1.5259 -0.0507 -1.7913
  184DOPC  H18Y22691   3.498   0.198  14.746  2.7525  0.7955  0.6551
  184DOPC  H18Z22692   3.506   0.361  14.683  0.9448  1.1877 -2.2831
  185DOPC     N22693   5.941   4.197  12.839 -0.1434 -0.0951 -0.4308
  185DOPC   C1222694   6.065   4.225  12.925 -0.0830  0.1685 -0.0792
  185DOPC  H12A22695   6.109   4.322  12.905  1.0331 -0.5932 -1.4801
  185DOPC  H12B22696   6.146   4.155  12.908 -0.3120 -0.0523 -0.2626
  185DOPC   C1322697   5.832   4.298  12.876  0.1708  0.2956  0.3012
  185DOPC  H13A22698   5.788   4.278  12.973 -0.7295  1.9169  0.2856
  185DOPC  H13B22699   5.881   4.394  12.886  1.7157 -0.1639 -2.0840
  185DOPC  H13C22700   5.759   4.298  12.796  1.3970 -1.0244 -0.8636
  185DOPC   C1422701   5.876   4.063  12.859 -0.1360  0.2852  0.4898
  185DOPC  H14A22702   5.801   4.052  12.783 -2.9594  0.3155  3.0821
  185DOPC  H14B22703   5.954   3.988  12.851 -1.0316 -0.6512  0.2895
  185DOPC  H14C22704   5.824   4.054  12.954  0.2234 -1.8539  0.5404
  185DOPC   C1522705   5.974   4.215  12.691  0.0892 -0.0370 -0.7009
  185DOPC  H15A22706   6.057   4.163  12.646  0.6536  1.2815 -1.2402
  185DOPC  H15B22707   5.992   4.318  12.662  0.6245  0.0667 -0.0254
  185DOPC  H15C22708   5.888   4.181  12.636 -0.3509  0.2376 -0.1929
  185DOPC   C1122709   6.053   4.211  13.081  0.9793  0.3163 -0.4879
  185DOPC  H11A22710   6.032   4.105  13.107 -1.1712  0.4985 -1.3520
  185DOPC  H11B22711   6.159   4.231  13.110  1.0009 -0.0858 -0.2715
  185DOPC     P22712   5.975   4.400  13.236  0.2568 -0.1267  0.1714
  185DOPC   O1322713   5.850   4.472  13.270  0.0177 -0.3306 -0.1081
  185DOPC   O1422714   6.083   4.487  13.191 -0.3025  0.0717 -0.0562
  185DOPC   O1222715   5.946   4.293  13.128  0.1238 -0.0923 -0.3610
  185DOPC   O1122716   6.022   4.315  13.365  0.1724 -0.5489 -0.0395
  185DOPC    C122717   5.932   4.279  13.464  0.5984 -0.6905 -0.6632
  185DOPC    HA22718   5.977   4.188  13.509 -0.9842 -1.6585 -0.9382
  185DOPC    HB22719   5.838   4.240  13.420 -0.3466  0.6732  0.0653
  185DOPC    C222720   5.908   4.386  13.568  0.5478 -0.8389 -0.7312
  185DOPC    HS22721   5.875   4.479  13.517  2.9592 -0.0833 -1.0429
  185DOPC   O2122722   6.022   4.404  13.654 -0.2005 -0.4641 -0.1071
  185DOPC   C2122723   6.079   4.525  13.649  0.3337  0.2030  0.4458
  185DOPC   O2222724   6.039   4.618  13.587 -0.1473 -0.3477  0.2186
  185DOPC   C2222725   6.203   4.524  13.740 -0.6337  0.2627  0.7853
  185DOPC   H2R22726   6.280   4.475  13.676 -2.7903 -0.7654 -1.2023
  185DOPC   H2S22727   6.190   4.455  13.826  1.4775  2.0130  2.6206
  185DOPC    C322728   5.780   4.351  13.654  0.4577 -0.5394 -0.9425
  185DOPC    HX22729   5.795   4.250  13.697  2.9171  0.9339  2.0462
  185DOPC    HY22730   5.693   4.353  13.585  0.1870 -2.7015 -0.7263
  185DOPC   O3122731   5.764   4.446  13.767  0.4275 -0.2079 -0.0438
  185DOPC   C3122732   5.730   4.570  13.727  0.7081 -0.4503 -0.0373
  185DOPC   O3222733   5.684   4.601  13.618 -0.0788  1.1979  0.3628
  185DOPC   C3222734   5.757   4.665  13.844  0.1988 -0.6263  0.5942
  185DOPC   H2X22735   5.692   4.643  13.932  2.0875 -2.2528  1.6738
  185DOPC   H2Y22736   5.862   4.640  13.870  0.4643  1.9119  2.3125
  185DOPC   C2322737   6.242   4.676  13.769  0.0748  0.3216 -0.3051
  185DOPC   H3R22738   6.240   4.743  13.681  2.1612  1.9897  0.8130
  185DOPC   H3S22739   6.350   4.669  13.793  0.6085  0.3770 -2.5142
  185DOPC   C2422740   6.167   4.739  13.888 -0.0743  0.5538  0.0906
  185DOPC   H4R22741   6.193   4.688  13.983  0.9426  1.9354  0.5794
  185DOPC   H4S22742   6.057   4.728  13.874  0.2060 -3.6408  0.0454
  185DOPC   C2522743   6.202   4.891  13.897  0.4600  0.0888  0.2507
  185DOPC   H5R22744   6.155   4.953  13.818 -1.5826 -0.6309  0.8295
  185DOPC   H5S22745   6.312   4.898  13.886  0.5977 -0.2013  1.3026
  185DOPC   C2622746   6.158   4.946  14.035  0.2654  0.1024  0.9224
  185DOPC   H6R22747   6.193   4.888  14.123 -1.1077  0.1860  1.5406
  185DOPC   H6S22748   6.047   4.945  14.033  0.0382  1.9785 -4.0851
  185DOPC   C2722749   6.191   5.097  14.045  0.4810 -0.1896 -0.3954
  185DOPC   H7R22750   6.148   5.148  13.957  0.3764 -0.8377 -0.7250
  185DOPC   H7S22751   6.302   5.111  14.042  0.2353  2.2527 -0.3444
  185DOPC   C2822752   6.123   5.159  14.168 -0.3736  0.4133 -0.2120
  185DOPC   H8R22753   6.133   5.086  14.251  1.4826  2.4704  1.4969
  185DOPC   H8S22754   6.015   5.166  14.142 -0.0054  0.2165 -1.8597
  185DOPC   C2922755   6.188   5.290  14.207 -0.3567  0.1734  0.4874
  185DOPC   H9R22756   6.195   5.347  14.114  1.3382 -0.2980  0.2893
  185DOPC  C21022757   6.250   5.321  14.323  0.3981 -1.0889 -0.0019
  185DOPC  H10R22758   6.297   5.420  14.331 -0.9328 -0.5043  0.8952
  185DOPC  C21122759   6.270   5.229  14.446  0.1455 -0.4097  0.5875
  185DOPC  H11R22760   6.378   5.233  14.472  0.5162 -2.2063 -0.4860
  185DOPC  H11S22761   6.243   5.123  14.427 -1.4447  0.2196 -1.0283
  185DOPC  C21222762   6.192   5.276  14.573  0.1970  0.6236 -0.5272
  185DOPC  H12R22763   6.085   5.284  14.544  0.3803  0.8504 -1.1755
  185DOPC  H12S22764   6.234   5.371  14.614  3.6723 -2.1447  3.0169
  185DOPC  C21322765   6.206   5.186  14.695  0.0349 -0.1472  0.1513
  185DOPC  H13R22766   6.309   5.193  14.736 -0.3236  0.3777  1.0048
  185DOPC  H13S22767   6.179   5.082  14.667  0.4047 -0.4866  1.0149
  185DOPC  C21422768   6.107   5.220  14.812 -0.3090 -0.3508  0.0694
  185DOPC  H14R22769   6.111   5.138  14.887 -0.2500  0.4906  1.0265
  185DOPC  H14S22770   6.001   5.219  14.779 -0.2894  0.9205 -0.0911
  185DOPC  C21522771   6.121   5.353  14.884  0.4219 -0.3640 -0.3811
  185DOPC  H15R22772   6.027   5.374  14.939 -0.8475 -0.9346 -2.2770
  185DOPC  H15S22773   6.136   5.429  14.805 -0.6987 -1.2833 -1.5029
  185DOPC  C21622774   6.230   5.355  14.991  0.0168 -0.5895 -0.2048
  185DOPC  H16R22775   6.245   5.461  15.020  0.2401 -0.2719 -1.4344
  185DOPC  H16S22776   6.333   5.325  14.964  0.7865  0.3904  1.4632
  185DOPC  C21722777   6.201   5.261  15.118  0.1798 -0.2831 -0.1282
  185DOPC  H17R22778   6.212   5.156  15.082 -1.8397 -0.6606  0.2224
  185DOPC  H17S22779   6.096   5.271  15.154  0.5322  0.0355  0.8693
  185DOPC  C21822780   6.295   5.287  15.238  0.5617  0.2620  0.2854
  185DOPC  H18R22781   6.397   5.246  15.218  0.7754  0.5241  0.8202
  185DOPC  H18S22782   6.255   5.229  15.324 -0.9224  1.4627  0.4595
  185DOPC  H18T22783   6.312   5.395  15.259 -1.0098  0.7198 -0.6227
  185DOPC   C3322784   5.757   4.816  13.796  0.1585 -0.3669  0.4088
  185DOPC   H3X22785   5.672   4.848  13.733 -0.3929  0.0617  1.3558
  185DOPC   H3Y22786   5.851   4.839  13.740  0.4200 -1.2309  0.4807
  185DOPC   C3422787   5.740   4.907  13.921  0.2875 -0.0962  0.3028
  185DOPC   H4X22788   5.827   4.903  13.990 -0.1131 -0.0561  0.8175
  185DOPC   H4Y22789   5.654   4.874  13.984  0.5666 -0.4051  0.5250
  185DOPC   C3522790   5.710   5.056  13.888 -0.2644  0.0332 -0.2209
  185DOPC   H5X22791   5.612   5.050  13.836  0.0171  1.0862 -0.8857
  185DOPC   H5Y22792   5.782   5.078  13.807 -1.0799 -0.2658 -1.0539
  185DOPC   C3622793   5.729   5.146  14.007 -0.0971  0.4961 -0.1983
  185DOPC   H6X22794   5.837   5.147  14.035 -0.0389  1.1208 -0.4320
  185DOPC   H6Y22795   5.700   5.249  13.979 -0.0776  0.5322 -0.0895
  185DOPC   C3722796   5.660   5.093  14.133  0.0422 -0.3646 -0.4689
  185DOPC   H7X22797   5.555   5.071  14.107 -0.8426  3.6650 -1.0892
  185DOPC   H7Y22798   5.719   5.011  14.180  1.0874  0.4337 -0.3449
  185DOPC   C3822799   5.640   5.200  14.239  0.0795 -0.7580 -0.4245
  185DOPC   H8X22800   5.566   5.157  14.310  0.4636 -0.4914  0.1463
  185DOPC   H8Y22801   5.588   5.284  14.189  0.7045 -0.6874 -0.9618
  185DOPC   C3922802   5.767   5.247  14.299 -0.7905 -0.0493 -0.0095
  185DOPC   H9X22803   5.849   5.174  14.305  0.6402  1.5723  4.0066
  185DOPC  C31022804   5.808   5.375  14.336 -0.5412  0.5233  0.1416
  185DOPC  H10X22805   5.909   5.397  14.372 -0.8118 -0.2122  1.4108
  185DOPC  C31122806   5.732   5.499  14.315  0.9415 -0.7377 -0.0023
  185DOPC  H11X22807   5.677   5.507  14.218  0.1467  0.8219  0.5541
  185DOPC  H11Y22808   5.811   5.575  14.298  0.3189  0.0909  0.7471
  185DOPC  C31222809   5.638   5.538  14.420  0.1565  0.4053 -0.0230
  185DOPC  H12X22810   5.550   5.472  14.433 -0.9192  1.8815  0.4763
  185DOPC  H12Y22811   5.610   5.645  14.413  0.0130  0.3150 -0.9708
  185DOPC  C31322812   5.707   5.554  14.556  0.4337 -0.6582 -0.6657
  185DOPC  H13X22813   5.723   5.449  14.587 -0.9857 -0.5576  0.5655
  185DOPC  H13Y22814   5.809   5.593  14.539  0.2125 -0.0743 -0.6944
  185DOPC  C31422815   5.631   5.623  14.672  0.5512 -0.0244 -0.2387
  185DOPC  H14X22816   5.630   5.733  14.655 -0.3180  0.0186  0.0100
  185DOPC  H14Y22817   5.530   5.577  14.677  0.2028  0.7883  0.3572
  185DOPC  C31522818   5.693   5.594  14.810  0.7522 -0.5794  0.2035
  185DOPC  H15X22819   5.678   5.486  14.834 -0.9632 -0.6167 -0.8392
  185DOPC  H15Y22820   5.634   5.659  14.877  1.1358  1.8612 -1.7046
  185DOPC  C31622821   5.834   5.648  14.840  0.0314  0.5028  0.2477
  185DOPC  H16X22822   5.906   5.601  14.769  1.2001  0.1486  1.6117
  185DOPC  H16Y22823   5.845   5.757  14.822 -0.4010  0.4072 -0.6084
  185DOPC  C31722824   5.887   5.639  14.986 -0.4729 -0.1271  0.2058
  185DOPC  H17X22825   5.823   5.684  15.065  0.2773  0.4417  0.4866
  185DOPC  H17Y22826   5.891   5.528  14.998  2.0918 -0.0837  0.1424
  185DOPC  C31822827   6.026   5.685  15.009 -0.0398 -0.3876 -0.1342
  185DOPC  H18X22828   6.034   5.796  15.010 -0.5927 -0.3233  1.7225
  185DOPC  H18Y22829   6.079   5.653  15.102  2.4087  0.9433 -0.9649
  185DOPC  H18Z22830   6.095   5.667  14.924  1.3316  0.6738  0.6994
  186DOPC     N22831   5.681   1.640  12.789  0.7607 -0.4584  0.2117
  186DOPC   C1222832   5.737   1.684  12.928  0.3259  0.0899 -0.5563
  186DOPC  H12A22833   5.820   1.617  12.946  1.1905  0.7414 -1.9198
  186DOPC  H12B22834   5.663   1.655  13.001  0.7561  2.9552  1.1593
  186DOPC   C1322835   5.555   1.715  12.762 -0.4703  0.1295 -0.5491
  186DOPC  H13A22836   5.581   1.807  12.712 -0.0084  0.8838  0.9838
  186DOPC  H13B22837   5.504   1.663  12.683 -0.0862 -0.4516 -0.4156
  186DOPC  H13C22838   5.488   1.742  12.843  0.3578  0.4227  0.0593
  186DOPC   C1422839   5.645   1.493  12.779 -0.5082 -0.1687  0.1178
  186DOPC  H14A22840   5.737   1.437  12.782  0.4811  1.2498 -1.7262
  186DOPC  H14B22841   5.581   1.474  12.863 -1.2449  1.9651  0.1103
  186DOPC  H14C22842   5.592   1.476  12.686  0.3761 -0.8041 -0.2878
  186DOPC   C1522843   5.774   1.679  12.673  0.0888 -0.2851  0.0105
  186DOPC  H15A22844   5.817   1.777  12.688  0.7352 -0.4930 -0.4445
  186DOPC  H15B22845   5.733   1.676  12.574  0.3356  0.3933 -0.1157
  186DOPC  H15C22846   5.856   1.610  12.657  0.7358 -0.0200  1.8674
  186DOPC   C1122847   5.804   1.822  12.942 -0.1032 -1.2603  0.6348
  186DOPC  H11A22848   5.727   1.894  12.909 -0.8807 -1.3903  2.0769
  186DOPC  H11B22849   5.830   1.850  13.046  1.5323  3.9842 -0.8539
  186DOPC     P22850   6.058   1.745  12.900 -0.5225  0.0590 -0.0119
  186DOPC   O1322851   6.169   1.786  12.808 -0.1545  0.7565 -0.2133
  186DOPC   O1422852   6.033   1.600  12.907  1.0494 -0.4108 -0.1488
  186DOPC   O1222853   5.919   1.826  12.864  0.1571  0.1986  0.1968
  186DOPC   O1122854   6.097   1.799  13.046  0.2890  0.4123 -0.4904
  186DOPC    C122855   6.090   1.942  13.074 -0.0097  0.2501 -0.3746
  186DOPC    HA22856   5.984   1.970  13.056 -0.8782 -2.7120 -0.3193
  186DOPC    HB22857   6.161   2.001  13.011 -1.0254  1.0966 -0.7648
  186DOPC    C222858   6.123   1.960  13.229 -0.6808 -0.0637  0.2117
  186DOPC    HS22859   6.186   2.052  13.234  0.0562 -0.2531 -2.9664
  186DOPC   O2122860   6.184   1.845  13.289 -0.6817  0.5236 -0.2841
  186DOPC   C2122861   6.298   1.803  13.257 -0.0985 -0.1278  0.6831
  186DOPC   O2222862   6.378   1.852  13.180  0.3495 -0.6703 -0.1427
  186DOPC   C2222863   6.319   1.669  13.326  0.0541 -0.3652  0.1317
  186DOPC   H2R22864   6.415   1.629  13.287 -0.8066 -1.4337 -0.9655
  186DOPC   H2S22865   6.234   1.604  13.298 -0.4178  0.3196 -0.0696
  186DOPC    C322866   5.993   1.976  13.306  0.0049  0.5338  0.3183
  186DOPC    HX22867   5.943   1.881  13.276 -3.2033  1.4235  2.3854
  186DOPC    HY22868   5.929   2.052  13.258 -2.8925 -2.1457 -0.4066
  186DOPC   O3122869   6.019   1.992  13.445  0.0630  0.1571 -0.0939
  186DOPC   C3122870   5.953   1.913  13.538 -0.1557  0.0704  0.1549
  186DOPC   O3222871   5.866   1.835  13.512 -0.0199  0.1962  0.0748
  186DOPC   C3222872   6.005   1.943  13.679 -0.9825  0.4299 -0.6205
  186DOPC   H2X22873   6.107   1.899  13.674 -0.9898 -0.3263  3.1409
  186DOPC   H2Y22874   6.010   2.054  13.686 -3.5021  0.6219 -0.9592
  186DOPC   C2322875   6.315   1.690  13.477 -0.0508 -0.5256  0.9861
  186DOPC   H3R22876   6.303   1.586  13.515  0.9611 -1.2606 -0.5855
  186DOPC   H3S22877   6.230   1.754  13.510  0.3122  0.8173 -0.5487
  186DOPC   C2422878   6.434   1.765  13.535  0.0704 -0.9724 -0.0288
  186DOPC   H4R22879   6.427   1.874  13.514 -0.7303 -0.7136  1.4433
  186DOPC   H4S22880   6.527   1.732  13.483  0.8710  0.2218  0.6106
  186DOPC   C2522881   6.450   1.752  13.686  0.5642  0.4930 -0.7448
  186DOPC   H5R22882   6.485   1.649  13.708 -0.1157  0.1956 -1.0208
  186DOPC   H5S22883   6.356   1.769  13.743 -0.1759 -1.8047 -1.1986
  186DOPC   C2622884   6.563   1.840  13.745  0.3705  0.6106  0.3504
  186DOPC   H6R22885   6.549   1.941  13.702 -1.5034  0.1213 -0.3135
  186DOPC   H6S22886   6.652   1.785  13.707 -0.2025  0.3858 -0.6973
  186DOPC   C2722887   6.557   1.845  13.898 -0.2688 -0.0563  0.8489
  186DOPC   H7R22888   6.551   1.739  13.930 -3.0909 -0.9629 -2.1739
  186DOPC   H7S22889   6.467   1.905  13.923 -0.7032  0.5453 -1.8025
  186DOPC   C2822890   6.681   1.923  13.956  0.8194  0.1241 -0.1436
  186DOPC   H8R22891   6.668   2.029  13.926 -1.1284 -0.1112 -0.2692
  186DOPC   H8S22892   6.775   1.885  13.910  0.2978 -1.7521  0.2500
  186DOPC   C2922893   6.670   1.915  14.107  0.1917  0.4021 -0.3033
  186DOPC   H9R22894   6.579   1.866  14.146 -0.6597  2.1759  0.0499
  186DOPC  C21022895   6.772   1.933  14.192 -0.0197 -0.5031 -0.2873
  186DOPC  H10R22896   6.747   1.902  14.294  1.5756 -0.8415  0.0163
  186DOPC  C21122897   6.917   1.969  14.159 -0.2102 -0.3987 -0.6333
  186DOPC  H11R22898   6.920   1.998  14.052 -1.2201 -0.3709 -0.6614
  186DOPC  H11S22899   6.981   1.878  14.166 -1.0686 -0.9726  0.0019
  186DOPC  C21222900   6.980   2.085  14.232  0.7039 -0.3235  0.2333
  186DOPC  H12R22901   6.960   2.066  14.340 -1.3980 -2.2601 -0.4274
  186DOPC  H12S22902   6.920   2.177  14.217  1.0317  0.5047  3.3477
  186DOPC  C21322903   7.131   2.106  14.224 -0.2231 -0.2236  1.1733
  186DOPC  H13R22904   7.160   2.155  14.129 -0.8525  1.9913  2.0559
  186DOPC  H13S22905   7.164   2.000  14.229  1.4257  0.2146  0.2897
  186DOPC  C21422906   7.191   2.181  14.336  0.0352  0.0475  0.1187
  186DOPC  H14R22907   7.148   2.143  14.432 -0.0114  1.2102  0.5849
  186DOPC  H14S22908   7.143   2.282  14.332 -1.3900 -0.5099  1.5632
  186DOPC  C21522909   7.339   2.173  14.317  0.6734 -0.2275 -0.1442
  186DOPC  H15R22910   7.371   2.221  14.222 -0.5648  0.8011 -0.0685
  186DOPC  H15S22911   7.365   2.065  14.315 -0.2222 -0.4369 -1.5548
  186DOPC  C21622912   7.412   2.237  14.435 -0.0166  0.0373  0.1893
  186DOPC  H16R22913   7.428   2.157  14.511  0.9420 -0.6294 -0.6788
  186DOPC  H16S22914   7.341   2.311  14.477  0.2502 -0.8163  2.2526
  186DOPC  C21722915   7.551   2.295  14.412  0.0128  0.4127  0.0395
  186DOPC  H17R22916   7.534   2.383  14.347  0.8330  0.5874  0.0507
  186DOPC  H17S22917   7.610   2.224  14.351  0.1155  0.9444 -0.4905
  186DOPC  C21822918   7.621   2.326  14.541 -0.2174  0.4534  0.2449
  186DOPC  H18R22919   7.714   2.384  14.524  1.0029 -1.4516  0.1407
  186DOPC  H18S22920   7.650   2.234  14.597 -1.6877  0.8731  1.7788
  186DOPC  H18T22921   7.553   2.388  14.604  0.0785 -0.5565  1.6106
  186DOPC   C3322922   5.919   1.884  13.792  0.1123  0.1731 -0.1865
  186DOPC   H3X22923   5.871   1.787  13.768  0.8083  0.0919 -1.3334
  186DOPC   H3Y22924   5.837   1.956  13.810  0.5155  0.4301  0.7132
  186DOPC   C3422925   5.995   1.892  13.922 -0.2442  0.1580 -0.0006
  186DOPC   H4X22926   6.032   1.996  13.926  0.2529 -0.0226  0.1433
  186DOPC   H4Y22927   6.085   1.831  13.902  0.5437  1.3567 -0.2209
  186DOPC   C3522928   5.918   1.869  14.057 -1.0435  0.3637  0.5030
  186DOPC   H5X22929   5.869   1.771  14.042 -2.1979  0.9770  0.1058
  186DOPC   H5Y22930   5.840   1.948  14.062 -0.5782  1.2119 -2.7618
  186DOPC   C3622931   6.009   1.873  14.175  0.0862  0.3243 -0.4242
  186DOPC   H6X22932   6.112   1.837  14.152 -0.3673 -1.6530  0.4129
  186DOPC   H6Y22933   6.030   1.976  14.212 -2.8213  0.5728  0.7916
  186DOPC   C3722934   5.944   1.796  14.295 -0.1071  0.7978  0.3226
  186DOPC   H7X22935   5.839   1.826  14.315 -1.4697 -1.3070 -2.8821
  186DOPC   H7Y22936   5.938   1.688  14.269  1.8165  0.7919 -0.2927
  186DOPC   C3822937   6.034   1.818  14.421 -0.1788  1.1285  0.8614
  186DOPC   H8X22938   6.143   1.800  14.403  0.1990 -0.8693  4.2385
  186DOPC   H8Y22939   5.999   1.739  14.491 -2.3277  1.6712  0.4515
  186DOPC   C3922940   6.008   1.952  14.483  0.4606 -0.0820  0.4845
  186DOPC   H9X22941   6.075   2.029  14.441  1.4512 -1.4983 -0.5975
  186DOPC  C31022942   5.944   1.979  14.595 -0.1977 -0.2809 -0.4065
  186DOPC  H10X22943   5.938   2.086  14.620  0.4934  0.4593 -3.0061
  186DOPC  C31122944   5.886   1.878  14.691 -0.1448  0.5533  0.2489
  186DOPC  H11X22945   5.867   1.784  14.635 -1.5547  0.9968 -0.0462
  186DOPC  H11Y22946   5.787   1.917  14.720  0.5358  1.9143  0.8165
  186DOPC  C31222947   5.972   1.851  14.818  0.0102 -0.0171 -0.2428
  186DOPC  H12X22948   5.970   1.938  14.887 -0.4268  1.4465 -2.0261
  186DOPC  H12Y22949   6.077   1.830  14.790 -0.2032 -1.9522  0.2461
  186DOPC  C31322950   5.928   1.724  14.901  0.4538 -0.3191  0.1062
  186DOPC  H13X22951   5.835   1.764  14.946  0.0769  2.5789 -2.8903
  186DOPC  H13Y22952   5.913   1.644  14.826  1.5137  0.1827 -0.6761
  186DOPC  C31422953   6.032   1.677  15.015  0.3524 -0.4161  0.4243
  186DOPC  H14X22954   5.986   1.604  15.085  0.0035 -0.2082  0.4092
  186DOPC  H14Y22955   6.117   1.626  14.965  2.7409  2.5774  1.1727
  186DOPC  C31522956   6.081   1.793  15.104 -0.5151  0.5782  0.9895
  186DOPC  H15X22957   5.987   1.847  15.130 -3.7904 -1.9985 -3.9417
  186DOPC  H15Y22958   6.142   1.864  15.046 -2.3000  0.0834 -1.6579
  186DOPC  C31622959   6.153   1.748  15.239 -0.3574 -0.4004  0.8923
  186DOPC  H16X22960   6.168   1.838  15.301 -0.0502  0.9621 -1.0684
  186DOPC  H16Y22961   6.084   1.680  15.294 -2.8193  1.3981  0.2162
  186DOPC  C31722962   6.299   1.706  15.218  0.1684  0.2573  0.0923
  186DOPC  H17X22963   6.301   1.612  15.159  0.6166  2.3217 -3.4990
  186DOPC  H17Y22964   6.342   1.785  15.151  0.0873  0.6080  0.4488
  186DOPC  C31822965   6.378   1.691  15.344 -0.1464  0.4051 -0.3639
  186DOPC  H18X22966   6.473   1.636  15.331  1.1135  2.0354  1.3536
  186DOPC  H18Y22967   6.398   1.789  15.394 -1.8671  0.2331  0.7363
  186DOPC  H18Z22968   6.314   1.636  15.417  2.2125 -0.5619  1.0666
  187DOPC     N22969   6.169   6.901  13.011  0.5842 -0.5005  0.5123
  187DOPC   C1222970   6.163   6.798  13.127 -0.2928 -0.1562  0.1899
  187DOPC  H12A22971   6.265   6.764  13.143 -0.4068  0.1687  1.8234
  187DOPC  H12B22972   6.108   6.709  13.101 -1.4016  0.2565  1.0619
  187DOPC   C1322973   6.026   6.948  12.986  0.1351  0.3546 -0.4956
  187DOPC  H13A22974   5.966   6.864  12.955  0.6069 -0.1060 -0.1623
  187DOPC  H13B22975   5.972   7.001  13.064 -0.4762  0.0994 -0.7364
  187DOPC  H13C22976   6.022   7.016  12.901  1.1608 -0.8554 -1.5579
  187DOPC   C1422977   6.214   6.824  12.885  0.9551 -0.6092  0.4315
  187DOPC  H14A22978   6.140   6.754  12.850  1.4774 -1.2429  0.5718
  187DOPC  H14B22979   6.234   6.892  12.803 -0.1932 -2.9539 -1.9249
  187DOPC  H14C22980   6.299   6.759  12.890  0.3068 -1.5049 -0.0127
  187DOPC   C1522981   6.255   7.027  13.034 -0.1894  0.0128  0.2956
  187DOPC  H15A22982   6.226   7.104  12.963 -2.1433  0.3044  1.3386
  187DOPC  H15B22983   6.357   7.004  13.009 -0.4023 -0.7149  0.0643
  187DOPC  H15C22984   6.249   7.076  13.130  1.4183  2.6072 -0.8085
  187DOPC   C1122985   6.119   6.848  13.271 -0.3080 -0.2774 -0.5274
  187DOPC  H11A22986   6.134   6.770  13.349 -0.7146  1.6370  1.5505
  187DOPC  H11B22987   6.190   6.931  13.295 -0.2991 -0.5667  0.5234
  187DOPC     P22988   5.865   6.783  13.244  0.0112 -0.0228  0.0916
  187DOPC   O1322989   5.917   6.652  13.203 -1.0411  0.1258  0.8493
  187DOPC   O1422990   5.765   6.839  13.150 -0.0657  0.3398 -0.0214
  187DOPC   O1222991   5.984   6.892  13.275  0.0877  0.1488  0.1576
  187DOPC   O1122992   5.797   6.768  13.388 -0.3257  0.1353  0.7481
  187DOPC    C122993   5.853   6.706  13.503  0.2496  0.3370 -0.0879
  187DOPC    HA22994   5.962   6.729  13.501  0.3900 -0.2745  0.5317
  187DOPC    HB22995   5.831   6.597  13.499  2.2258 -0.1671  1.1594
  187DOPC    C222996   5.804   6.766  13.638  0.3742  0.3082  0.2894
  187DOPC    HS22997   5.870   6.736  13.722  0.6342 -0.4860 -0.1841
  187DOPC   O2122998   5.663   6.745  13.653 -0.3452  0.0415  0.3858
  187DOPC   C2122999   5.639   6.611  13.687 -0.2700 -0.3165 -0.0103
  187DOPC   O2223000   5.730   6.538  13.718 -0.3344  0.3792 -0.5174
  187DOPC   C2223001   5.497   6.565  13.690 -0.0361 -0.6461  0.5970
  187DOPC   H2R23002   5.425   6.619  13.624  1.3973 -0.1570 -0.6314
  187DOPC   H2S23003   5.459   6.560  13.794 -1.0318 -2.7013  0.1827
  187DOPC    C323004   5.826   6.918  13.637  0.4390 -0.0855  0.9469
  187DOPC    HX23005   5.758   6.962  13.561  2.7207  0.3207 -0.9548
  187DOPC    HY23006   5.920   6.946  13.586 -0.3248 -1.3005 -1.2675
  187DOPC   O3123007   5.826   6.973  13.768 -0.8308 -0.4887 -0.5992
  187DOPC   C3123008   5.731   7.058  13.809 -0.2131  0.4717 -0.4586
  187DOPC   O3223009   5.635   7.082  13.737  0.6110 -0.0543  0.2131
  187DOPC   C3223010   5.753   7.113  13.950 -0.6023  0.3935 -0.2262
  187DOPC   H2X23011   5.778   7.020  14.005  0.8494  0.7724 -0.1919
  187DOPC   H2Y23012   5.841   7.182  13.949 -2.2555  2.6632  0.6676
  187DOPC   C2323013   5.483   6.420  13.629 -0.0235 -0.1116 -0.0042
  187DOPC   H3R23014   5.552   6.353  13.685  0.6249  1.0126  0.5882
  187DOPC   H3S23015   5.516   6.427  13.523 -1.3910 -1.3654 -0.5493
  187DOPC   C2423016   5.343   6.376  13.655 -0.0028 -0.4290  0.2578
  187DOPC   H4R23017   5.322   6.287  13.592 -0.0832  0.1903 -0.6130
  187DOPC   H4S23018   5.276   6.458  13.622  1.7011  1.7109  1.8433
  187DOPC   C2523019   5.298   6.339  13.798  0.4272  0.3844  0.4095
  187DOPC   H5R23020   5.297   6.431  13.860 -0.5772  2.6051 -2.6318
  187DOPC   H5S23021   5.354   6.254  13.844  1.9869  1.6440  0.9172
  187DOPC   C2623022   5.151   6.289  13.805 -0.3602  0.0685  0.0357
  187DOPC   H6R23023   5.117   6.236  13.897 -2.7593  2.5510  0.7086
  187DOPC   H6S23024   5.125   6.205  13.737  2.0587 -0.3615 -0.4417
  187DOPC   C2723025   5.048   6.396  13.784 -0.1647  0.4230 -0.0541
  187DOPC   H7R23026   5.038   6.413  13.674 -0.0845 -1.9350 -0.4897
  187DOPC   H7S23027   5.101   6.475  13.840  0.6503 -0.9228  1.1417
  187DOPC   C2823028   4.909   6.370  13.850 -0.3431  0.0193  0.7090
  187DOPC   H8R23029   4.919   6.391  13.959 -0.9732  1.6066  0.4844
  187DOPC   H8S23030   4.872   6.267  13.830 -2.8285  0.7784  1.0641
  187DOPC   C2923031   4.804   6.455  13.790  0.1920  0.0626 -0.0809
  187DOPC   H9R23032   4.768   6.436  13.688  0.5204  1.2271 -0.4342
  187DOPC  C21023033   4.738   6.554  13.849 -0.0436 -0.1073  0.7334
  187DOPC  H10R23034   4.659   6.602  13.790  0.5289  1.0835  0.9075
  187DOPC  C21123035   4.767   6.612  13.983  0.0499 -0.7383  0.0116
  187DOPC  H11R23036   4.877   6.629  13.989 -0.1552  0.5487  0.3564
  187DOPC  H11S23037   4.738   6.534  14.056  2.0737 -0.8729  0.7238
  187DOPC  C21223038   4.702   6.750  14.001  0.0344 -0.0802  0.5402
  187DOPC  H12R23039   4.594   6.742  13.979  0.1899  0.4315 -0.4564
  187DOPC  H12S23040   4.753   6.804  13.918 -1.0432 -1.2211 -0.9213
  187DOPC  C21323041   4.723   6.845  14.116 -0.2351 -0.1319 -0.1511
  187DOPC  H13R23042   4.663   6.936  14.094 -0.0814 -0.4148 -1.9741
  187DOPC  H13S23043   4.833   6.860  14.129 -0.0029 -3.0216  2.2945
  187DOPC  C21423044   4.655   6.796  14.249 -1.0106 -0.1262  0.1693
  187DOPC  H14R23045   4.648   6.688  14.227  0.7694 -0.5169  1.3549
  187DOPC  H14S23046   4.556   6.846  14.259 -0.5999  0.3872  2.0112
  187DOPC  C21523047   4.727   6.799  14.387 -0.2378  0.2256 -0.0951
  187DOPC  H15R23048   4.754   6.902  14.418 -0.6773 -0.0924  1.3927
  187DOPC  H15S23049   4.817   6.738  14.363 -1.6028 -2.1711  0.5403
  187DOPC  C21623050   4.639   6.740  14.499 -0.1918 -0.2190 -0.2375
  187DOPC  H16R23051   4.602   6.638  14.475  1.0993 -0.7801  0.0987
  187DOPC  H16S23052   4.561   6.819  14.502  0.6157  0.6384 -1.0522
  187DOPC  C21723053   4.709   6.741  14.634  0.9357  0.0380 -0.1397
  187DOPC  H17R23054   4.750   6.839  14.666  3.3872 -1.0831  0.3696
  187DOPC  H17S23055   4.793   6.668  14.626  0.1079 -0.7504 -2.6480
  187DOPC  C21823056   4.615   6.690  14.753  0.4377 -1.1064 -0.1003
  187DOPC  H18R23057   4.545   6.766  14.794  0.7860 -0.8347 -0.0028
  187DOPC  H18S23058   4.675   6.655  14.839  0.9372  1.8917  0.8946
  187DOPC  H18T23059   4.556   6.606  14.711 -0.1208 -0.4174 -0.7353
  187DOPC   C3323060   5.632   7.188  14.006 -0.1013 -0.3427 -0.2163
  187DOPC   H3X23061   5.541   7.125  13.995 -2.2902  2.8623 -2.6853
  187DOPC   H3Y23062   5.610   7.279  13.946 -2.0688 -0.1395  0.7258
  187DOPC   C3423063   5.653   7.238  14.147  0.5482  0.7810  0.4141
  187DOPC   H4X23064   5.568   7.303  14.178  1.5496  2.2508  0.1693
  187DOPC   H4Y23065   5.752   7.288  14.149  1.1416 -0.3238 -0.6020
  187DOPC   C3523066   5.655   7.119  14.244 -0.0215 -0.6831 -0.2783
  187DOPC   H5X23067   5.746   7.056  14.231  1.0735  0.3080  1.9765
  187DOPC   H5Y23068   5.571   7.050  14.223 -2.0677  1.9182 -1.2056
  187DOPC   C3623069   5.647   7.147  14.395 -0.4160 -0.1265  0.2807
  187DOPC   H6X23070   5.712   7.229  14.432  0.6427 -1.5544  1.7286
  187DOPC   H6Y23071   5.542   7.174  14.419 -0.1639  0.0419  1.2424
  187DOPC   C3723072   5.674   7.018  14.481  0.1035 -0.0918 -0.0727
  187DOPC   H7X23073   5.615   7.017  14.575 -0.3836  0.7293 -0.3582
  187DOPC   H7Y23074   5.631   6.930  14.429 -0.9829  0.3998 -0.0400
  187DOPC   C3823075   5.820   6.994  14.521 -0.4826 -0.6110 -0.1065
  187DOPC   H8X23076   5.858   7.076  14.585 -0.6991 -0.4481 -0.1830
  187DOPC   H8Y23077   5.891   7.004  14.437  1.1579  1.1965  1.3949
  187DOPC   C3923078   5.845   6.852  14.573 -0.4481  0.6653  0.7221
  187DOPC   H9X23079   5.859   6.772  14.499 -1.5254 -0.2445  1.4676
  187DOPC  C31023080   5.840   6.813  14.697  0.0895  0.3683  0.0347
  187DOPC  H10X23081   5.862   6.706  14.711 -1.0875  0.1782  0.5938
  187DOPC  C31123082   5.806   6.902  14.813 -1.3335  0.0763 -0.0405
  187DOPC  H11X23083   5.748   6.848  14.890  1.7793  0.0977  2.5030
  187DOPC  H11Y23084   5.746   6.992  14.789 -0.0868  1.1054  0.5853
  187DOPC  C31223085   5.933   6.943  14.899  0.0970  0.6927 -0.0190
  187DOPC  H12X23086   5.977   6.846  14.931 -0.6569 -0.0202 -1.0779
  187DOPC  H12Y23087   5.895   6.992  14.991 -1.1075 -0.4396  0.1226
  187DOPC  C31323088   6.037   7.028  14.823  0.5490 -0.1381  0.5911
  187DOPC  H13X23089   6.074   6.968  14.737 -1.7782 -3.3206  1.6129
  187DOPC  H13Y23090   5.993   7.126  14.797 -1.2057 -0.4434  2.2125
  187DOPC  C31423091   6.149   7.062  14.915 -0.5112 -0.3369 -0.1996
  187DOPC  H14X23092   6.224   7.114  14.851 -0.2450 -1.1970 -0.6033
  187DOPC  H14Y23093   6.106   7.122  14.998  2.2573  0.1597  1.0014
  187DOPC  C31523094   6.231   6.953  14.980 -0.3023  0.1097 -0.0421
  187DOPC  H15X23095   6.256   6.876  14.903  1.7477 -0.3458  0.9896
  187DOPC  H15Y23096   6.171   6.912  15.063  0.9415  0.0491  0.8615
  187DOPC  C31623097   6.369   7.007  15.019  0.4216  0.6262  0.7749
  187DOPC  H16X23098   6.420   7.063  14.937 -0.6100 -1.5746 -1.5060
  187DOPC  H16Y23099   6.365   7.072  15.109 -0.9021  0.2824  0.9787
  187DOPC  C31723100   6.468   6.896  15.045 -0.1355  0.3437  0.3863
  187DOPC  H17X23101   6.423   6.827  15.119  0.2978 -1.7260 -1.2009
  187DOPC  H17Y23102   6.494   6.832  14.958  1.4759  0.6204  0.6270
  187DOPC  C31823103   6.602   6.952  15.095  0.3487 -0.2560  0.5063
  187DOPC  H18X23104   6.604   6.978  15.203  1.2996 -0.4528  0.5398
  187DOPC  H18Y23105   6.688   6.885  15.074  0.4843  0.4494 -1.3891
  187DOPC  H18Z23106   6.631   7.040  15.035  1.4773 -1.5320 -0.8747
  188DOPC     N23107   1.385   7.374  13.141  0.0209  0.1230 -0.4311
  188DOPC   C1223108   1.418   7.505  13.210  0.0847 -0.4014 -0.1542
  188DOPC  H12A23109   1.367   7.589  13.163 -0.6927 -0.5583  0.3783
  188DOPC  H12B23110   1.523   7.528  13.200  0.1282  0.2796  1.5204
  188DOPC   C1323111   1.237   7.365  13.137 -0.2722  0.8226  0.3709
  188DOPC  H13A23112   1.204   7.368  13.239 -0.7641 -2.8865  0.4363
  188DOPC  H13B23113   1.191   7.439  13.073  0.9385  3.0127  1.8815
  188DOPC  H13C23114   1.215   7.271  13.089 -0.0070  0.7845  0.3206
  188DOPC   C1423115   1.441   7.254  13.210  0.0957  0.4008  0.2439
  188DOPC  H14A23116   1.390   7.234  13.303 -0.1957  1.7729  0.3989
  188DOPC  H14B23117   1.426   7.163  13.155 -0.7806  1.1090 -0.7274
  188DOPC  H14C23118   1.546   7.269  13.227  0.1697  2.2713 -1.4178
  188DOPC   C1523119   1.443   7.371  13.002  0.4944  0.0796  0.2005
  188DOPC  H15A23120   1.551   7.361  13.006  0.3285 -3.5516 -0.5019
  188DOPC  H15B23121   1.413   7.458  12.946 -1.5296 -0.1166  0.9104
  188DOPC  H15C23122   1.408   7.284  12.948  1.0562  1.2350 -2.1367
  188DOPC   C1123123   1.377   7.518  13.360  0.2470 -0.1662 -0.3984
  188DOPC  H11A23124   1.389   7.426  13.422  4.5661  0.6090  0.2333
  188DOPC  H11B23125   1.429   7.608  13.399  0.1837  1.0851 -2.9877
  188DOPC     P23126   1.140   7.510  13.466  0.1300  0.1352  0.3106
  188DOPC   O1323127   1.118   7.366  13.431 -0.2132  0.5901  0.7387
  188DOPC   O1423128   1.024   7.599  13.474 -0.0490 -0.2408 -0.0637
  188DOPC   O1223129   1.243   7.557  13.366 -0.5339 -0.0985  0.0627
  188DOPC   O1123130   1.223   7.499  13.600  0.3625 -0.1288  0.1256
  188DOPC    C123131   1.207   7.594  13.705  0.6921 -0.2430 -0.2029
  188DOPC    HA23132   1.250   7.563  13.802 -0.7137  2.9650  1.6079
  188DOPC    HB23133   1.096   7.606  13.713  0.6572 -1.3591  1.5146
  188DOPC    C223134   1.267   7.737  13.675  0.3657  0.2706 -0.4093
  188DOPC    HS23135   1.234   7.770  13.574  0.3052 -0.7097 -0.7203
  188DOPC   O2123136   1.407   7.723  13.690 -0.4104 -0.4469  0.2821
  188DOPC   C2123137   1.482   7.815  13.632  0.1525  0.1270 -0.0029
  188DOPC   O2223138   1.445   7.900  13.553 -0.4966  0.3294  0.7524
  188DOPC   C2223139   1.626   7.803  13.681  0.3467  0.2986  0.0783
  188DOPC   H2R23140   1.693   7.764  13.601  0.5652 -1.0609  0.8882
  188DOPC   H2S23141   1.619   7.745  13.776 -4.6796  1.2416  0.5589
  188DOPC    C323142   1.216   7.841  13.770 -0.5901 -0.2458 -0.4793
  188DOPC    HX23143   1.109   7.843  13.741 -0.7790 -0.8232  0.1451
  188DOPC    HY23144   1.267   7.939  13.763  2.9893 -1.7813  1.3396
  188DOPC   O3123145   1.224   7.800  13.907  0.8665 -0.5715 -0.5774
  188DOPC   C3123146   1.334   7.844  13.970 -0.0391  0.8662  0.3210
  188DOPC   O3223147   1.425   7.909  13.931  0.1329  0.4097 -0.3681
  188DOPC   C3223148   1.317   7.793  14.116  0.0294 -0.2549 -0.0829
  188DOPC   H2X23149   1.267   7.693  14.114 -0.5276 -0.0851  2.2387
  188DOPC   H2Y23150   1.417   7.775  14.160  0.0750 -1.1636 -0.5418
  188DOPC   C2323151   1.672   7.944  13.722  0.1982 -0.0180  0.6094
  188DOPC   H3R23152   1.599   7.985  13.795  1.0115 -0.2791  1.5988
  188DOPC   H3S23153   1.678   8.000  13.627  2.0410  0.9467  1.2547
  188DOPC   C2423154   1.810   7.943  13.788 -0.3266 -0.7579 -0.4302
  188DOPC   H4R23155   1.842   8.049  13.798 -0.6432 -0.6560 -0.4780
  188DOPC   H4S23156   1.876   7.905  13.707  1.6228 -1.6361  1.4987
  188DOPC   C2523157   1.833   7.859  13.913 -0.5899  0.5101 -0.0899
  188DOPC   H5R23158   1.943   7.852  13.926 -0.3227  2.1316 -1.1198
  188DOPC   H5S23159   1.796   7.755  13.902 -1.7417  0.7731  1.1167
  188DOPC   C2623160   1.771   7.922  14.037  0.0831  0.3309  0.2779
  188DOPC   H6R23161   1.672   7.962  14.005  0.0376 -0.1448 -0.1950
  188DOPC   H6S23162   1.844   8.001  14.066  0.4368 -0.2678  1.0431
  188DOPC   C2723163   1.744   7.832  14.154  0.3439  0.8907  0.2764
  188DOPC   H7R23164   1.836   7.771  14.167  0.7138  1.7033  1.7565
  188DOPC   H7S23165   1.662   7.762  14.126  2.5263 -0.7792 -2.4056
  188DOPC   C2823166   1.711   7.907  14.287 -0.1317 -1.0084 -0.9730
  188DOPC   H8R23167   1.608   7.947  14.274  1.0635  2.0953 -1.9975
  188DOPC   H8S23168   1.781   7.992  14.298  0.0718 -1.0238 -2.0134
  188DOPC   C2923169   1.722   7.808  14.407 -0.7706 -1.0703  0.2721
  188DOPC   H9R23170   1.715   7.703  14.375  0.1514 -0.6793 -1.3195
  188DOPC  C21023171   1.735   7.835  14.535 -0.1707  0.0021 -0.1218
  188DOPC  H10R23172   1.717   7.750  14.603  0.7984 -0.0863  0.0326
  188DOPC  C21123173   1.743   7.973  14.603  0.3090  0.4811  0.2091
  188DOPC  H11R23174   1.663   8.033  14.555 -0.8751 -0.5584  0.8434
  188DOPC  H11S23175   1.832   8.032  14.572  1.1101 -1.3820 -1.2389
  188DOPC  C21223176   1.728   7.991  14.758  0.6763 -0.0352 -0.0327
  188DOPC  H12R23177   1.650   7.917  14.786 -0.4276  1.5995  1.4340
  188DOPC  H12S23178   1.698   8.096  14.776 -0.7008 -0.1273 -1.5486
  188DOPC  C21323179   1.863   7.956  14.816 -0.6759  0.1489 -0.5486
  188DOPC  H13R23180   1.940   8.015  14.760  1.2265  0.2226  1.9613
  188DOPC  H13S23181   1.882   7.847  14.807  1.0800  0.5527 -2.6874
  188DOPC  C21423182   1.882   8.011  14.962 -0.9144  0.1108 -0.5559
  188DOPC  H14R23183   1.988   8.015  14.993 -0.7297 -0.2422 -1.1458
  188DOPC  H14S23184   1.821   7.947  15.030 -2.9287  1.0486 -1.4042
  188DOPC  C21523185   1.841   8.158  14.991 -0.3342  0.6592 -0.3104
  188DOPC  H15R23186   1.730   8.164  14.996 -0.4307 -0.7899 -0.1300
  188DOPC  H15S23187   1.884   8.221  14.910  0.5088  1.3303  0.6241
  188DOPC  C21623188   1.899   8.200  15.130  0.6799  0.4055  0.1514
  188DOPC  H16R23189   2.010   8.212  15.127  0.8721 -0.7322  1.6652
  188DOPC  H16S23190   1.877   8.122  15.205 -1.0417 -0.9677 -1.6713
  188DOPC  C21723191   1.843   8.331  15.183 -0.3424  0.1964  0.0329
  188DOPC  H17R23192   1.881   8.336  15.287  0.6677  0.5711 -0.3462
  188DOPC  H17S23193   1.732   8.325  15.187 -0.4745  1.3755 -1.2229
  188DOPC  C21823194   1.884   8.453  15.103  0.1602  0.2775 -0.1623
  188DOPC  H18R23195   1.828   8.451  15.007 -0.7469  1.0801  0.3365
  188DOPC  H18S23196   1.989   8.456  15.069 -0.0898  0.6349 -0.9233
  188DOPC  H18T23197   1.866   8.550  15.153 -0.4494 -0.2780  0.7398
  188DOPC   C3323198   1.231   7.886  14.204  0.1885 -0.5467 -0.3570
  188DOPC   H3X23199   1.178   7.832  14.285  1.5892 -1.4424  0.0020
  188DOPC   H3Y23200   1.149   7.927  14.141 -0.3595  1.3318  1.4485
  188DOPC   C3423201   1.317   7.997  14.260  0.1875 -0.7148  0.1002
  188DOPC   H4X23202   1.376   8.044  14.178  0.9380  0.2462  1.1536
  188DOPC   H4Y23203   1.380   7.954  14.341  1.1940  1.4536  0.5375
  188DOPC   C3523204   1.243   8.115  14.336 -0.0661  0.0276 -0.3148
  188DOPC   H5X23205   1.180   8.067  14.414  0.4678  0.8362  0.6463
  188DOPC   H5Y23206   1.174   8.174  14.271  1.6550  0.4865 -1.7762
  188DOPC   C3623207   1.340   8.207  14.414  0.3302 -1.1951 -0.1450
  188DOPC   H6X23208   1.417   8.146  14.466  1.8022 -0.7960 -1.7408
  188DOPC   H6Y23209   1.390   8.265  14.334  0.1727  2.4463  2.1621
  188DOPC   C3723210   1.282   8.316  14.507  0.5611  0.2607 -0.4621
  188DOPC   H7X23211   1.202   8.361  14.445  0.4862  0.8417  0.0467
  188DOPC   H7Y23212   1.236   8.262  14.593  1.4548 -0.6506 -0.5384
  188DOPC   C3823213   1.371   8.429  14.551 -0.1631  0.0497  0.1659
  188DOPC   H8X23214   1.313   8.496  14.619  0.0554 -0.0879  0.4906
  188DOPC   H8Y23215   1.413   8.489  14.467  2.3169 -1.7341  0.0157
  188DOPC   C3923216   1.480   8.366  14.632  0.3765 -0.3121 -0.2279
  188DOPC   H9X23217   1.531   8.279  14.589  0.1139 -1.1188  1.0289
  188DOPC  C31023218   1.506   8.388  14.764 -0.4195  0.2400  0.2983
  188DOPC  H10X23219   1.595   8.339  14.807 -0.5505 -0.6792 -0.4501
  188DOPC  C31123220   1.439   8.485  14.843 -0.2722  0.0911 -0.8351
  188DOPC  H11X23221   1.441   8.454  14.950  0.1097  0.7460 -0.6472
  188DOPC  H11Y23222   1.332   8.471  14.817 -0.4179 -0.4282  0.0129
  188DOPC  C31223223   1.472   8.635  14.819  0.1331 -0.3515  0.1826
  188DOPC  H12X23224   1.382   8.699  14.825  1.3943  1.3927  1.3218
  188DOPC  H12Y23225   1.487   8.636  14.709  0.4904 -2.3978  0.1636
  188DOPC  C31323226   1.607   8.663  14.887  0.1144 -0.1383 -0.0669
  188DOPC  H13X23227   1.602   8.662  14.998 -1.3450  1.1548 -0.0929
  188DOPC  H13Y23228   1.679   8.582  14.861 -0.8261 -1.2831  0.7363
  188DOPC  C31423229   1.679   8.792  14.843  0.1037 -0.3376 -0.0130
  188DOPC  H14X23230   1.686   8.776  14.733 -1.1013 -2.4876  0.1544
  188DOPC  H14Y23231   1.610   8.878  14.858  1.8655  1.2329 -0.6544
  188DOPC  C31523232   1.808   8.809  14.924 -0.5214 -0.0348  0.7972
  188DOPC  H15X23233   1.875   8.722  14.906  0.5247  0.6307  1.3405
  188DOPC  H15Y23234   1.788   8.821  15.032  0.3645  0.4762  0.9198
  188DOPC  C31623235   1.891   8.935  14.885  0.4162  0.0374 -0.2539
  188DOPC  H16X23236   1.996   8.938  14.921  0.2123  0.0513  0.3424
  188DOPC  H16Y23237   1.890   8.944  14.774  1.1706  0.9469 -0.2001
  188DOPC  C31723238   1.832   9.068  14.938  0.5824  0.8660  0.3211
  188DOPC  H17X23239   1.797   9.132  14.854 -2.4661  0.0449  0.8445
  188DOPC  H17Y23240   1.742   9.050  15.002  1.5487  2.2416  2.1527
  188DOPC  C31823241   1.933   9.151  15.022  0.3413  0.9134  0.0067
  188DOPC  H18X23242   1.873   9.236  15.063 -0.7010 -0.3681  1.2285
  188DOPC  H18Y23243   1.968   9.091  15.108 -1.6370 -0.9264 -0.3734
  188DOPC  H18Z23244   2.017   9.181  14.955  1.2127  1.8541  1.4726
  189DOPC     N23245   4.130   1.352  13.240 -0.2133 -0.6686  0.0384
  189DOPC   C1223246   3.991   1.357  13.298  0.2636  0.1467 -0.0539
  189DOPC  H12A23247   3.939   1.449  13.273 -0.2689 -0.3997 -1.0219
  189DOPC  H12B23248   3.997   1.355  13.406 -1.4200 -2.1277  0.0763
  189DOPC   C1323249   4.126   1.332  13.092  0.4405 -0.0862  0.2540
  189DOPC  H13A23250   4.129   1.225  13.075 -0.6478 -0.1655  0.5243
  189DOPC  H13B23251   4.039   1.373  13.044  0.7952 -0.5529 -0.8386
  189DOPC  H13C23252   4.208   1.375  13.036 -0.6290  0.7523 -0.7279
  189DOPC   C1423253   4.217   1.251  13.301  0.1177  0.1640 -0.0986
  189DOPC  H14A23254   4.191   1.150  13.273  0.7632 -0.4206  1.3055
  189DOPC  H14B23255   4.314   1.278  13.263  0.3139  0.6084  0.6921
  189DOPC  H14C23256   4.228   1.252  13.408 -0.6630 -2.0353  0.0418
  189DOPC   C1523257   4.203   1.482  13.264  0.2418 -0.2596  0.5458
  189DOPC  H15A23258   4.200   1.531  13.361  0.2173 -1.1867  1.0198
  189DOPC  H15B23259   4.169   1.557  13.194 -0.9105 -0.8612  0.4347
  189DOPC  H15C23260   4.306   1.471  13.236  0.2765  1.1130  0.0415
  189DOPC   C1123261   3.902   1.235  13.270  0.4516 -0.0219 -0.3205
  189DOPC  H11A23262   3.798   1.256  13.301  0.6891  0.0223  0.4810
  189DOPC  H11B23263   3.892   1.220  13.161  1.8238 -2.2749 -0.2156
  189DOPC     P23264   3.869   1.027  13.421 -0.0187  0.0843 -0.1484
  189DOPC   O1323265   3.946   0.906  13.458 -0.3001  0.0576 -0.0841
  189DOPC   O1423266   3.729   1.002  13.364  0.4793 -0.0561  0.1213
  189DOPC   O1223267   3.949   1.114  13.315 -0.2126  0.2879  0.1143
  189DOPC   O1123268   3.851   1.122  13.545 -0.0042  0.1726 -1.0134
  189DOPC    C123269   3.743   1.135  13.642 -0.0456 -0.1308  0.2707
  189DOPC    HA23270   3.649   1.100  13.594 -0.4186  3.2321 -1.7674
  189DOPC    HB23271   3.735   1.243  13.667 -2.2914 -0.4765  1.2404
  189DOPC    C223272   3.778   1.042  13.759  0.3087 -0.9388 -0.5890
  189DOPC    HS23273   3.886   1.016  13.752  0.1414 -2.1639  0.9488
  189DOPC   O2123274   3.694   0.927  13.750  0.2714 -0.1452  0.1310
  189DOPC   C2123275   3.744   0.822  13.800 -0.0871 -0.3547  0.4006
  189DOPC   O2223276   3.863   0.802  13.828  0.4247 -0.1283  0.2392
  189DOPC   C2223277   3.630   0.720  13.799  0.1102 -0.1700 -0.5555
  189DOPC   H2R23278   3.616   0.686  13.694 -1.0067 -1.1168 -0.1310
  189DOPC   H2S23279   3.532   0.763  13.827  0.9928  0.6778  1.4034
  189DOPC    C323280   3.757   1.115  13.898  0.9162  0.6394  0.2581
  189DOPC    HX23281   3.650   1.138  13.919  0.1656  0.3472 -2.7451
  189DOPC    HY23282   3.794   1.220  13.895  0.0802  0.9163 -1.3304
  189DOPC   O3123283   3.798   1.045  14.015  0.1711  0.5197  0.0804
  189DOPC   C3123284   3.928   1.045  14.035 -0.6020 -0.4164  0.9049
  189DOPC   O3223285   4.012   1.116  13.986 -0.1793  0.1336  0.3186
  189DOPC   C3223286   3.956   0.930  14.127  0.2423  0.5635  0.5620
  189DOPC   H2X23287   3.942   0.831  14.080  2.4088 -1.4437  3.7030
  189DOPC   H2Y23288   4.065   0.950  14.139  0.2292  2.3176 -1.6023
  189DOPC   C2323289   3.657   0.595  13.891 -0.8509  0.2528  0.4367
  189DOPC   H3R23290   3.764   0.576  13.912 -1.2937 -0.6647  2.0648
  189DOPC   H3S23291   3.625   0.501  13.842  0.1582  0.5930 -0.9282
  189DOPC   C2423292   3.579   0.593  14.026  0.7081  0.2183  0.0809
  189DOPC   H4R23293   3.471   0.574  14.010  0.8407 -2.4196  1.7193
  189DOPC   H4S23294   3.577   0.699  14.062 -0.5527 -0.1108  1.0957
  189DOPC   C2523295   3.640   0.494  14.121 -0.2937  0.0450  0.8211
  189DOPC   H5R23296   3.594   0.497  14.223  0.0736  0.2519  0.9819
  189DOPC   H5S23297   3.745   0.529  14.121 -1.0695  2.6303 -0.8406
  189DOPC   C2623298   3.640   0.341  14.079 -0.0213  0.3116  0.2644
  189DOPC   H6R23299   3.658   0.300  14.181  0.3074  2.2477  1.0391
  189DOPC   H6S23300   3.722   0.332  14.005 -0.2278 -0.1795  0.0899
  189DOPC   C2723301   3.506   0.288  14.027  0.0343 -0.4379  0.2708
  189DOPC   H7R23302   3.495   0.335  13.927 -1.0229 -2.0256 -0.3858
  189DOPC   H7S23303   3.424   0.341  14.082 -0.1874 -0.9387  0.4279
  189DOPC   C2823304   3.495   0.135  14.029  0.5192 -1.1579 -0.2003
  189DOPC   H8R23305   3.396   0.111  13.986  0.0600 -0.8370  0.6665
  189DOPC   H8S23306   3.496   0.106  14.136  0.3997  1.1174  0.4778
  189DOPC   C2923307   3.601   0.068  13.952  0.3667  0.6172  0.7026
  189DOPC   H9R23308   3.701   0.105  13.978  0.3557  1.2215 -0.0684
  189DOPC  C21023309   3.600  -0.037  13.865  0.8569 -0.3709 -0.3794
  189DOPC  H10R23310   3.690  -0.077  13.815  2.4520  0.6714  1.4970
  189DOPC  C21123311   3.481  -0.120  13.823  0.4998 -0.5544 -0.0114
  189DOPC  H11R23312   3.471  -0.128  13.713 -1.5251 -1.8418  0.2235
  189DOPC  H11S23313   3.385  -0.074  13.854 -2.2911 -3.7876 -2.9212
  189DOPC  C21223314   3.485  -0.267  13.872 -0.6663  0.4778 -0.1083
  189DOPC  H12R23315   3.571  -0.314  13.820  0.7141  2.0171  0.7137
  189DOPC  H12S23316   3.387  -0.316  13.851  0.0897 -0.3683 -1.8677
  189DOPC  C21323317   3.489  -0.275  14.022 -0.2647 -0.0807 -0.1659
  189DOPC  H13R23318   3.422  -0.197  14.063 -0.0736 -0.4141  0.8101
  189DOPC  H13S23319   3.594  -0.260  14.055 -0.8079 -1.1270  2.2751
  189DOPC  C21423320   3.442  -0.403  14.101 -0.3782  0.1247  0.1098
  189DOPC  H14R23321   3.489  -0.488  14.045 -0.3891 -0.3137  0.7596
  189DOPC  H14S23322   3.333  -0.418  14.096 -0.1511 -1.3795 -1.4193
  189DOPC  C21523323   3.506  -0.409  14.240  0.3938 -0.0643 -0.2866
  189DOPC  H15R23324   3.487  -0.309  14.283  1.1860 -0.8668  2.0527
  189DOPC  H15S23325   3.615  -0.424  14.226  0.5498  0.9727 -0.2814
  189DOPC  C21623326   3.453  -0.514  14.344  0.3842  0.3813  0.8437
  189DOPC  H16R23327   3.520  -0.524  14.432  1.4836 -0.8769 -0.0988
  189DOPC  H16S23328   3.445  -0.609  14.286  0.1115  0.1954  1.1780
  189DOPC  C21723329   3.314  -0.482  14.391 -0.1400 -0.0899  0.3378
  189DOPC  H17R23330   3.258  -0.463  14.297 -0.5401  0.0051  0.5958
  189DOPC  H17S23331   3.314  -0.390  14.452  0.2405 -0.0933  0.3485
  189DOPC  C21823332   3.250  -0.597  14.465  0.0009  0.7551 -0.1837
  189DOPC  H18R23333   3.141  -0.583  14.479 -0.1588 -0.1862 -0.4261
  189DOPC  H18S23334   3.289  -0.608  14.569  0.5052  2.5326 -0.1410
  189DOPC  H18T23335   3.260  -0.695  14.414 -1.1166  0.0367  0.9220
  189DOPC   C3323336   3.877   0.922  14.261  0.1333  0.4489 -0.2339
  189DOPC   H3X23337   3.890   0.815  14.290 -1.9634  0.4541  0.8514
  189DOPC   H3Y23338   3.770   0.949  14.254  0.4880  2.4784  1.3513
  189DOPC   C3423339   3.933   1.006  14.382  1.6380 -0.3747  0.6506
  189DOPC   H4X23340   3.850   1.031  14.452 -0.8074 -0.2312 -2.1180
  189DOPC   H4Y23341   3.954   1.106  14.339  0.3573 -1.1239 -1.8903
  189DOPC   C3523342   4.044   0.935  14.450  0.2047  0.5830 -0.0296
  189DOPC   H5X23343   4.120   0.922  14.370  0.0983  2.1123 -0.4202
  189DOPC   H5Y23344   4.020   0.835  14.491  0.9939  1.4507  2.7482
  189DOPC   C3623345   4.113   1.020  14.556 -0.1460 -0.0289 -0.5535
  189DOPC   H6X23346   4.211   0.981  14.590 -0.3460  0.3924  0.5580
  189DOPC   H6Y23347   4.132   1.124  14.522  2.6988 -0.8098 -1.5954
  189DOPC   C3723348   4.026   1.040  14.680  0.0395  0.2885  0.1707
  189DOPC   H7X23349   3.957   1.117  14.641 -1.8080 -1.1879  0.3663
  189DOPC   H7Y23350   3.972   0.946  14.707  1.1287 -0.3818  0.0865
  189DOPC   C3823351   4.108   1.105  14.796  0.5470  0.4003  0.2671
  189DOPC   H8X23352   4.159   1.193  14.751  2.1400  0.2164  1.6158
  189DOPC   H8Y23353   4.179   1.024  14.824 -0.3784 -0.3586  0.4969
  189DOPC   C3923354   4.015   1.160  14.901  0.1867  0.1885 -0.1820
  189DOPC   H9X23355   3.973   1.088  14.973  0.9824  0.9239  1.0584
  189DOPC  C31023356   3.967   1.284  14.908  0.0780  0.0279  0.4474
  189DOPC  H10X23357   3.876   1.313  14.963  0.2630  0.4120  0.5550
  189DOPC  C31123358   3.992   1.383  14.796  1.3998  0.0344 -0.3625
  189DOPC  H11X23359   3.902   1.445  14.780  1.0178 -0.3659  0.1894
  189DOPC  H11Y23360   4.010   1.332  14.699  0.5402  0.8051 -0.9363
  189DOPC  C31223361   4.104   1.479  14.818 -0.8897 -0.1907  0.9239
  189DOPC  H12X23362   4.080   1.557  14.892  0.2068  0.6351  0.4336
  189DOPC  H12Y23363   4.113   1.533  14.721 -0.2129 -2.5827 -0.4556
  189DOPC  C31323364   4.242   1.420  14.858 -0.2925  0.2146  0.4157
  189DOPC  H13X23365   4.238   1.376  14.959 -0.5904 -1.1542 -0.1684
  189DOPC  H13Y23366   4.279   1.337  14.793 -1.3653 -0.5069  0.7036
  189DOPC  C31423367   4.352   1.534  14.856  0.3903  0.9456  0.7824
  189DOPC  H14X23368   4.362   1.555  14.748  1.1789 -0.4501  0.5547
  189DOPC  H14Y23369   4.316   1.625  14.909  0.5232 -0.0999  2.7764
  189DOPC  C31523370   4.488   1.505  14.920  0.3317  0.0469  0.3481
  189DOPC  H15X23371   4.565   1.554  14.856 -1.6041  0.6576 -1.6611
  189DOPC  H15Y23372   4.514   1.398  14.908  0.0132  0.1795 -1.9274
  189DOPC  C31623373   4.509   1.565  15.066 -0.3746  0.4884 -0.0514
  189DOPC  H16X23374   4.463   1.663  15.091  1.5951  1.4375  0.0186
  189DOPC  H16Y23375   4.470   1.481  15.128 -1.1291 -1.6578 -3.1984
  189DOPC  C31723376   4.662   1.568  15.105  0.0644  0.2265 -0.0166
  189DOPC  H17X23377   4.652   1.592  15.213  0.8315 -0.9383  0.3341
  189DOPC  H17Y23378   4.710   1.468  15.099 -0.7587 -0.2128  0.5909
  189DOPC  C31823379   4.740   1.685  15.043 -0.4166  0.0213 -0.5058
  189DOPC  H18X23380   4.743   1.676  14.933  1.5140 -1.3868 -0.3849
  189DOPC  H18Y23381   4.702   1.786  15.070  2.8854  1.8712 -2.1342
  189DOPC  H18Z23382   4.845   1.677  15.079 -0.1435 -1.7421 -1.5631
  190DOPC     N23383   1.313   5.540  13.271 -0.1778 -0.0849 -0.1932
  190DOPC   C1223384   1.394   5.625  13.363  0.0773  0.6722 -0.2003
  190DOPC  H12A23385   1.328   5.670  13.436 -1.1887 -0.0808 -0.8343
  190DOPC  H12B23386   1.435   5.709  13.309  1.6981  0.5191  0.7532
  190DOPC   C1323387   1.228   5.445  13.351  0.1572 -0.5301  0.1030
  190DOPC  H13A23388   1.180   5.384  13.275 -2.1509  1.1720  0.1043
  190DOPC  H13B23389   1.277   5.378  13.420 -0.3000 -0.3861  0.5716
  190DOPC  H13C23390   1.158   5.502  13.409  0.3518  1.1251 -1.2232
  190DOPC   C1423391   1.407   5.475  13.173  0.7632 -0.5399  0.0581
  190DOPC  H14A23392   1.468   5.547  13.121 -1.3182  1.5355  0.3378
  190DOPC  H14B23393   1.477   5.416  13.230  0.3778  0.2267  1.3559
  190DOPC  H14C23394   1.361   5.422  13.091 -0.9045 -0.5820  0.9899
  190DOPC   C1523395   1.222   5.646  13.210  0.5125 -0.4360 -0.4973
  190DOPC  H15A23396   1.268   5.707  13.134  1.7553  0.2380  0.7523
  190DOPC  H15B23397   1.187   5.711  13.289  1.7392  1.1397 -1.2205
  190DOPC  H15C23398   1.135   5.601  13.163 -1.0002  3.0646 -1.3387
  190DOPC   C1123399   1.489   5.556  13.457 -0.3679 -0.2613 -0.2043
  190DOPC  H11A23400   1.514   5.630  13.536 -0.9685 -0.1495 -0.1110
  190DOPC  H11B23401   1.431   5.482  13.516 -0.8958 -1.8816 -2.6013
  190DOPC     P23402   1.741   5.539  13.356 -0.0187 -0.1408 -0.7744
  190DOPC   O1323403   1.736   5.676  13.305  0.0262  0.1246 -0.0916
  190DOPC   O1423404   1.804   5.442  13.272  0.2791  1.0529 -0.1506
  190DOPC   O1223405   1.596   5.491  13.388  0.4588  0.1738  0.0824
  190DOPC   O1123406   1.815   5.544  13.492 -0.2460  0.1082  0.0101
  190DOPC    C123407   1.812   5.432  13.588 -0.0765  0.6389 -0.0154
  190DOPC    HA23408   1.752   5.344  13.557 -0.3719  0.1408  1.8279
  190DOPC    HB23409   1.759   5.468  13.679 -0.0498  0.5878  0.0204
  190DOPC    C223410   1.953   5.379  13.637 -0.5319  0.7842  0.6881
  190DOPC    HS23411   1.938   5.302  13.716 -1.4361  0.5184  0.2652
  190DOPC   O2123412   2.037   5.491  13.681  0.3462 -0.1127  0.3463
  190DOPC   C2123413   2.004   5.539  13.804 -0.3554 -0.3227  0.0689
  190DOPC   O2223414   1.906   5.510  13.867 -0.2648  0.4251  0.1035
  190DOPC   C2223415   2.115   5.635  13.854  0.5832 -0.0570 -0.4039
  190DOPC   H2R23416   2.098   5.726  13.794 -0.3989  0.8328  1.1528
  190DOPC   H2S23417   2.216   5.598  13.827  1.8335  1.0277  2.3436
  190DOPC    C323418   2.028   5.303  13.513  0.4553 -0.2609  0.5090
  190DOPC    HX23419   2.022   5.358  13.417 -0.5958 -0.3872  0.4842
  190DOPC    HY23420   1.952   5.223  13.497 -0.3614  0.4881  0.5700
  190DOPC   O3123421   2.150   5.248  13.551  0.8595  0.0577 -0.1930
  190DOPC   C3123422   2.252   5.315  13.502  0.3843 -0.4047 -0.1178
  190DOPC   O3223423   2.239   5.425  13.452 -0.1344 -0.1225 -0.3243
  190DOPC   C3223424   2.384   5.242  13.537 -0.1872 -0.2926  1.0223
  190DOPC   H2X23425   2.355   5.151  13.594 -2.2539 -0.5345 -0.2854
  190DOPC   H2Y23426   2.427   5.207  13.441 -3.2735 -0.4886 -0.4181
  190DOPC   C2323427   2.107   5.665  14.000 -0.2251  0.9379 -0.1038
  190DOPC   H3R23428   2.125   5.578  14.068  1.0442  0.5516 -0.8942
  190DOPC   H3S23429   2.004   5.700  14.025  0.5713  2.1281  1.7557
  190DOPC   C2423430   2.203   5.775  14.043  0.5402  1.3104  0.7543
  190DOPC   H4R23431   2.186   5.869  13.986 -1.1717 -0.8771 -2.6463
  190DOPC   H4S23432   2.306   5.739  14.025  0.5844  0.8667  1.8253
  190DOPC   C2523433   2.175   5.807  14.188 -0.2406 -0.0197  0.1660
  190DOPC   H5R23434   2.156   5.714  14.246 -1.1247 -0.7652 -1.2838
  190DOPC   H5S23435   2.083   5.868  14.200 -0.8472 -0.5968 -1.3450
  190DOPC   C2623436   2.302   5.869  14.245 -0.0689 -0.5405  0.2468
  190DOPC   H6R23437   2.388   5.802  14.219 -0.9790 -1.8346  0.4538
  190DOPC   H6S23438   2.284   5.868  14.355  2.7912 -0.4943  0.8108
  190DOPC   C2723439   2.317   6.017  14.214  0.2171 -0.0401 -0.6000
  190DOPC   H7R23440   2.275   6.040  14.114 -1.0329  0.5882  0.0573
  190DOPC   H7S23441   2.423   6.050  14.221 -0.3658  2.0611 -0.9845
  190DOPC   C2823442   2.245   6.098  14.328  0.1572  0.0653  1.1636
  190DOPC   H8R23443   2.267   6.067  14.432 -0.2597 -3.5799  0.3250
  190DOPC   H8S23444   2.137   6.073  14.325  0.8624 -3.5153  0.3712
  190DOPC   C2923445   2.276   6.250  14.322 -0.4284 -0.2240  0.2626
  190DOPC   H9R23446   2.371   6.279  14.276 -1.2365 -1.1047 -2.0992
  190DOPC  C21023447   2.177   6.349  14.329 -0.1176 -0.0669  0.0400
  190DOPC  H10R23448   2.199   6.455  14.308  1.3737 -0.6791 -1.7368
  190DOPC  C21123449   2.028   6.321  14.355  0.1022  0.6989  0.1085
  190DOPC  H11R23450   1.991   6.389  14.435 -0.1519  0.3347  0.3052
  190DOPC  H11S23451   2.001   6.216  14.378 -0.1247  0.7556  0.1046
  190DOPC  C21223452   1.951   6.364  14.228  0.6811  0.2915  0.2218
  190DOPC  H12R23453   1.954   6.474  14.210  0.2079  0.6174  1.8846
  190DOPC  H12S23454   1.844   6.344  14.247  1.4649 -3.3094  1.5891
  190DOPC  C21323455   1.981   6.278  14.106 -0.7516 -0.0302 -0.3228
  190DOPC  H13R23456   1.894   6.268  14.037 -0.5673  1.6985 -0.8404
  190DOPC  H13S23457   2.018   6.179  14.141 -1.9282  0.3697  2.2084
  190DOPC  C21423458   2.082   6.336  14.007  0.3364  0.0822  0.2335
  190DOPC  H14R23459   2.175   6.384  14.046 -0.7260  2.5834 -0.0999
  190DOPC  H14S23460   2.030   6.426  13.968  2.8026  1.5124 -0.0194
  190DOPC  C21523461   2.110   6.236  13.892  0.0991 -0.6998  0.7806
  190DOPC  H15R23462   2.025   6.230  13.822  1.5674 -0.1618 -1.1274
  190DOPC  H15S23463   2.126   6.136  13.938  1.0201 -0.6388  0.6188
  190DOPC  C21623464   2.235   6.288  13.808 -0.0762  0.8744 -0.8351
  190DOPC  H16R23465   2.320   6.285  13.879 -0.3837 -1.0426 -0.4873
  190DOPC  H16S23466   2.217   6.391  13.771 -2.3427  0.6063 -0.6251
  190DOPC  C21723467   2.259   6.188  13.690 -0.0779  0.1211  0.0013
  190DOPC  H17R23468   2.336   6.232  13.623  0.9705 -2.4830 -0.5860
  190DOPC  H17S23469   2.162   6.174  13.638 -0.8578  0.0492  1.4262
  190DOPC  C21823470   2.314   6.059  13.733  0.4118  0.0011 -1.4371
  190DOPC  H18R23471   2.238   6.011  13.799  0.1455  0.3599 -1.4763
  190DOPC  H18S23472   2.409   6.051  13.790 -1.2329 -2.5237  1.2466
  190DOPC  H18T23473   2.328   5.985  13.651 -0.7098 -1.1412 -0.6416
  190DOPC   C3323474   2.476   5.335  13.614 -0.6891  0.2260 -0.4971
  190DOPC   H3X23475   2.505   5.430  13.564  2.3397  0.3570  1.2797
  190DOPC   H3Y23476   2.573   5.281  13.608 -1.1165 -0.7819  1.0784
  190DOPC   C3423477   2.434   5.367  13.759 -0.9897  0.9277 -0.2513
  190DOPC   H4X23478   2.338   5.424  13.760 -0.8881  1.0973  0.4537
  190DOPC   H4Y23479   2.511   5.431  13.807 -1.0357  1.2761 -0.6409
  190DOPC   C3523480   2.418   5.244  13.852  0.3277  0.2399 -0.0848
  190DOPC   H5X23481   2.519   5.213  13.887  0.4549  1.5829  0.8395
  190DOPC   H5Y23482   2.360   5.162  13.805  1.8898 -0.9847  0.0258
  190DOPC   C3623483   2.335   5.275  13.980  0.0305 -0.3913 -0.7545
  190DOPC   H6X23484   2.260   5.349  13.942 -0.8094 -0.4409  0.7228
  190DOPC   H6Y23485   2.288   5.180  14.012 -0.3256 -1.0946 -3.1671
  190DOPC   C3723486   2.415   5.331  14.100  0.6515 -0.1812 -0.0308
  190DOPC   H7X23487   2.489   5.252  14.124  0.8634  0.3051  0.9763
  190DOPC   H7Y23488   2.466   5.420  14.057 -0.3715 -0.4416 -1.8748
  190DOPC   C3823489   2.337   5.383  14.225  0.3954 -0.4764  0.3314
  190DOPC   H8X23490   2.275   5.469  14.191  0.3995  0.2176  1.9462
  190DOPC   H8Y23491   2.407   5.423  14.301  0.2994  1.2817 -0.4482
  190DOPC   C3923492   2.255   5.265  14.265 -0.0120 -0.6410 -1.1436
  190DOPC   H9X23493   2.180   5.230  14.193  0.7499 -0.0281 -2.2697
  190DOPC  C31023494   2.251   5.214  14.395 -0.1698 -0.2889  0.0661
  190DOPC  H10X23495   2.172   5.139  14.410 -2.5977  2.3449  1.4799
  190DOPC  C31123496   2.308   5.276  14.515 -0.0651  0.2653 -0.1332
  190DOPC  H11X23497   2.230   5.288  14.594  1.0829  1.2246  0.9004
  190DOPC  H11Y23498   2.360   5.374  14.504 -1.5149  1.0060 -0.6907
  190DOPC  C31223499   2.405   5.183  14.586  0.1101  0.0617 -0.2229
  190DOPC  H12X23500   2.490   5.160  14.518 -1.5243 -1.1466 -1.9569
  190DOPC  H12Y23501   2.361   5.082  14.595 -2.6390  1.2336  0.8091
  190DOPC  C31323502   2.448   5.229  14.721  0.3356  0.0920  0.1269
  190DOPC  H13X23503   2.500   5.327  14.713  2.0683 -0.9125 -1.7406
  190DOPC  H13Y23504   2.359   5.251  14.783  1.5834  2.2536  1.3081
  190DOPC  C31423505   2.552   5.135  14.775 -0.9162 -0.1889  0.0773
  190DOPC  H14X23506   2.512   5.032  14.765 -1.9103  0.0369  1.4085
  190DOPC  H14Y23507   2.645   5.146  14.716  0.7787  0.4618  2.6611
  190DOPC  C31523508   2.579   5.161  14.924  0.7242  0.4101 -0.7284
  190DOPC  H15X23509   2.490   5.136  14.984  0.3430  0.5865 -1.2109
  190DOPC  H15Y23510   2.587   5.271  14.932  0.4175  0.6664 -3.0450
  190DOPC  C31623511   2.700   5.089  14.987  0.4599  0.6638 -0.2794
  190DOPC  H16X23512   2.792   5.138  14.950  1.3858 -0.5601  0.3155
  190DOPC  H16Y23513   2.707   5.114  15.095 -0.5665 -0.8170  0.1564
  190DOPC  C31723514   2.713   4.940  14.954  0.3546 -0.2662  0.2666
  190DOPC  H17X23515   2.611   4.895  14.949 -0.1336  0.9565 -2.3947
  190DOPC  H17Y23516   2.747   4.937  14.849  2.5489  1.4152  0.8563
  190DOPC  C31823517   2.815   4.865  15.036 -0.6986  0.1928  0.2375
  190DOPC  H18X23518   2.818   4.762  14.996 -0.9912  0.8177 -1.4530
  190DOPC  H18Y23519   2.910   4.922  15.029 -0.3052 -0.6258 -1.6525
  190DOPC  H18Z23520   2.776   4.867  15.140 -1.6279 -0.4471 -0.0863
  191DOPC     N23521   5.983   6.129  12.876 -0.0094 -0.0455 -0.3816
  191DOPC   C1223522   6.006   6.094  13.024 -0.3906  0.1045  0.3943
  191DOPC  H12A23523   5.914   6.059  13.067  0.7622 -1.6242  1.5929
  191DOPC  H12B23524   6.038   6.184  13.075 -0.9587  0.0947  0.7642
  191DOPC   C1323525   5.888   6.038  12.803  0.1325 -0.3057  0.6681
  191DOPC  H13A23526   5.791   6.049  12.848  0.6246  2.7812  1.1869
  191DOPC  H13B23527   5.878   6.056  12.697  1.4261 -2.0762  0.1933
  191DOPC  H13C23528   5.920   5.935  12.810 -1.5633 -0.9141  0.0452
  191DOPC   C1423529   6.114   6.122  12.799  0.5773 -0.5691 -0.8360
  191DOPC  H14A23530   6.085   6.108  12.696 -1.6023  0.9719 -0.5048
  191DOPC  H14B23531   6.168   6.214  12.818 -1.2595  0.3534  0.3140
  191DOPC  H14C23532   6.166   6.031  12.823  0.6855 -0.1326  0.6797
  191DOPC   C1523533   5.929   6.267  12.874  0.0993 -0.4480  0.4691
  191DOPC  H15A23534   5.908   6.300  12.774  2.8276  1.4773  0.4148
  191DOPC  H15B23535   6.002   6.338  12.911  3.1936 -2.3953 -1.3861
  191DOPC  H15C23536   5.843   6.276  12.938 -0.8681 -2.7158 -0.4052
  191DOPC   C1123537   6.104   5.979  13.049 -0.3994 -0.4435 -0.1173
  191DOPC  H11A23538   6.075   5.935  13.146 -2.2152  1.6251  0.3531
  191DOPC  H11B23539   6.087   5.894  12.979 -0.8211  0.2693 -0.9172
  191DOPC     P23540   6.363   5.942  13.110 -0.3902  0.1583  0.1706
  191DOPC   O1323541   6.489   6.014  13.071  0.7258 -0.1791 -0.6208
  191DOPC   O1423542   6.357   5.797  13.073 -0.3097  0.5473  0.1859
  191DOPC   O1223543   6.241   6.015  13.039 -0.3053 -0.0486 -0.8445
  191DOPC   O1123544   6.325   5.969  13.262  0.3449  0.1363 -0.5216
  191DOPC    C123545   6.425   6.044  13.336 -0.1383 -0.4511 -0.4290
  191DOPC    HA23546   6.530   6.018  13.310  0.9164  0.4545  2.4894
  191DOPC    HB23547   6.410   6.022  13.444  1.9084  1.9690  0.4389
  191DOPC    C223548   6.395   6.189  13.325 -0.2357 -0.2303 -0.6636
  191DOPC    HS23549   6.389   6.217  13.218  1.9403  0.2908 -0.6952
  191DOPC   O2123550   6.499   6.265  13.395  0.0974 -0.6290 -0.3335
  191DOPC   C2123551   6.509   6.395  13.371 -0.0869 -0.0792  0.0410
  191DOPC   O2223552   6.455   6.451  13.280  0.5536  0.6064  0.5452
  191DOPC   C2223553   6.598   6.457  13.469 -0.9586  0.0976  0.1187
  191DOPC   H2R23554   6.629   6.548  13.413 -0.7964 -0.4655 -0.7252
  191DOPC   H2S23555   6.688   6.392  13.476 -1.0400  0.0899  1.2705
  191DOPC    C323556   6.255   6.223  13.384 -0.2316  0.0784  0.5088
  191DOPC    HX23557   6.237   6.149  13.465  1.2532  1.4846  2.2132
  191DOPC    HY23558   6.177   6.209  13.306  0.9890  3.0367 -1.4287
  191DOPC   O3123559   6.234   6.358  13.437 -0.3169  0.0429 -0.6082
  191DOPC   C3123560   6.201   6.371  13.565  0.1509 -0.3829 -0.6713
  191DOPC   O3223561   6.185   6.282  13.647 -0.4265 -0.2087 -0.0803
  191DOPC   C3223562   6.180   6.524  13.587 -0.4314 -0.4259 -0.2063
  191DOPC   H2X23563   6.251   6.576  13.519  1.0347 -1.7816  0.2242
  191DOPC   H2Y23564   6.078   6.551  13.552 -1.1027 -0.2076  1.8018
  191DOPC   C2323565   6.542   6.488  13.611 -0.3333  0.2236  0.1358
  191DOPC   H3R23566   6.504   6.397  13.662 -2.0690  1.2547  0.7793
  191DOPC   H3S23567   6.453   6.555  13.613 -1.0307 -0.6868  1.2308
  191DOPC   C2423568   6.651   6.541  13.707 -0.4047 -0.7750  0.1098
  191DOPC   H4R23569   6.672   6.646  13.678 -1.4179 -0.4182  0.6473
  191DOPC   H4S23570   6.749   6.491  13.690 -0.0968  0.2794 -1.4200
  191DOPC   C2523571   6.615   6.542  13.858 -0.2482 -0.9638  0.4141
  191DOPC   H5R23572   6.506   6.556  13.874 -0.4007 -0.2759 -1.0239
  191DOPC   H5S23573   6.672   6.627  13.903  1.9332 -1.0511 -1.9519
  191DOPC   C2623574   6.659   6.423  13.938  0.6964  0.1543 -0.3058
  191DOPC   H6R23575   6.770   6.420  13.933  0.9529 -1.0043  3.2643
  191DOPC   H6S23576   6.615   6.326  13.905 -3.4122  0.1480  4.0711
  191DOPC   C2723577   6.624   6.421  14.092  0.4010  0.1235  0.1174
  191DOPC   H7R23578   6.657   6.517  14.137  1.8692  0.9851 -2.5747
  191DOPC   H7S23579   6.686   6.343  14.142  0.0129 -0.5619 -0.4533
  191DOPC   C2823580   6.474   6.404  14.120 -1.2020 -0.5971  0.0926
  191DOPC   H8R23581   6.410   6.486  14.082  0.0560  0.9639  1.1559
  191DOPC   H8S23582   6.462   6.418  14.230 -1.5897 -0.2868  0.0110
  191DOPC   C2923583   6.415   6.280  14.076  0.2163  0.1391 -1.1149
  191DOPC   H9R23584   6.393   6.290  13.969 -0.3175  2.0638 -0.8746
  191DOPC  C21023585   6.368   6.182  14.155  0.5230 -0.5463 -0.3298
  191DOPC  H10R23586   6.300   6.112  14.103 -0.5127 -0.6068  1.0561
  191DOPC  C21123587   6.379   6.185  14.310 -0.1568  0.0900 -0.2824
  191DOPC  H11R23588   6.436   6.272  14.348  0.8233 -0.5226 -0.3120
  191DOPC  H11S23589   6.430   6.093  14.346 -0.5141 -0.5688 -1.4090
  191DOPC  C21223590   6.244   6.207  14.377 -0.7664  0.1394 -0.0115
  191DOPC  H12R23591   6.192   6.109  14.391  0.7992 -0.6783  0.3074
  191DOPC  H12S23592   6.184   6.270  14.308 -0.0689 -0.3005 -1.0500
  191DOPC  C21323593   6.254   6.289  14.500 -0.0118 -0.7177 -0.2033
  191DOPC  H13R23594   6.340   6.246  14.555  0.3006  0.8003  0.5433
  191DOPC  H13S23595   6.170   6.276  14.572  0.4737 -0.8836  0.3353
  191DOPC  C21423596   6.281   6.436  14.480  0.3468  0.7228 -0.1120
  191DOPC  H14R23597   6.189   6.493  14.454  2.4332  3.8099 -1.3795
  191DOPC  H14S23598   6.351   6.452  14.395  1.6810 -2.8807  0.1397
  191DOPC  C21523599   6.344   6.496  14.613 -0.2458 -0.3861  0.1032
  191DOPC  H15R23600   6.293   6.455  14.703  0.0536  1.4952  1.1835
  191DOPC  H15S23601   6.326   6.606  14.613 -1.3602 -0.3943 -3.9598
  191DOPC  C21623602   6.495   6.467  14.625  0.0436 -0.6353  0.8059
  191DOPC  H16R23603   6.544   6.532  14.550  0.4885  0.5448  2.0798
  191DOPC  H16S23604   6.528   6.363  14.602  0.5010 -0.2263 -0.4758
  191DOPC  C21723605   6.556   6.512  14.757  0.4835 -0.3525 -0.0274
  191DOPC  H17R23606   6.519   6.614  14.784 -3.5308 -2.0230  1.4581
  191DOPC  H17S23607   6.666   6.513  14.739  0.2820 -0.1881 -1.3726
  191DOPC  C21823608   6.517   6.405  14.862 -0.0777  0.3194  0.0646
  191DOPC  H18R23609   6.563   6.309  14.832  0.9214  1.2546 -1.5722
  191DOPC  H18S23610   6.408   6.385  14.868 -0.0238 -0.7337 -1.8990
  191DOPC  H18T23611   6.563   6.433  14.960  2.8968  0.9907 -1.4136
  191DOPC   C3323612   6.195   6.559  13.738  0.1001  0.1267 -0.7662
  191DOPC   H3X23613   6.214   6.668  13.743 -1.2422  0.4382 -1.8197
  191DOPC   H3Y23614   6.282   6.511  13.786 -0.6548  1.5168  2.1836
  191DOPC   C3423615   6.067   6.530  13.828 -0.0612 -0.2521 -0.2024
  191DOPC   H4X23616   6.080   6.429  13.873  0.9289  1.1987  3.0364
  191DOPC   H4Y23617   5.983   6.543  13.756  0.2603  3.0654 -0.1231
  191DOPC   C3523618   6.046   6.629  13.938 -0.8096 -0.3155 -0.2236
  191DOPC   H5X23619   6.054   6.735  13.906 -1.3606  0.1528  1.1026
  191DOPC   H5Y23620   6.133   6.623  14.006 -0.0043  2.1111 -0.9567
  191DOPC   C3623621   5.920   6.591  14.021 -0.5765  0.1099 -0.3959
  191DOPC   H6X23622   5.837   6.584  13.947 -0.2495  0.5602 -0.8080
  191DOPC   H6Y23623   5.934   6.495  14.076 -0.1627  0.5155  0.2232
  191DOPC   C3723624   5.883   6.717  14.108 -0.2650 -0.4694 -0.0856
  191DOPC   H7X23625   5.973   6.734  14.171  1.2578 -0.8398 -2.0561
  191DOPC   H7Y23626   5.884   6.806  14.042  0.3050  0.7572  1.5179
  191DOPC   C3823627   5.753   6.712  14.189 -0.8761  0.0419 -0.1505
  191DOPC   H8X23628   5.740   6.786  14.271 -0.6075 -1.3298  1.1527
  191DOPC   H8Y23629   5.764   6.618  14.247  1.3785  0.3974  0.0867
  191DOPC   C3923630   5.629   6.715  14.105  0.4114  0.3153 -0.3308
  191DOPC   H9X23631   5.601   6.818  14.077 -0.6553  0.8602  2.3612
  191DOPC  C31023632   5.551   6.602  14.082  0.1535 -0.4520  0.0258
  191DOPC  H10X23633   5.463   6.619  14.019 -0.0613  2.4367  0.9497
  191DOPC  C31123634   5.581   6.464  14.135 -0.1449  0.0668  0.3473
  191DOPC  H11X23635   5.629   6.464  14.235 -1.1422 -2.6416  0.9240
  191DOPC  H11Y23636   5.658   6.429  14.063 -0.0358 -1.3336  1.1079
  191DOPC  C31223637   5.456   6.373  14.128 -0.0604 -0.2774  0.5211
  191DOPC  H12X23638   5.475   6.287  14.195 -0.1826  2.3599  4.2924
  191DOPC  H12Y23639   5.451   6.335  14.024  0.1801 -0.5625  0.6119
  191DOPC  C31323640   5.333   6.431  14.188  0.0933 -0.5057  0.2569
  191DOPC  H13X23641   5.362   6.451  14.294 -0.9077  2.6934  0.0440
  191DOPC  H13Y23642   5.305   6.533  14.154 -1.0948 -1.0822 -0.5686
  191DOPC  C31423643   5.207   6.346  14.181  0.3467 -0.1096  0.8625
  191DOPC  H14X23644   5.175   6.347  14.074  0.1627  2.4055  0.8798
  191DOPC  H14Y23645   5.233   6.241  14.205 -0.2207 -1.4149 -3.4069
  191DOPC  C31523646   5.090   6.395  14.271 -0.8792  0.6698 -0.1217
  191DOPC  H15X23647   5.055   6.491  14.227  2.7874  0.7151 -3.5805
  191DOPC  H15Y23648   5.143   6.412  14.367  0.9841  1.5616 -1.2249
  191DOPC  C31623649   4.972   6.292  14.274  0.5218  0.3256  0.9112
  191DOPC  H16X23650   4.953   6.256  14.171  1.4930  2.0096  0.0902
  191DOPC  H16Y23651   5.005   6.205  14.333  0.1734 -0.2124  0.3222
  191DOPC  C31723652   4.840   6.342  14.323 -0.3273  0.4759 -0.3820
  191DOPC  H17X23653   4.797   6.407  14.244 -0.8706 -0.1022 -0.5721
  191DOPC  H17Y23654   4.754   6.274  14.343  0.1454 -0.1094 -0.3160
  191DOPC  C31823655   4.836   6.424  14.455  0.0824  0.4025  0.0049
  191DOPC  H18X23656   4.738   6.423  14.508 -0.1721 -0.4045 -0.4689
  191DOPC  H18Y23657   4.906   6.373  14.524 -0.0901 -1.2946 -1.0358
  191DOPC  H18Z23658   4.876   6.528  14.449  3.3200 -0.7971 -1.1948
  192DOPC     N23659   6.398   5.240  13.366 -0.5372  0.4727 -0.0411
  192DOPC   C1223660   6.522   5.222  13.278  0.3251 -0.1522  0.3495
  192DOPC  H12A23661   6.500   5.154  13.198 -0.9787 -1.6258  1.8800
  192DOPC  H12B23662   6.601   5.174  13.334  0.8327  0.2354 -0.0248
  192DOPC   C1323663   6.285   5.322  13.299  0.2245 -0.1984  0.0640
  192DOPC  H13A23664   6.315   5.421  13.269 -0.9971 -0.4500 -2.1658
  192DOPC  H13B23665   6.242   5.272  13.214 -0.6727 -2.0336  1.5076
  192DOPC  H13C23666   6.207   5.329  13.373  2.0709 -0.8769  2.2313
  192DOPC   C1423667   6.446   5.310  13.486  0.3339  0.7445 -0.2368
  192DOPC  H14A23668   6.376   5.314  13.568 -0.2354  0.8293 -0.7232
  192DOPC  H14B23669   6.531   5.255  13.525 -0.4198 -0.4623 -0.2527
  192DOPC  H14C23670   6.472   5.410  13.455 -0.5983  1.0751  0.0332
  192DOPC   C1523671   6.357   5.107  13.411 -0.0214  0.4520 -0.1451
  192DOPC  H15A23672   6.250   5.101  13.401 -0.0417  0.6972 -0.0983
  192DOPC  H15B23673   6.384   5.083  13.513  0.5425  1.6257  0.0023
  192DOPC  H15C23674   6.389   5.025  13.349 -0.2973 -1.2783  1.8815
  192DOPC   C1123675   6.581   5.358  13.209 -0.8740 -0.1304 -0.0515
  192DOPC  H11A23676   6.672   5.328  13.154 -1.9255 -0.8023 -1.5135
  192DOPC  H11B23677   6.502   5.395  13.139  0.0499  0.1681 -0.9562
  192DOPC     P23678   6.749   5.542  13.309 -0.0090 -0.0188  0.2415
  192DOPC   O1323679   6.753   5.641  13.196 -0.1767  0.5008  0.0024
  192DOPC   O1423680   6.857   5.447  13.322 -0.2477  0.8908  0.0514
  192DOPC   O1223681   6.608   5.464  13.302 -0.0940 -0.3787 -0.5808
  192DOPC   O1123682   6.719   5.623  13.440 -0.1633 -0.1524 -0.5281
  192DOPC    C123683   6.597   5.695  13.452 -0.1957  1.1960  0.1176
  192DOPC    HA23684   6.515   5.620  13.459 -0.4054  1.2864 -1.0451
  192DOPC    HB23685   6.585   5.749  13.355  0.4274 -0.5424 -0.9766
  192DOPC    C223686   6.599   5.785  13.572 -0.4042 -0.0831  0.3849
  192DOPC    HS23687   6.495   5.823  13.581 -1.3879 -2.6787  0.8945
  192DOPC   O2123688   6.698   5.889  13.551  0.8988  0.4199 -0.2092
  192DOPC   C2123689   6.664   6.002  13.612  0.1546 -0.0707  0.2365
  192DOPC   O2223690   6.556   6.026  13.666 -0.2309 -0.1442 -0.0912
  192DOPC   C2223691   6.782   6.084  13.636  0.3295 -0.2647  0.8707
  192DOPC   H2R23692   6.758   6.192  13.647  1.1209  0.4649 -3.0481
  192DOPC   H2S23693   6.834   6.069  13.539  1.3326  0.6850  1.2306
  192DOPC    C323694   6.644   5.711  13.699 -0.3541 -0.6173 -1.0946
  192DOPC    HX23695   6.750   5.680  13.687  0.7225  1.9482  0.8031
  192DOPC    HY23696   6.578   5.621  13.701  0.3140 -1.1261 -1.5288
  192DOPC   O3123697   6.627   5.803  13.815 -0.0030  0.3956  0.0960
  192DOPC   C3123698   6.543   5.769  13.905  0.3262 -0.0392 -0.0859
  192DOPC   O3223699   6.491   5.659  13.912 -0.4020  0.3288 -0.1158
  192DOPC   C3223700   6.507   5.893  13.993 -0.3201  0.0174 -0.0517
  192DOPC   H2X23701   6.539   5.990  13.948  0.3180  1.6037  3.4702
  192DOPC   H2Y23702   6.396   5.906  13.997 -0.4332 -1.0737  0.8772
  192DOPC   C2323703   6.862   6.030  13.758 -0.0917 -0.0892 -0.3222
  192DOPC   H3R23704   6.898   5.926  13.746  2.5421  0.5307  1.3035
  192DOPC   H3S23705   6.801   6.037  13.851  2.1101 -0.4097  1.2067
  192DOPC   C2423706   6.988   6.112  13.774 -0.0761  0.6919 -0.0062
  192DOPC   H4R23707   6.964   6.218  13.797  0.2535  0.4623  1.4648
  192DOPC   H4S23708   7.051   6.104  13.683  0.8012  0.7255  0.5841
  192DOPC   C2523709   7.076   6.058  13.889 -0.9550 -0.1495 -0.3598
  192DOPC   H5R23710   7.170   6.117  13.899 -0.4877 -0.7567 -0.9922
  192DOPC   H5S23711   7.113   5.963  13.843  0.3200  1.1567 -2.2143
  192DOPC   C2623712   7.030   6.030  14.027 -0.3296 -0.2811 -0.2566
  192DOPC   H6R23713   7.108   5.973  14.081 -0.7784 -1.2969 -0.6601
  192DOPC   H6S23714   6.938   5.968  14.028 -2.4281  2.5376 -1.7012
  192DOPC   C2723715   7.005   6.157  14.107 -0.7051 -0.0925 -0.7030
  192DOPC   H7R23716   6.923   6.211  14.056 -0.0056  0.5438 -1.1769
  192DOPC   H7S23717   7.097   6.217  14.088 -0.3475  0.5951  2.5380
  192DOPC   C2823718   6.980   6.152  14.259 -0.3699 -0.0200 -0.0110
  192DOPC   H8R23719   6.974   6.259  14.290  0.1384 -0.4374  1.6618
  192DOPC   H8S23720   7.075   6.115  14.303 -0.3527  1.2308  1.0723
  192DOPC   C2923721   6.852   6.072  14.297 -0.5042  0.2240 -0.1650
  192DOPC   H9R23722   6.824   5.991  14.229  1.1157 -1.1217  0.6741
  192DOPC  C21023723   6.765   6.110  14.396  0.0357  0.0314  0.2397
  192DOPC  H10R23724   6.686   6.037  14.419 -0.0062  0.6565  2.2052
  192DOPC  C21123725   6.770   6.225  14.488  0.6812 -0.6713 -0.3701
  192DOPC  H11R23726   6.676   6.281  14.471  0.5504 -0.0497  2.0144
  192DOPC  H11S23727   6.858   6.291  14.471  0.2128 -0.2781 -1.3290
  192DOPC  C21223728   6.770   6.194  14.640 -0.0119  0.3037 -0.1161
  192DOPC  H12R23729   6.675   6.142  14.665  0.7493 -1.7607 -1.2713
  192DOPC  H12S23730   6.760   6.283  14.706  1.5393 -0.3439  1.0443
  192DOPC  C21323731   6.897   6.122  14.694 -0.5070 -0.6551 -0.0471
  192DOPC  H13R23732   6.982   6.188  14.663 -0.6340 -0.9281 -0.9957
  192DOPC  H13S23733   6.901   6.023  14.643  1.4311 -0.4752 -0.3272
  192DOPC  C21423734   6.907   6.101  14.844 -0.7589  0.1222  0.1499
  192DOPC  H14R23735   6.847   6.015  14.880 -0.7832 -0.6477 -1.5972
  192DOPC  H14S23736   6.860   6.189  14.894 -1.4651 -0.1744  0.0183
  192DOPC  C21523737   7.053   6.083  14.878  0.6844  0.5992  0.4690
  192DOPC  H15R23738   7.112   6.177  14.869 -0.0546  1.1869  1.4497
  192DOPC  H15S23739   7.099   6.008  14.811 -0.8913 -0.2954  0.3641
  192DOPC  C21623740   7.087   6.027  15.019  0.7637 -0.4326  0.0538
  192DOPC  H16R23741   7.038   6.088  15.098 -0.6343 -0.6214 -0.6436
  192DOPC  H16S23742   7.195   6.049  15.033  0.6328 -0.5703  1.4768
  192DOPC  C21723743   7.059   5.883  15.043 -0.4897 -0.2438 -0.2758
  192DOPC  H17R23744   7.016   5.858  14.943  0.8607  0.6198 -1.1063
  192DOPC  H17S23745   6.976   5.875  15.117  0.3793  1.9734  1.0237
  192DOPC  C21823746   7.176   5.781  15.063  0.0882  0.3121 -0.6832
  192DOPC  H18R23747   7.249   5.770  14.980 -0.3023  0.6216 -1.0705
  192DOPC  H18S23748   7.152   5.677  15.093 -0.3132  0.5573 -0.1215
  192DOPC  H18T23749   7.228   5.826  15.151 -2.1129  0.4607  0.6332
  192DOPC   C3323750   6.577   5.894  14.132 -0.6644 -0.2292  0.1402
  192DOPC   H3X23751   6.568   5.993  14.182  1.7784 -0.0452  0.3375
  192DOPC   H3Y23752   6.680   5.865  14.106 -1.5642 -0.7987 -3.3226
  192DOPC   C3423753   6.501   5.799  14.228  0.1719  0.0419 -0.7514
  192DOPC   H4X23754   6.461   5.705  14.185 -2.2595  1.3143 -1.4320
  192DOPC   H4Y23755   6.417   5.853  14.277 -1.0729 -0.3689 -2.3662
  192DOPC   C3523756   6.590   5.742  14.345 -0.0621 -0.2003  0.0055
  192DOPC   H5X23757   6.652   5.823  14.390 -0.6400  0.3059 -0.0852
  192DOPC   H5Y23758   6.666   5.667  14.317 -0.6214 -1.5102  1.7964
  192DOPC   C3623759   6.500   5.685  14.450 -0.1677  0.2923 -0.5548
  192DOPC   H6X23760   6.420   5.759  14.468  0.9148  1.3995 -0.1500
  192DOPC   H6Y23761   6.452   5.590  14.417 -0.4535 -0.3746  1.6123
  192DOPC   C3723762   6.576   5.651  14.582 -0.4466 -0.9277  0.6581
  192DOPC   H7X23763   6.667   5.600  14.546  0.6139  0.6085  1.0476
  192DOPC   H7Y23764   6.606   5.742  14.639 -2.4640 -1.3714  2.6084
  192DOPC   C3823765   6.501   5.567  14.680  0.3038  0.4999  0.4534
  192DOPC   H8X23766   6.578   5.510  14.736  1.9007  1.4464 -0.7088
  192DOPC   H8Y23767   6.446   5.492  14.619 -0.9492  0.1745  1.9108
  192DOPC   C3923768   6.410   5.640  14.777  0.5260  0.1773  0.9708
  192DOPC   H9X23769   6.312   5.665  14.734  1.6277 -0.6818 -2.2885
  192DOPC  C31023770   6.424   5.628  14.912  0.2306 -0.3525  0.6842
  192DOPC  H10X23771   6.353   5.689  14.970 -0.2370  0.1219 -0.3455
  192DOPC  C31123772   6.538   5.569  14.991  0.3955  0.5240  0.1611
  192DOPC  H11X23773   6.617   5.559  14.913 -0.5106 -0.0239 -0.7209
  192DOPC  H11Y23774   6.524   5.461  15.013 -2.8609  0.5471 -1.1626
  192DOPC  C31223775   6.595   5.648  15.110 -0.1585  0.4111 -0.6288
  192DOPC  H12X23776   6.651   5.738  15.076  2.1023 -1.0949 -1.1093
  192DOPC  H12Y23777   6.675   5.582  15.149 -0.5340 -0.8069 -1.8595
  192DOPC  C31323778   6.493   5.670  15.224 -0.0485  0.1880 -0.0334
  192DOPC  H13X23779   6.415   5.745  15.198 -1.8761 -1.6550 -0.0711
  192DOPC  H13Y23780   6.445   5.573  15.248 -0.4698  0.2962 -0.4163
  192DOPC  C31423781   6.569   5.685  15.361  0.4885 -0.2705 -0.2480
  192DOPC  H14X23782   6.625   5.591  15.384  0.1975  0.0227  1.9308
  192DOPC  H14Y23783   6.639   5.771  15.353 -1.0485  1.4384  2.7090
  192DOPC  C31523784   6.465   5.708  15.474 -0.3347 -0.3800  0.6505
  192DOPC  H15X23785   6.366   5.671  15.438 -1.4766  2.3157  0.7394
  192DOPC  H15Y23786   6.437   5.814  15.493 -4.6032 -1.2384  0.2904
  192DOPC  C31623787   6.502   5.623  15.602 -0.5848  0.4620  0.4804
  192DOPC  H16X23788   6.539   5.527  15.558 -2.8602 -0.0510 -0.4809
  192DOPC  H16Y23789   6.591   5.673  15.644  0.7179 -1.6695  0.4280
  192DOPC  C31723790   6.392   5.589  15.703  0.3812 -0.1656  0.4968
  192DOPC  H17X23791   6.300   5.568  15.644 -0.5558 -1.5140  2.3230
  192DOPC  H17Y23792   6.418   5.496  15.759  0.9014 -0.3836 -0.1024
  192DOPC  C31823793   6.355   5.705  15.802  0.1589 -0.2758  0.1489
  192DOPC  H18X23794   6.352   5.803  15.750 -0.2666 -2.3476 -4.1915
  192DOPC  H18Y23795   6.253   5.683  15.840 -1.0850  1.1533 -2.0940
  192DOPC  H18Z23796   6.438   5.707  15.876  1.2403 -0.9721 -0.9990
  193DOPC     N23797   7.541   0.997  13.151  0.5377  0.2899 -0.0032
  193DOPC   C1223798   7.546   0.898  13.034 -0.2711  0.6408 -0.0046
  193DOPC  H12A23799   7.651   0.882  13.015 -0.0219 -1.9284  2.8936
  193DOPC  H12B23800   7.495   0.947  12.952 -0.3715  2.1464  0.9157
  193DOPC   C1323801   7.399   1.008  13.201  0.6245  0.3794 -0.0421
  193DOPC  H13A23802   7.336   1.064  13.132  0.6734  1.2022  0.5588
  193DOPC  H13B23803   7.350   0.914  13.221 -2.1604  1.6736 -0.1795
  193DOPC  H13C23804   7.392   1.058  13.297 -1.3703  1.4732 -0.6884
  193DOPC   C1423805   7.582   1.137  13.109  1.1387 -0.1956  0.7528
  193DOPC  H14A23806   7.509   1.179  13.043  1.8748 -0.5433 -0.3204
  193DOPC  H14B23807   7.593   1.202  13.194  0.3692  0.5628  0.2841
  193DOPC  H14C23808   7.675   1.135  13.054  0.5939 -2.6061 -0.2428
  193DOPC   C1523809   7.637   0.942  13.260  0.5824  0.3449 -0.4185
  193DOPC  H15A23810   7.741   0.949  13.233  0.6320  0.6371 -0.1512
  193DOPC  H15B23811   7.619   0.837  13.283 -1.4751  0.6331 -0.4708
  193DOPC  H15C23812   7.613   0.992  13.353 -0.4582 -0.1415 -0.4038
  193DOPC   C1123813   7.481   0.750  13.036 -0.6456 -0.2646  0.1032
  193DOPC  H11A23814   7.515   0.681  12.956 -2.0869 -0.2742 -0.5416
  193DOPC  H11B23815   7.519   0.693  13.124 -0.5623 -1.9359 -0.9663
  193DOPC     P23816   7.254   0.652  13.136  0.2583 -0.0537 -0.3981
  193DOPC   O1323817   7.301   0.509  13.126  0.5135  0.1781  0.1362
  193DOPC   O1423818   7.109   0.680  13.123  0.4513 -0.2292  0.3095
  193DOPC   O1223819   7.341   0.751  13.042  0.4213  0.1478  0.2132
  193DOPC   O1123820   7.292   0.711  13.280 -0.0270  0.3527  0.1706
  193DOPC    C123821   7.346   0.628  13.375 -0.2568 -0.5142 -0.6484
  193DOPC    HA23822   7.456   0.614  13.363 -0.2680  0.5076 -2.1723
  193DOPC    HB23823   7.295   0.530  13.372 -0.7679 -0.2786 -0.0037
  193DOPC    C223824   7.335   0.692  13.511 -0.0905 -0.3340 -0.2273
  193DOPC    HS23825   7.351   0.604  13.577 -0.0501 -1.0528 -1.1736
  193DOPC   O2123826   7.200   0.744  13.527 -0.2930  0.1450 -0.1947
  193DOPC   C2123827   7.106   0.659  13.514  0.5626  0.5944 -0.8778
  193DOPC   O2223828   7.108   0.539  13.529 -0.0392  0.1605  0.3066
  193DOPC   C2223829   6.979   0.738  13.490  0.0120  0.0664 -0.2719
  193DOPC   H2R23830   6.979   0.745  13.379 -1.2757 -1.4122 -0.3993
  193DOPC   H2S23831   6.987   0.842  13.527  1.1431 -0.1334  0.0863
  193DOPC    C323832   7.437   0.808  13.537  0.6475 -0.2494 -0.0016
  193DOPC    HX23833   7.393   0.899  13.491 -2.1979 -1.1205  0.8289
  193DOPC    HY23834   7.526   0.790  13.472 -1.1186 -2.0094 -2.1154
  193DOPC   O3123835   7.480   0.824  13.673 -0.1630  0.5703 -0.1832
  193DOPC   C3123836   7.511   0.954  13.699  1.0474 -0.1995 -0.0298
  193DOPC   O3223837   7.474   1.048  13.628 -0.1132  0.1206  0.1333
  193DOPC   C3223838   7.582   0.971  13.835  0.3363  0.2867  0.0580
  193DOPC   H2X23839   7.522   0.926  13.917 -0.2463 -1.0645 -1.0638
  193DOPC   H2Y23840   7.674   0.908  13.832  0.8695  1.0713 -2.9460
  193DOPC   C2323841   6.850   0.660  13.536 -0.2138  0.2611 -0.8320
  193DOPC   H3R23842   6.849   0.560  13.487  0.7737  0.6407 -1.6739
  193DOPC   H3S23843   6.758   0.708  13.495 -1.4133 -0.9113  0.4031
  193DOPC   C2423844   6.838   0.647  13.692  0.4906 -0.3231 -0.1162
  193DOPC   H4R23845   6.929   0.696  13.734  0.7893 -0.8792 -0.0992
  193DOPC   H4S23846   6.845   0.539  13.717 -0.3372 -0.0822  1.2512
  193DOPC   C2523847   6.713   0.714  13.743 -0.8949  0.1299 -0.4532
  193DOPC   H5R23848   6.626   0.662  13.697 -0.9749  0.9481 -1.2449
  193DOPC   H5S23849   6.711   0.818  13.704  2.2209  1.4065  2.2341
  193DOPC   C2623850   6.687   0.707  13.891 -0.0403  0.3992  0.2405
  193DOPC   H6R23851   6.773   0.739  13.953 -0.9181 -1.2654  2.4530
  193DOPC   H6S23852   6.672   0.601  13.921 -0.1061  0.6929  1.2667
  193DOPC   C2723853   6.565   0.786  13.943 -0.3551  0.2387  0.5321
  193DOPC   H7R23854   6.476   0.750  13.887 -1.2542 -0.8665  2.5609
  193DOPC   H7S23855   6.577   0.893  13.916 -0.9045 -0.2356 -1.7535
  193DOPC   C2823856   6.534   0.763  14.095  0.1637  0.3613  0.0048
  193DOPC   H8R23857   6.616   0.805  14.156  0.5324  0.8012 -0.7764
  193DOPC   H8S23858   6.536   0.652  14.100 -0.3700 -0.0106 -4.1430
  193DOPC   C2923859   6.411   0.836  14.147 -0.1094  0.1753 -0.0800
  193DOPC   H9R23860   6.331   0.833  14.070 -1.5996 -2.0081  1.4121
  193DOPC  C21023861   6.389   0.887  14.269  0.2218  0.4397  0.0150
  193DOPC  H10R23862   6.291   0.933  14.290 -1.2713 -1.9478 -1.3685
  193DOPC  C21123863   6.475   0.886  14.394 -0.6178  0.0536  0.1241
  193DOPC  H11R23864   6.502   0.990  14.424  2.4315 -0.1429 -1.5086
  193DOPC  H11S23865   6.575   0.839  14.377 -0.5313  0.1978  0.2263
  193DOPC  C21223866   6.417   0.810  14.514  0.3021 -0.0004  0.3302
  193DOPC  H12R23867   6.402   0.706  14.477 -0.3676  1.0244 -2.5384
  193DOPC  H12S23868   6.319   0.851  14.547  1.2962  3.4273 -0.5649
  193DOPC  C21323869   6.517   0.808  14.635  0.5967 -0.8566  0.1292
  193DOPC  H13R23870   6.507   0.908  14.683 -0.2598  0.0619 -1.8461
  193DOPC  H13S23871   6.619   0.816  14.591  0.0936 -0.9694 -1.1151
  193DOPC  C21423872   6.493   0.688  14.726 -0.4067 -0.9017  0.3615
  193DOPC  H14R23873   6.502   0.589  14.676 -0.8886 -0.7629 -0.0136
  193DOPC  H14S23874   6.390   0.695  14.769 -0.2513  1.8703  0.4900
  193DOPC  C21523875   6.597   0.711  14.841  0.1978  0.4428 -0.8378
  193DOPC  H15R23876   6.703   0.698  14.811  0.3624 -3.5684  0.7971
  193DOPC  H15S23877   6.586   0.622  14.907  2.5320  0.0801 -0.8665
  193DOPC  C21623878   6.570   0.823  14.935  0.4287  0.2320 -0.7551
  193DOPC  H16R23879   6.463   0.815  14.964  0.8168 -3.0148  0.2491
  193DOPC  H16S23880   6.587   0.922  14.887  0.2932  1.2327  1.1603
  193DOPC  C21723881   6.665   0.822  15.059  0.0541 -0.1155  0.0306
  193DOPC  H17R23882   6.667   0.716  15.092 -1.2196 -0.0312  0.4454
  193DOPC  H17S23883   6.613   0.880  15.139 -0.0533 -2.4858  1.7739
  193DOPC  C21823884   6.805   0.882  15.041  0.2205  0.4620  0.4360
  193DOPC  H18R23885   6.868   0.827  14.968 -1.3868 -0.4082 -0.3533
  193DOPC  H18S23886   6.850   0.882  15.142 -0.1204 -2.9801  0.7141
  193DOPC  H18T23887   6.806   0.985  14.999  0.3159 -0.2471 -1.4079
  193DOPC   C3323888   7.607   1.115  13.871 -0.1217 -0.0177  0.2800
  193DOPC   H3X23889   7.628   1.175  13.780 -0.6666  1.4233  1.0804
  193DOPC   H3Y23890   7.698   1.129  13.933 -0.7174 -0.0262  1.1842
  193DOPC   C3423891   7.499   1.181  13.955  0.2588 -0.2135  0.5922
  193DOPC   H4X23892   7.403   1.135  13.926  0.8452  0.0133 -1.9339
  193DOPC   H4Y23893   7.500   1.290  13.932  1.2728 -0.1589  0.8188
  193DOPC   C3523894   7.516   1.156  14.111 -0.0238  0.0451 -0.4297
  193DOPC   H5X23895   7.616   1.191  14.144 -0.7298  0.3113  1.5596
  193DOPC   H5Y23896   7.530   1.047  14.129  1.3327  0.5394  1.8627
  193DOPC   C3623897   7.412   1.206  14.205 -0.2963  0.2919 -0.2465
  193DOPC   H6X23898   7.397   1.315  14.192 -0.2401  0.1835 -1.2984
  193DOPC   H6Y23899   7.317   1.161  14.171 -0.1967  0.2754 -0.5052
  193DOPC   C3723900   7.445   1.163  14.353  0.1201  0.1432 -0.2469
  193DOPC   H7X23901   7.400   1.065  14.379  2.5359 -0.7035  1.1180
  193DOPC   H7Y23902   7.553   1.137  14.363 -0.1606 -1.6402 -1.4600
  193DOPC   C3823903   7.410   1.275  14.472 -0.5583  0.0286  0.7331
  193DOPC   H8X23904   7.435   1.377  14.437  0.7386 -0.1628  1.0569
  193DOPC   H8Y23905   7.474   1.249  14.559  0.0279  0.5451  0.4605
  193DOPC   C3923906   7.263   1.263  14.492  0.4399  0.6019  0.1196
  193DOPC   H9X23907   7.206   1.207  14.417  1.4885 -1.5253  0.8266
  193DOPC  C31023908   7.201   1.326  14.594 -0.0277  0.5407  0.4885
  193DOPC  H10X23909   7.093   1.309  14.601  0.1331 -0.3471  0.9291
  193DOPC  C31123910   7.270   1.390  14.714 -0.1997 -0.2141 -0.1049
  193DOPC  H11X23911   7.220   1.488  14.732 -0.6147  0.4128 -3.8318
  193DOPC  H11Y23912   7.377   1.412  14.695  0.1416 -0.7356  1.1537
  193DOPC  C31223913   7.273   1.292  14.834  0.3379 -0.3119 -0.3127
  193DOPC  H12X23914   7.336   1.201  14.826  1.4092  0.5153 -1.8295
  193DOPC  H12Y23915   7.168   1.262  14.856 -0.0533  0.5562 -0.9239
  193DOPC  C31323916   7.332   1.369  14.951  0.5606 -0.2459 -0.6589
  193DOPC  H13X23917   7.434   1.400  14.919  0.4777  0.3457 -0.3782
  193DOPC  H13Y23918   7.271   1.462  14.946 -0.8071 -1.1126 -0.4004
  193DOPC  C31423919   7.335   1.293  15.085  0.0501 -0.1737  0.1564
  193DOPC  H14X23920   7.234   1.252  15.108 -0.9881  2.4953  0.6271
  193DOPC  H14Y23921   7.400   1.204  15.071  0.0941  0.1887 -2.2994
  193DOPC  C31523922   7.393   1.379  15.197 -0.0229 -0.0141  0.1416
  193DOPC  H15X23923   7.381   1.316  15.287  0.4839  0.7743  0.7749
  193DOPC  H15Y23924   7.329   1.469  15.212  0.8757  0.1698  3.8053
  193DOPC  C31623925   7.537   1.419  15.182  0.0330 -0.8790  0.2619
  193DOPC  H16X23926   7.601   1.334  15.149  0.1905 -0.2695 -1.0430
  193DOPC  H16Y23927   7.538   1.505  15.112 -1.6537 -0.7163  0.4011
  193DOPC  C31723928   7.580   1.473  15.321 -0.2860 -0.5021  0.6558
  193DOPC  H17X23929   7.504   1.547  15.355 -0.3242 -0.6931  0.9951
  193DOPC  H17Y23930   7.589   1.398  15.403  0.1415 -0.6100  0.5104
  193DOPC  C31823931   7.716   1.550  15.329 -0.0431 -0.5449  0.0285
  193DOPC  H18X23932   7.799   1.478  15.312  0.5788  0.7549 -3.1544
  193DOPC  H18Y23933   7.723   1.639  15.264  0.0514  0.5433  1.4871
  193DOPC  H18Z23934   7.730   1.588  15.433 -3.4317  1.5282 -0.1279
  194DOPC     N23935   2.788   6.511  12.670  1.1181  0.0297  0.6033
  194DOPC   C1223936   2.833   6.665  12.659 -0.6748  0.2656 -0.0969
  194DOPC  H12A23937   2.763   6.716  12.723  0.2895  0.4861  0.8114
  194DOPC  H12B23938   2.822   6.704  12.558 -1.2683  2.2770  0.6952
  194DOPC   C1323939   2.884   6.426  12.611  0.0999 -0.0276 -0.6521
  194DOPC  H13A23940   2.968   6.419  12.678 -0.1790 -0.2516 -0.3257
  194DOPC  H13B23941   2.842   6.327  12.605 -1.4290  0.4401  1.3537
  194DOPC  H13C23942   2.919   6.466  12.517 -0.1232  0.3809 -0.5659
  194DOPC   C1423943   2.652   6.508  12.601  0.4115  0.3447  0.1155
  194DOPC  H14A23944   2.673   6.520  12.495  0.1679 -2.5112 -0.3366
  194DOPC  H14B23945   2.594   6.422  12.630  0.7611 -0.0802 -0.4140
  194DOPC  H14C23946   2.580   6.580  12.636 -0.9412 -1.9502  2.3509
  194DOPC   C1523947   2.773   6.469  12.809 -0.7566  0.2858 -0.2255
  194DOPC  H15A23948   2.860   6.506  12.860 -0.5511  1.1996 -1.2097
  194DOPC  H15B23949   2.758   6.364  12.831 -0.0328  0.3027  0.3886
  194DOPC  H15C23950   2.689   6.518  12.857 -0.8602 -1.5978  1.7243
  194DOPC   C1123951   2.975   6.705  12.708  0.2599  0.4530 -0.6727
  194DOPC  H11A23952   3.050   6.630  12.675 -0.2954  1.0898 -3.6833
  194DOPC  H11B23953   3.005   6.804  12.669 -0.1786  1.0155  0.3752
  194DOPC     P23954   2.908   6.823  12.926  0.1718 -0.3423  0.3623
  194DOPC   O1323955   2.797   6.879  12.845 -0.3694 -0.4492 -0.3461
  194DOPC   O1423956   3.002   6.923  12.987 -0.4318 -0.3281 -0.1830
  194DOPC   O1223957   2.983   6.711  12.849 -0.2007  0.4540 -0.0273
  194DOPC   O1123958   2.843   6.738  13.038  0.4521  0.2119 -0.0299
  194DOPC    C123959   2.924   6.681  13.142 -0.0249  0.5465  0.2978
  194DOPC    HA23960   3.034   6.694  13.127  0.1294  1.1826  1.8520
  194DOPC    HB23961   2.886   6.577  13.145 -2.5751  1.3545 -0.9430
  194DOPC    C223962   2.905   6.742  13.282 -0.5600 -0.5412  0.4175
  194DOPC    HS23963   2.966   6.691  13.360 -1.1259 -0.3177  1.0119
  194DOPC   O2123964   2.768   6.734  13.310 -0.4217  0.4885  0.3536
  194DOPC   C2123965   2.722   6.750  13.432 -0.5053  0.3903  0.0685
  194DOPC   O2223966   2.791   6.757  13.535  0.3437  0.4402 -0.3781
  194DOPC   C2223967   2.578   6.793  13.433  0.4880  0.3952 -0.1179
  194DOPC   H2R23968   2.504   6.711  13.440 -1.3168  2.0396  1.3581
  194DOPC   H2S23969   2.552   6.838  13.334 -0.5210 -1.0211 -0.5288
  194DOPC    C323970   2.956   6.889  13.281 -0.2815  0.2971  0.3938
  194DOPC    HX23971   2.881   6.936  13.214  0.1775  2.0260  1.0548
  194DOPC    HY23972   3.059   6.899  13.241 -0.8530 -0.7015 -1.4906
  194DOPC   O3123973   2.949   6.952  13.414 -0.1687 -0.2440  0.1329
  194DOPC   C3123974   2.902   7.077  13.433  0.1142  0.5137 -0.6259
  194DOPC   O3223975   2.880   7.158  13.343  0.7567  0.1671 -0.8046
  194DOPC   C3223976   2.893   7.106  13.584 -0.6568 -0.0860  0.0069
  194DOPC   H2X23977   2.786   7.089  13.608 -0.3755 -0.9829  0.6702
  194DOPC   H2Y23978   2.950   7.038  13.651  0.6283  0.5317 -0.4331
  194DOPC   C2323979   2.536   6.910  13.528 -0.1220  0.1399 -0.3067
  194DOPC   H3R23980   2.434   6.931  13.489 -0.4382  0.4741  0.6671
  194DOPC   H3S23981   2.589   7.006  13.511  1.5722 -0.7563 -0.3324
  194DOPC   C2423982   2.531   6.894  13.676  0.5312  0.1198 -0.0704
  194DOPC   H4R23983   2.526   6.996  13.720  0.6431  0.4318 -0.7638
  194DOPC   H4S23984   2.615   6.830  13.709 -0.4192 -1.8041 -1.1943
  194DOPC   C2523985   2.399   6.814  13.711  0.0918 -0.5558  0.2903
  194DOPC   H5R23986   2.406   6.722  13.649  1.3251 -0.4446  0.2391
  194DOPC   H5S23987   2.318   6.879  13.672  0.4273  1.3891  2.6173
  194DOPC   C2623988   2.379   6.790  13.861  0.3373 -0.1356  0.1621
  194DOPC   H6R23989   2.465   6.728  13.897 -0.0230 -0.2058  0.9152
  194DOPC   H6S23990   2.287   6.732  13.884 -1.0320  2.0447  0.4187
  194DOPC   C2723991   2.368   6.904  13.960  0.3889  0.2354 -0.8549
  194DOPC   H7R23992   2.273   6.959  13.940 -0.7134  0.0634  3.0496
  194DOPC   H7S23993   2.463   6.960  13.950  1.2905 -1.2828 -1.2377
  194DOPC   C2823994   2.362   6.864  14.113  0.4884  0.0164 -0.1612
  194DOPC   H8R23995   2.336   6.948  14.180 -1.4271  0.4088 -1.3266
  194DOPC   H8S23996   2.464   6.820  14.124  1.0907  0.4596 -3.1122
  194DOPC   C2923997   2.264   6.757  14.148  0.0535 -0.3337 -0.0607
  194DOPC   H9R23998   2.275   6.669  14.083  1.5596 -1.5062  1.6982
  194DOPC  C21023999   2.148   6.766  14.212 -0.2426 -0.3951 -0.3597
  194DOPC  H10R24000   2.080   6.679  14.206  0.3597 -0.9317  0.4567
  194DOPC  C21124001   2.090   6.888  14.290 -0.5854 -0.2184  0.4416
  194DOPC  H11R24002   1.985   6.913  14.261 -0.0649  1.1269 -0.3742
  194DOPC  H11S24003   2.143   6.983  14.267 -2.8920  1.0877  0.1917
  194DOPC  C21224004   2.107   6.876  14.447  0.3117  0.3322  0.3736
  194DOPC  H12R24005   2.070   6.971  14.491  2.9189  2.4052 -1.5595
  194DOPC  H12S24006   2.215   6.871  14.473  0.4750  0.0362 -0.3407
  194DOPC  C21324007   2.035   6.759  14.505 -0.0406 -0.1680 -0.2601
  194DOPC  H13R24008   2.067   6.669  14.448 -2.2359 -0.5466 -0.9757
  194DOPC  H13S24009   1.928   6.778  14.482 -1.3337 -3.2200  2.3780
  194DOPC  C21424010   2.056   6.732  14.656  0.3922  0.7519 -0.2904
  194DOPC  H14R24011   2.165   6.712  14.659 -0.2384 -3.2128  1.4337
  194DOPC  H14S24012   2.009   6.634  14.676  1.0361  0.6461  0.7607
  194DOPC  C21524013   2.003   6.830  14.754 -0.2895  0.0137  0.0373
  194DOPC  H15R24014   1.893   6.813  14.747  0.1651 -4.1619  0.7904
  194DOPC  H15S24015   2.030   6.933  14.720 -1.8699 -0.4595 -2.9796
  194DOPC  C21624016   2.043   6.800  14.900  0.7459  0.8089  0.8948
  194DOPC  H16R24017   2.154   6.797  14.903  0.8179  2.0361  0.1842
  194DOPC  H16S24018   1.994   6.705  14.928  1.5344 -1.0796 -3.2840
  194DOPC  C21724019   1.982   6.906  14.995 -0.0276 -0.0611  0.2559
  194DOPC  H17R24020   1.872   6.894  14.987 -0.0700  0.9363 -0.9601
  194DOPC  H17S24021   2.005   7.010  14.962  0.6540 -0.3351 -0.1520
  194DOPC  C21824022   2.041   6.879  15.136  0.4612 -0.4909  0.3517
  194DOPC  H18R24023   2.146   6.916  15.128  0.1140  0.4111 -0.2153
  194DOPC  H18S24024   2.032   6.780  15.185 -0.0256  0.0480  1.3961
  194DOPC  H18T24025   1.994   6.952  15.206 -0.8566 -0.5854 -0.4264
  194DOPC   C3324026   2.945   7.250  13.619 -0.2447 -0.4151 -0.5636
  194DOPC   H3X24027   2.898   7.335  13.565 -2.1443 -0.7966  0.4216
  194DOPC   H3Y24028   3.052   7.257  13.589  0.2383 -1.4334  0.8175
  194DOPC   C3424029   2.936   7.283  13.771  0.3146 -0.0663  0.0115
  194DOPC   H4X24030   2.833   7.268  13.809  0.6590  1.5529  1.7438
  194DOPC   H4Y24031   2.977   7.385  13.791  1.5305 -0.8832  2.0985
  194DOPC   C3524032   3.036   7.212  13.856  0.0665  0.2256  0.5226
  194DOPC   H5X24033   3.132   7.210  13.801  0.1485  1.3768  0.5891
  194DOPC   H5Y24034   3.013   7.106  13.880 -0.8313  0.1416 -0.6388
  194DOPC   C3624035   3.073   7.293  13.986  0.1774  0.4475 -0.4655
  194DOPC   H6X24036   3.141   7.232  14.050 -0.3937 -0.3342 -0.5846
  194DOPC   H6Y24037   3.133   7.381  13.956  0.0990  1.0084  0.9208
  194DOPC   C3724038   2.949   7.337  14.072 -0.7895  0.3767 -0.4538
  194DOPC   H7X24039   2.875   7.388  14.006 -0.8843 -2.1653 -2.4561
  194DOPC   H7Y24040   2.892   7.248  14.103 -1.7965  1.3763  0.6634
  194DOPC   C3824041   2.983   7.417  14.203 -0.1638  0.4947 -0.1247
  194DOPC   H8X24042   3.058   7.357  14.258 -0.8234 -1.5281 -1.3058
  194DOPC   H8Y24043   2.885   7.415  14.256  0.1516  0.6913  0.4655
  194DOPC   C3924044   3.024   7.559  14.175  0.4008  0.2392 -0.3704
  194DOPC   H9X24045   2.956   7.615  14.109  0.0817 -1.1946 -1.2976
  194DOPC  C31024046   3.140   7.619  14.209 -0.1681 -0.2342  0.0976
  194DOPC  H10X24047   3.148   7.726  14.183  1.3692  0.7116  3.7845
  194DOPC  C31124048   3.249   7.569  14.292  0.1136  0.1340  0.1011
  194DOPC  H11X24049   3.342   7.618  14.254  0.9651 -0.2518  1.5981
  194DOPC  H11Y24050   3.263   7.462  14.268 -0.5090  0.1619 -0.4006
  194DOPC  C31224051   3.222   7.583  14.445  0.6019 -0.1962  0.3473
  194DOPC  H12X24052   3.325   7.574  14.486  1.8968  1.0305 -2.4158
  194DOPC  H12Y24053   3.164   7.495  14.480  1.4975 -0.4390  1.2872
  194DOPC  C31324054   3.152   7.706  14.490  0.5604  0.5338 -0.3095
  194DOPC  H13X24055   3.188   7.796  14.437 -0.7111  1.6278  0.5902
  194DOPC  H13Y24056   3.044   7.710  14.462  0.6745  3.3969 -0.6417
  194DOPC  C31424057   3.156   7.731  14.641 -0.1810  0.1862  0.2116
  194DOPC  H14X24058   3.122   7.640  14.695  1.4070 -0.1025  0.7830
  194DOPC  H14Y24059   3.260   7.759  14.668 -0.5288  1.4690  0.2744
  194DOPC  C31524060   3.069   7.849  14.678  0.1739  0.7683  0.8986
  194DOPC  H15X24061   2.965   7.820  14.706 -0.0333  2.2307  1.7308
  194DOPC  H15Y24062   3.063   7.918  14.591 -2.4722 -0.1685  0.2140
  194DOPC  C31624063   3.131   7.919  14.801  0.0174  0.0983 -0.0059
  194DOPC  H16X24064   3.141   7.839  14.878  1.2864 -1.1051 -1.3580
  194DOPC  H16Y24065   3.236   7.950  14.785  0.4503 -1.0347  0.5123
  194DOPC  C31724066   3.036   8.023  14.860 -0.5155 -0.1263 -0.7816
  194DOPC  H17X24067   3.005   8.100  14.786  2.0588  1.7198 -0.0939
  194DOPC  H17Y24068   2.947   7.962  14.884  1.2896 -2.3348  0.8048
  194DOPC  C31824069   3.076   8.085  14.993 -0.0069  0.2819 -0.4717
  194DOPC  H18X24070   3.181   8.119  14.984  0.3674 -0.8317 -0.4506
  194DOPC  H18Y24071   3.012   8.175  15.009  0.0963  0.0015  1.8152
  194DOPC  H18Z24072   3.084   8.013  15.077  3.4145  1.0907  0.0295
  195DOPC     N24073   4.941   6.162  12.522 -1.0318  0.0736  0.4916
  195DOPC   C1224074   4.906   6.263  12.635 -0.4803 -0.3863  0.2379
  195DOPC  H12A24075   4.978   6.344  12.637 -1.1897  0.2531  0.6130
  195DOPC  H12B24076   4.931   6.206  12.724 -0.7848  0.2482  0.7418
  195DOPC   C1324077   4.873   6.034  12.538 -0.1367 -0.3403 -0.6598
  195DOPC  H13A24078   4.893   5.964  12.459 -0.9093  0.5390 -1.6720
  195DOPC  H13B24079   4.890   5.998  12.639 -0.2186  1.8402  0.1977
  195DOPC  H13C24080   4.770   6.062  12.524 -0.4222 -0.6357  0.6765
  195DOPC   C1424081   5.089   6.141  12.527  0.0360 -0.3498  0.0843
  195DOPC  H14A24082   5.117   6.098  12.622 -2.3326 -0.8970  0.6065
  195DOPC  H14B24083   5.123   6.076  12.447  1.2934 -0.2130  0.4859
  195DOPC  H14C24084   5.137   6.235  12.503 -2.3491  0.7253 -0.8177
  195DOPC   C1524085   4.892   6.222  12.395  0.9322 -0.5588  0.3163
  195DOPC  H15A24086   4.914   6.167  12.304 -0.9292  0.0806 -0.5622
  195DOPC  H15B24087   4.946   6.313  12.373  0.1704 -0.5445 -1.7103
  195DOPC  H15C24088   4.787   6.246  12.400  1.0304 -0.2566  1.0455
  195DOPC   C1124089   4.766   6.318  12.655  0.1527 -0.4331 -0.4768
  195DOPC  H11A24090   4.767   6.389  12.740  0.7871 -0.9808 -0.0163
  195DOPC  H11B24091   4.740   6.377  12.565 -0.9263 -0.7041 -0.3632
  195DOPC     P24092   4.635   6.143  12.798 -0.0941  0.1844 -0.0961
  195DOPC   O1324093   4.752   6.063  12.850  0.1121  0.3041  0.1074
  195DOPC   O1424094   4.516   6.061  12.761 -0.0320  0.0556  0.1095
  195DOPC   O1224095   4.672   6.210  12.666 -0.1623  0.3311  0.0233
  195DOPC   O1124096   4.587   6.269  12.895  0.0747  0.0946 -0.1237
  195DOPC    C124097   4.679   6.289  13.007 -0.3729 -0.1189 -0.0602
  195DOPC    HA24098   4.667   6.396  13.034 -0.3386  0.0829 -0.8265
  195DOPC    HB24099   4.787   6.283  12.980 -0.3237 -0.1478  0.1384
  195DOPC    C224100   4.658   6.196  13.124 -0.7457  1.4576  0.8896
  195DOPC    HS24101   4.688   6.093  13.094 -0.9931  1.4336  0.7221
  195DOPC   O2124102   4.520   6.200  13.169  0.0283 -0.4543 -0.2728
  195DOPC   C2124103   4.479   6.085  13.227 -0.3395  0.2679  0.2703
  195DOPC   O2224104   4.539   5.982  13.226  0.0206 -0.4256 -0.1741
  195DOPC   C2224105   4.342   6.100  13.298 -0.2088  0.4214  0.1149
  195DOPC   H2R24106   4.269   6.069  13.221  0.7332  0.3949 -0.7776
  195DOPC   H2S24107   4.319   6.208  13.314 -0.4353  0.2052  1.4067
  195DOPC    C324108   4.754   6.236  13.240  0.1513 -0.8545 -0.2289
  195DOPC    HX24109   4.743   6.344  13.262  3.8708 -0.5220  0.6744
  195DOPC    HY24110   4.862   6.230  13.213  0.4378  0.1966  0.6370
  195DOPC   O3124111   4.729   6.153  13.354  0.1366  0.3023  0.0280
  195DOPC   C3124112   4.827   6.135  13.442  0.0151 -0.0984 -0.3285
  195DOPC   O3224113   4.936   6.189  13.447 -0.1632  0.0051 -0.4243
  195DOPC   C3224114   4.789   6.024  13.538  0.3137  0.1507 -0.2701
  195DOPC   H2X24115   4.686   6.048  13.571  0.1650 -1.0202  0.1618
  195DOPC   H2Y24116   4.793   5.925  13.487  4.2311  0.3449 -0.6332
  195DOPC   C2324117   4.332   6.021  13.430 -0.3874  0.2708  0.3100
  195DOPC   H3R24118   4.393   5.928  13.425 -0.9017 -0.1376  1.2890
  195DOPC   H3S24119   4.230   5.980  13.448  0.6304 -2.6258 -0.0402
  195DOPC   C2424120   4.385   6.105  13.547  0.4811 -0.8083 -0.2056
  195DOPC   H4R24121   4.312   6.188  13.557 -0.2076 -1.4383  0.0729
  195DOPC   H4S24122   4.489   6.138  13.527  1.0857 -1.0643  2.2127
  195DOPC   C2524123   4.394   6.033  13.684 -0.5687  0.1123  0.2233
  195DOPC   H5R24124   4.469   5.952  13.681 -1.6648 -1.1789  3.3371
  195DOPC   H5S24125   4.296   5.991  13.715 -0.2307 -0.0538  1.1018
  195DOPC   C2624126   4.446   6.134  13.792 -0.0080 -0.6727  0.5841
  195DOPC   H6R24127   4.375   6.218  13.805  0.1889 -0.3114 -0.5535
  195DOPC   H6S24128   4.545   6.171  13.758 -0.5590  0.6844  0.3981
  195DOPC   C2724129   4.449   6.068  13.922  0.1740 -0.8103 -0.0272
  195DOPC   H7R24130   4.490   5.966  13.905 -1.9341 -1.8596  0.8559
  195DOPC   H7S24131   4.346   6.067  13.964  0.2617 -2.0009  0.1840
  195DOPC   C2824132   4.533   6.145  14.028 -0.1191 -0.3185 -0.6798
  195DOPC   H8R24133   4.638   6.156  13.995  0.8684  0.5421  2.4225
  195DOPC   H8S24134   4.546   6.084  14.121  2.5169 -0.8504 -1.3227
  195DOPC   C2924135   4.493   6.288  14.069  0.7467 -0.6878 -0.0485
  195DOPC   H9R24136   4.505   6.358  13.985 -0.1677 -0.0456  0.3394
  195DOPC  C21024137   4.426   6.325  14.179 -0.5126 -0.1468 -0.1435
  195DOPC  H10R24138   4.405   6.431  14.196 -0.4240 -0.1501 -0.0059
  195DOPC  C21124139   4.382   6.242  14.293 -0.0590 -0.1601  0.2100
  195DOPC  H11R24140   4.341   6.148  14.251  0.0475 -0.1036 -0.0192
  195DOPC  H11S24141   4.295   6.301  14.328  1.5179  2.4111 -0.0033
  195DOPC  C21224142   4.482   6.198  14.408  0.2570 -0.3507  0.4397
  195DOPC  H12R24143   4.512   6.284  14.470  1.2164 -1.5611  1.7215
  195DOPC  H12S24144   4.574   6.164  14.356  1.3481 -1.2315  2.8098
  195DOPC  C21324145   4.419   6.091  14.501  0.0669  0.6341  0.4600
  195DOPC  H13R24146   4.507   6.065  14.565 -0.5224 -1.5943  0.4648
  195DOPC  H13S24147   4.394   6.001  14.442  1.1591 -0.1910  1.1999
  195DOPC  C21424148   4.307   6.140  14.591  0.0197 -0.0027 -0.0843
  195DOPC  H14R24149   4.235   6.195  14.527 -0.5365  1.2585  1.5603
  195DOPC  H14S24150   4.350   6.204  14.671  1.9860 -0.5317 -0.6587
  195DOPC  C21524151   4.240   6.021  14.671 -0.3472 -0.1086  0.0470
  195DOPC  H15R24152   4.317   5.959  14.722  0.6537  0.2471 -0.9914
  195DOPC  H15S24153   4.210   5.953  14.589  0.6290  0.1096 -0.5072
  195DOPC  C21624154   4.129   6.047  14.772 -0.3519 -0.3853  0.7785
  195DOPC  H16R24155   4.096   5.946  14.805  1.2848 -1.7253 -1.3960
  195DOPC  H16S24156   4.052   6.095  14.709  0.5243 -1.2982 -1.0850
  195DOPC  C21724157   4.157   6.140  14.893  0.7760 -0.0758  0.0350
  195DOPC  H17R24158   4.067   6.168  14.952 -1.2413 -0.5421 -2.6582
  195DOPC  H17S24159   4.198   6.236  14.855 -0.9465  1.2004  1.2279
  195DOPC  C21824160   4.251   6.078  14.999 -0.3166  0.8261  0.2657
  195DOPC  H18R24161   4.212   5.988  15.051  0.6793 -0.3082 -0.8733
  195DOPC  H18S24162   4.269   6.156  15.076  1.2160  0.5103  0.2793
  195DOPC  H18T24163   4.348   6.045  14.956 -0.9959 -0.9534  0.0123
  195DOPC   C3324164   4.871   6.029  13.661 -0.4269  0.1849 -0.4029
  195DOPC   H3X24165   4.872   6.132  13.703 -0.8003 -0.4538  1.2256
  195DOPC   H3Y24166   4.974   5.993  13.640 -1.3291 -1.8242 -1.5940
  195DOPC   C3424167   4.811   5.952  13.784 -0.2003 -0.2305  0.7876
  195DOPC   H4X24168   4.813   5.842  13.769  3.0491 -0.5696  2.6728
  195DOPC   H4Y24169   4.702   5.973  13.785 -0.2031 -0.2347  0.6650
  195DOPC   C3524170   4.895   5.970  13.911  0.5503  0.3786 -0.2500
  195DOPC   H5X24171   4.908   6.076  13.943  1.0982  0.1012  0.4884
  195DOPC   H5Y24172   4.991   5.916  13.899 -0.0721 -1.0236  0.7367
  195DOPC   C3624173   4.838   5.888  14.030 -0.3850  0.5496  0.1797
  195DOPC   H6X24174   4.739   5.925  14.064 -0.7394  0.4029 -0.6810
  195DOPC   H6Y24175   4.820   5.784  13.996 -1.0640  0.5335  0.5868
  195DOPC   C3724176   4.941   5.893  14.154  0.7195 -0.8152  0.0642
  195DOPC   H7X24177   5.045   5.874  14.119  0.7474 -0.9059  0.1945
  195DOPC   H7Y24178   4.923   5.993  14.199  1.4983 -0.5464 -0.1998
  195DOPC   C3824179   4.912   5.790  14.260 -0.4333  1.0390  0.4772
  195DOPC   H8X24180   4.981   5.801  14.347 -0.5687 -2.6790  1.2329
  195DOPC   H8Y24181   4.930   5.690  14.215  0.0214  1.3318 -0.0075
  195DOPC   C3924182   4.773   5.779  14.314  0.7961 -0.4278  0.1165
  195DOPC   H9X24183   4.719   5.693  14.272 -1.4391  0.6866  0.5049
  195DOPC  C31024184   4.724   5.848  14.417  0.2032 -0.7511 -0.1026
  195DOPC  H10X24185   4.630   5.817  14.465  0.0989  1.2900  1.1404
  195DOPC  C31124186   4.805   5.956  14.495 -0.4537  0.4385  0.2759
  195DOPC  H11X24187   4.733   6.035  14.526  0.7115  1.3917  0.5994
  195DOPC  H11Y24188   4.893   6.002  14.446  0.5315 -0.5277  1.0880
  195DOPC  C31224189   4.853   5.892  14.627  0.4615 -0.0628 -0.4933
  195DOPC  H12X24190   4.924   5.955  14.684 -1.0205  0.7866  0.4859
  195DOPC  H12Y24191   4.909   5.800  14.599 -1.3793 -2.1394  2.0910
  195DOPC  C31324192   4.752   5.832  14.726 -0.3632 -0.0763  0.9649
  195DOPC  H13X24193   4.691   5.752  14.677 -1.4509  1.2833  0.0139
  195DOPC  H13Y24194   4.816   5.778  14.798  0.1841  0.9361  1.2488
  195DOPC  C31424195   4.664   5.932  14.809 -0.7934  0.1574  0.9990
  195DOPC  H14X24196   4.612   5.999  14.737  0.8176  0.7479  0.3454
  195DOPC  H14Y24197   4.602   5.877  14.883 -1.1390  0.4483  0.9291
  195DOPC  C31524198   4.748   6.030  14.886  0.6548 -0.1133 -0.4151
  195DOPC  H15X24199   4.819   6.089  14.824  1.7464 -0.6768  0.2602
  195DOPC  H15Y24200   4.811   5.969  14.955 -1.4895 -0.3803  1.4140
  195DOPC  C31624201   4.659   6.118  14.976  0.0270  0.3276  0.1272
  195DOPC  H16X24202   4.588   6.061  15.040 -1.9963 -0.4146 -2.5672
  195DOPC  H16Y24203   4.729   6.185  15.030 -0.4451  1.5549 -0.7303
  195DOPC  C31724204   4.565   6.211  14.897 -0.0441  0.1052 -0.3495
  195DOPC  H17X24205   4.479   6.153  14.858  0.9201 -1.8840  0.3756
  195DOPC  H17Y24206   4.532   6.289  14.969  2.4870  0.2350  0.7760
  195DOPC  C31824207   4.628   6.287  14.778  0.3115 -0.7553 -0.6167
  195DOPC  H18X24208   4.551   6.355  14.737 -0.0386 -1.7685 -1.6879
  195DOPC  H18Y24209   4.692   6.360  14.832 -1.8665  0.2074  0.7855
  195DOPC  H18Z24210   4.670   6.223  14.698 -2.3894 -0.4487 -2.4098
  196DOPC     N24211   1.967   7.182  12.702 -0.1674  0.0630  0.1347
  196DOPC   C1224212   2.061   7.269  12.786  0.6800  0.0009 -0.3234
  196DOPC  H12A24213   2.072   7.370  12.749  0.8306  0.6347  1.3412
  196DOPC  H12B24214   2.160   7.228  12.777 -0.2322 -2.3805 -0.1526
  196DOPC   C1324215   1.834   7.247  12.705 -0.8950  0.6728 -0.2745
  196DOPC  H13A24216   1.813   7.269  12.809  0.6190 -2.5745  0.8580
  196DOPC  H13B24217   1.831   7.343  12.657  1.4598  0.3615 -1.1684
  196DOPC  H13C24218   1.760   7.172  12.681  0.6673 -1.4532  1.1230
  196DOPC   C1424219   1.952   7.042  12.756 -0.3495  0.2635  0.3937
  196DOPC  H14A24220   1.893   6.983  12.688  3.4799 -0.7615 -2.3849
  196DOPC  H14B24221   2.042   6.984  12.771  0.4395  1.2700 -0.2815
  196DOPC  H14C24222   1.906   7.038  12.853  1.1473 -0.8394  1.1045
  196DOPC   C1524223   2.021   7.170  12.559 -0.4914 -0.7799 -0.4453
  196DOPC  H15A24224   2.014   7.262  12.503 -1.1081 -0.1469  0.6442
  196DOPC  H15B24225   1.972   7.095  12.499 -1.1656 -0.7359  0.0348
  196DOPC  H15C24226   2.125   7.140  12.563  0.4077  2.1019  1.0237
  196DOPC   C1124227   2.043   7.279  12.945  0.0958  0.4918  1.2239
  196DOPC  H11A24228   2.057   7.172  12.974 -1.1789 -1.2172 -3.5613
  196DOPC  H11B24229   2.116   7.351  12.988  0.6025  0.8504 -0.1888
  196DOPC     P24230   1.843   7.298  13.113  0.2121  0.0308  0.5064
  196DOPC   O1324231   1.792   7.159  13.106  0.1675  0.5160 -0.1381
  196DOPC   O1424232   1.746   7.406  13.125  0.4172  0.0043  0.1082
  196DOPC   O1224233   1.915   7.333  12.975  0.4089  0.0493 -0.4647
  196DOPC   O1124234   1.954   7.308  13.218  0.9488 -0.0067 -0.1962
  196DOPC    C124235   2.029   7.205  13.278 -0.0064  0.4785  0.5684
  196DOPC    HA24236   2.136   7.230  13.264 -0.2032  0.9813 -0.1177
  196DOPC    HB24237   2.017   7.105  13.231 -0.2140  0.5894  0.3778
  196DOPC    C224238   2.000   7.176  13.425 -0.5759 -1.0238 -0.3029
  196DOPC    HS24239   1.935   7.087  13.438 -2.7626  0.7669  1.9654
  196DOPC   O2124240   1.923   7.287  13.484  0.9290 -0.3145  0.4849
  196DOPC   C2124241   1.796   7.302  13.458 -0.1685 -0.1208  0.0225
  196DOPC   O2224242   1.725   7.211  13.414 -0.0069  0.5156 -0.3562
  196DOPC   C2224243   1.752   7.438  13.495  0.2076  0.0110 -0.5573
  196DOPC   H2R24244   1.715   7.483  13.400 -1.8715 -1.9525 -0.7714
  196DOPC   H2S24245   1.830   7.502  13.542 -0.0651 -0.7873  1.0595
  196DOPC    C324246   2.123   7.161  13.516 -0.6266  0.4359  0.1903
  196DOPC    HX24247   2.180   7.255  13.500 -1.4769  0.5547 -2.6376
  196DOPC    HY24248   2.183   7.077  13.474 -2.4524 -0.9161  0.1693
  196DOPC   O3124249   2.085   7.137  13.656 -0.4907 -0.8370  0.2773
  196DOPC   C3124250   2.061   7.009  13.685  1.4347 -0.2389  0.3232
  196DOPC   O3224251   2.077   6.914  13.608 -0.5383  0.0113 -0.2893
  196DOPC   C3224252   1.999   7.000  13.827 -0.2346  0.7647  1.0685
  196DOPC   H2X24253   1.888   6.993  13.821 -0.0720 -0.8472 -1.6884
  196DOPC   H2Y24254   2.034   6.905  13.873 -0.9615  0.8251  1.7824
  196DOPC   C2324255   1.635   7.424  13.593  0.6915 -0.3023  0.5540
  196DOPC   H3R24256   1.562   7.341  13.588  0.9640 -0.5783  1.0546
  196DOPC   H3S24257   1.577   7.516  13.571  0.6204 -0.3518  0.5367
  196DOPC   C2424258   1.677   7.438  13.741 -0.0361  0.4681 -0.6408
  196DOPC   H4R24259   1.751   7.518  13.760  1.8928 -1.2167 -0.6693
  196DOPC   H4S24260   1.726   7.346  13.781 -0.1270 -0.0170 -1.6364
  196DOPC   C2524261   1.548   7.466  13.835 -0.1128 -0.0349  0.0342
  196DOPC   H5R24262   1.479   7.382  13.814  1.2152 -1.2375  0.2628
  196DOPC   H5S24263   1.499   7.563  13.816 -2.7558 -1.3468 -0.2156
  196DOPC   C2624264   1.579   7.451  13.983  0.6102  0.4009 -0.2342
  196DOPC   H6R24265   1.633   7.542  14.017  0.3045 -0.0876  1.7375
  196DOPC   H6S24266   1.637   7.357  13.998 -1.0520 -0.3338  2.2977
  196DOPC   C2724267   1.453   7.424  14.066  0.5505  0.6745  0.0984
  196DOPC   H7R24268   1.392   7.341  14.024  0.7499  0.4893  0.1803
  196DOPC   H7S24269   1.396   7.519  14.056 -0.8886  0.1032  2.2462
  196DOPC   C2824270   1.486   7.409  14.210 -0.5112 -0.2555 -0.6602
  196DOPC   H8R24271   1.515   7.511  14.245 -0.2276 -0.2841 -0.8110
  196DOPC   H8S24272   1.575   7.346  14.229  0.5907  1.1795 -0.8672
  196DOPC   C2924273   1.366   7.352  14.283 -0.5492  0.0162  0.3854
  196DOPC   H9R24274   1.320   7.270  14.226  2.4492 -0.5747 -1.4148
  196DOPC  C21024275   1.302   7.401  14.392  0.7703 -0.5506  0.1051
  196DOPC  H10R24276   1.224   7.338  14.438 -0.1046  0.6561  0.3258
  196DOPC  C21124277   1.345   7.519  14.472  0.0201  0.4099  0.3382
  196DOPC  H11R24278   1.278   7.603  14.445 -1.1080 -1.0799 -1.8603
  196DOPC  H11S24279   1.446   7.559  14.447  1.5758 -3.7528 -0.9265
  196DOPC  C21224280   1.330   7.492  14.619 -0.3380  0.6758  0.4421
  196DOPC  H12R24281   1.393   7.407  14.651 -1.2721  0.4730  1.8234
  196DOPC  H12S24282   1.223   7.467  14.638 -1.9691  3.9154 -3.1027
  196DOPC  C21324283   1.380   7.624  14.694  0.1120  0.0236 -0.1081
  196DOPC  H13R24284   1.484   7.651  14.666  0.7760 -2.3634 -0.1922
  196DOPC  H13S24285   1.395   7.607  14.803  2.1199  2.9218  0.1686
  196DOPC  C21424286   1.290   7.743  14.682 -0.4626  0.0063  0.1525
  196DOPC  H14R24287   1.182   7.717  14.691 -0.3679 -0.1217  0.9353
  196DOPC  H14S24288   1.303   7.782  14.578  2.9746 -0.2308  0.3774
  196DOPC  C21524289   1.332   7.848  14.776  0.2574  0.3074 -0.0809
  196DOPC  H15R24290   1.439   7.867  14.755  0.5823 -0.7090  0.5730
  196DOPC  H15S24291   1.329   7.816  14.883  0.0260  1.5910  0.3157
  196DOPC  C21624292   1.255   7.986  14.756  0.2798  0.7021 -0.0397
  196DOPC  H16R24293   1.278   8.024  14.654  1.3245  0.4953  0.1153
  196DOPC  H16S24294   1.307   8.053  14.827  0.9495  1.4034 -1.1607
  196DOPC  C21724295   1.105   7.979  14.786 -0.6148  0.0243 -0.4611
  196DOPC  H17R24296   1.100   7.939  14.890  1.2273 -2.9738 -1.4273
  196DOPC  H17S24297   1.062   7.904  14.716  1.0558 -0.5601 -0.9093
  196DOPC  C21824298   1.032   8.113  14.768  0.2862  0.0713 -0.2522
  196DOPC  H18R24299   1.040   8.145  14.662  2.0459 -0.7362 -0.3991
  196DOPC  H18S24300   1.083   8.182  14.839  0.5832 -1.6557  1.3086
  196DOPC  H18T24301   0.927   8.098  14.798  0.6412 -0.9597  0.5531
  196DOPC   C3324302   2.049   7.102  13.921  0.7087  0.4316 -0.2209
  196DOPC   H3X24303   2.148   7.152  13.910 -0.3523  2.6974 -0.1055
  196DOPC   H3Y24304   2.039   7.067  14.026 -1.2588  1.9244  0.1479
  196DOPC   C3424305   1.958   7.227  13.922 -0.7429 -0.2201 -0.7603
  196DOPC   H4X24306   1.855   7.199  13.953 -0.0122 -0.6061  1.4342
  196DOPC   H4Y24307   1.964   7.268  13.818 -1.9476  0.1157 -0.7091
  196DOPC   C3524308   2.002   7.337  14.018  0.3500 -0.2277 -0.2407
  196DOPC   H5X24309   1.972   7.439  13.987  1.4153  0.1829  0.0425
  196DOPC   H5Y24310   2.112   7.332  14.024  0.3865  0.9297  0.4074
  196DOPC   C3624311   1.940   7.321  14.161  0.4901 -0.4513  0.1778
  196DOPC   H6X24312   1.830   7.334  14.159  0.1355 -2.9512  0.2827
  196DOPC   H6Y24313   1.966   7.218  14.195  1.2865 -0.2339  0.2542
  196DOPC   C3724314   2.004   7.419  14.261 -0.0944  0.6554 -0.1715
  196DOPC   H7X24315   2.107   7.431  14.220 -0.6839  0.9231 -1.6254
  196DOPC   H7Y24316   1.953   7.517  14.252  2.3509  2.0277  0.0127
  196DOPC   C3824317   2.008   7.376  14.409 -1.0108 -0.6945 -0.3137
  196DOPC   H8X24318   2.058   7.278  14.423  1.1909  0.4390  0.3824
  196DOPC   H8Y24319   1.900   7.368  14.434 -0.9055 -2.2218 -0.2476
  196DOPC   C3924320   2.092   7.462  14.500 -0.3229 -0.8248 -0.6227
  196DOPC   H9X24321   2.056   7.566  14.507  3.0140  0.3229  1.6466
  196DOPC  C31024322   2.182   7.422  14.586 -0.3092  0.6694 -0.9708
  196DOPC  H10X24323   2.219   7.500  14.654  1.1220  0.4035 -1.4159
  196DOPC  C31124324   2.234   7.284  14.612 -0.1631  0.0555 -0.0135
  196DOPC  H11X24325   2.306   7.244  14.537  1.2447 -1.5886  2.0881
  196DOPC  H11Y24326   2.142   7.221  14.611 -0.2780  0.1372 -2.8719
  196DOPC  C31224327   2.303   7.261  14.749  0.1119 -0.3480  0.7992
  196DOPC  H12X24328   2.407   7.300  14.746  0.2275 -0.7333 -0.7504
  196DOPC  H12Y24329   2.320   7.152  14.762  1.0584 -0.7214 -2.6424
  196DOPC  C31324330   2.243   7.323  14.875  0.3333  0.0080  0.3425
  196DOPC  H13X24331   2.245   7.434  14.866  0.3184  0.1857  2.1028
  196DOPC  H13Y24332   2.134   7.302  14.882  0.3497  0.0355  0.7114
  196DOPC  C31424333   2.315   7.293  15.008 -0.5286  0.4668  0.9600
  196DOPC  H14X24334   2.341   7.186  14.996 -1.8335  0.4884 -4.9691
  196DOPC  H14Y24335   2.411   7.349  15.016 -0.2421  0.1369  0.0150
  196DOPC  C31524336   2.236   7.331  15.136 -0.3698  0.6500  0.2732
  196DOPC  H15X24337   2.182   7.426  15.116 -1.8541 -0.6332 -2.3968
  196DOPC  H15Y24338   2.305   7.334  15.223 -1.0489  0.2657  0.8465
  196DOPC  C31624339   2.123   7.235  15.184 -0.5018  0.1147  0.7517
  196DOPC  H16X24340   2.052   7.226  15.098 -0.4858  0.0687  0.7431
  196DOPC  H16Y24341   2.163   7.133  15.204 -1.8822 -0.6166  0.0083
  196DOPC  C31724342   2.049   7.280  15.312 -0.2322 -0.5941  0.5605
  196DOPC  H17X24343   2.017   7.382  15.281  0.7369 -0.1775  0.9001
  196DOPC  H17Y24344   1.958   7.219  15.330  0.3739 -1.3644  1.0764
  196DOPC  C31824345   2.135   7.294  15.442  0.3842 -0.8670  0.3969
  196DOPC  H18X24346   2.066   7.314  15.526 -0.0709 -1.8470  0.2662
  196DOPC  H18Y24347   2.173   7.196  15.478  1.2324 -1.1167 -1.0874
  196DOPC  H18Z24348   2.216   7.370  15.443  1.3986 -1.8351  3.6421
  197DOPC     N24349   1.989   5.342  12.972  0.2086 -0.6230  0.2198
  197DOPC   C1224350   2.034   5.301  13.108 -0.0716 -0.3704  0.2272
  197DOPC  H12A24351   1.963   5.335  13.183  0.6496 -0.4252  0.9536
  197DOPC  H12B24352   2.122   5.358  13.136  0.3691  1.7610 -4.5070
  197DOPC   C1324353   2.100   5.336  12.875 -0.2508 -0.0992  0.0959
  197DOPC  H13A24354   2.092   5.376  12.775  3.4250 -0.2725 -0.4284
  197DOPC  H13B24355   2.174   5.400  12.922  0.2763 -1.1928  0.7987
  197DOPC  H13C24356   2.149   5.240  12.874  0.1359  0.0938 -0.4729
  197DOPC   C1424357   1.945   5.489  12.973 -0.0024  0.1547 -0.2445
  197DOPC  H14A24358   2.027   5.559  12.983 -0.6585  1.0715 -1.1364
  197DOPC  H14B24359   1.873   5.517  12.898 -2.2744 -1.4115  1.2408
  197DOPC  H14C24360   1.885   5.509  13.060  0.9387  1.3649  0.1479
  197DOPC   C1524361   1.872   5.264  12.938 -0.1877  0.3027  0.6104
  197DOPC  H15A24362   1.784   5.299  12.991  1.1662  1.9288  1.8591
  197DOPC  H15B24363   1.887   5.157  12.938  2.8331  0.6564  1.1495
  197DOPC  H15C24364   1.852   5.287  12.835  0.5455  0.0783  0.4128
  197DOPC   C1124365   2.056   5.149  13.131  0.4287 -0.0787  0.7922
  197DOPC  H11A24366   2.057   5.131  13.240  1.2049  0.3594  0.8667
  197DOPC  H11B24367   1.978   5.082  13.089  1.3380 -1.5035  1.2912
  197DOPC     P24368   2.319   5.135  13.130 -0.5207 -0.4756  0.0470
  197DOPC   O1324369   2.320   5.285  13.136 -0.5670 -0.2264 -0.2699
  197DOPC   O1424370   2.428   5.090  13.042  0.7829  0.2874  0.2880
  197DOPC   O1224371   2.176   5.097  13.067  0.4792  0.0679 -0.1529
  197DOPC   O1124372   2.316   5.069  13.275 -0.7280  0.0927 -0.5386
  197DOPC    C124373   2.288   4.929  13.289 -0.1236 -0.1614 -1.0283
  197DOPC    HA24374   2.377   4.886  13.339  0.5248  0.2438 -1.8162
  197DOPC    HB24375   2.261   4.877  13.195 -0.4499 -0.7367 -0.6260
  197DOPC    C224376   2.171   4.909  13.398 -0.8540 -0.1791  0.4916
  197DOPC    HS24377   2.089   4.974  13.360  0.5069  0.5692 -1.3037
  197DOPC   O2124378   2.211   4.938  13.533 -0.2098  0.2639  0.0978
  197DOPC   C2124379   2.105   4.945  13.617 -0.0258 -0.1422  0.0741
  197DOPC   O2224380   1.989   4.950  13.580 -0.1409  0.1479  0.0901
  197DOPC   C2224381   2.163   4.960  13.755 -0.4770  0.9488  0.7030
  197DOPC   H2R24382   2.155   5.067  13.787 -0.4027  0.0100  4.3220
  197DOPC   H2S24383   2.272   4.941  13.756 -0.5477  0.5187  0.5060
  197DOPC    C324384   2.131   4.759  13.389 -0.3142  0.0719  0.1221
  197DOPC    HX24385   2.105   4.747  13.282  1.8294 -0.9782 -0.3512
  197DOPC    HY24386   2.038   4.738  13.446  0.4395  0.9634  1.7595
  197DOPC   O3124387   2.246   4.669  13.412 -0.2051 -0.4493 -0.6264
  197DOPC   C3124388   2.243   4.598  13.526  0.7313  0.7854  0.1417
  197DOPC   O3224389   2.151   4.594  13.607  0.2113 -0.5659 -0.3329
  197DOPC   C3224390   2.373   4.511  13.537 -0.3846  0.0471  0.0708
  197DOPC   H2X24391   2.416   4.496  13.436  1.5786  1.2182  0.6917
  197DOPC   H2Y24392   2.444   4.574  13.594  0.5784 -0.0338 -0.9986
  197DOPC   C2324393   2.101   4.880  13.876 -0.6945 -0.6279  0.0961
  197DOPC   H3R24394   2.139   4.776  13.881  0.6542 -0.2245 -1.1753
  197DOPC   H3S24395   1.990   4.870  13.871 -0.8663  0.8875  0.1091
  197DOPC   C2424396   2.144   4.939  14.015  0.3460 -0.5135  0.5424
  197DOPC   H4R24397   2.125   5.049  14.007  1.6938 -0.3289 -0.5204
  197DOPC   H4S24398   2.249   4.924  14.046  1.1221 -1.9106 -2.3890
  197DOPC   C2524399   2.042   4.869  14.117 -0.1701 -0.0212 -0.1090
  197DOPC   H5R24400   2.066   4.761  14.128 -0.3339  0.0318  0.8538
  197DOPC   H5S24401   1.933   4.872  14.098  0.1224 -1.3314 -2.4390
  197DOPC   C2624402   2.088   4.913  14.264 -0.0260 -0.3878  0.8015
  197DOPC   H6R24403   2.104   5.022  14.249 -0.6062 -0.3345  0.5401
  197DOPC   H6S24404   2.187   4.868  14.288  0.2121  0.5963  1.7616
  197DOPC   C2724405   1.980   4.890  14.369 -0.1634 -0.5171  0.0487
  197DOPC   H7R24406   1.897   4.828  14.329  0.5089 -1.2846 -0.1821
  197DOPC   H7S24407   1.947   4.989  14.407  1.9558  0.5436 -0.7358
  197DOPC   C2824408   2.042   4.825  14.490  1.0277 -0.3688 -0.2902
  197DOPC   H8R24409   1.989   4.841  14.586  0.0659 -4.5817  0.1078
  197DOPC   H8S24410   2.146   4.865  14.498  0.3096  1.3545  0.8924
  197DOPC   C2924411   2.049   4.679  14.477 -0.1979  0.5475  0.1857
  197DOPC   H9R24412   2.106   4.647  14.389  0.0579  1.6267 -0.0517
  197DOPC  C21024413   2.008   4.580  14.558 -0.6344  0.0607 -0.3608
  197DOPC  H10R24414   2.007   4.478  14.516 -0.3128  0.3189 -1.0187
  197DOPC  C21124415   1.933   4.600  14.690  0.2672 -0.4678 -0.4239
  197DOPC  H11R24416   1.986   4.685  14.738 -0.3878  0.3118 -1.0320
  197DOPC  H11S24417   1.942   4.511  14.755 -0.4881 -1.5157 -1.6988
  197DOPC  C21224418   1.790   4.653  14.682 -0.1517 -0.1030  0.0311
  197DOPC  H12R24419   1.771   4.740  14.616 -0.0713  1.5120  2.0459
  197DOPC  H12S24420   1.749   4.691  14.778  1.9501  0.3304  0.7952
  197DOPC  C21324421   1.693   4.538  14.636 -0.8500 -0.2040  0.3816
  197DOPC  H13R24422   1.721   4.445  14.689  1.3137 -1.0144 -1.9946
  197DOPC  H13S24423   1.700   4.515  14.528 -1.2311 -0.9626  0.5127
  197DOPC  C21424424   1.548   4.568  14.665 -0.3502 -0.5086 -0.7329
  197DOPC  H14R24425   1.518   4.641  14.587  0.1247 -1.2851 -1.6640
  197DOPC  H14S24426   1.548   4.614  14.766  2.5187 -3.3142  0.7263
  197DOPC  C21524427   1.457   4.452  14.655  0.0703 -0.3340  0.6370
  197DOPC  H15R24428   1.507   4.355  14.673 -0.8442 -0.8854  0.2771
  197DOPC  H15S24429   1.424   4.437  14.550  0.7425  0.0483  0.3646
  197DOPC  C21624430   1.334   4.482  14.744  0.0987 -0.0528 -0.4562
  197DOPC  H16R24431   1.292   4.582  14.722 -0.1170  0.1595  0.8440
  197DOPC  H16S24432   1.350   4.485  14.854 -1.0292 -2.0640 -0.1901
  197DOPC  C21724433   1.224   4.367  14.726 -0.7463  0.1833 -0.3566
  197DOPC  H17R24434   1.134   4.395  14.786  1.5731  2.2271  2.4522
  197DOPC  H17S24435   1.262   4.276  14.776  0.6896  0.7018 -0.4768
  197DOPC  C21824436   1.179   4.342  14.585  0.3795 -0.5822  0.4036
  197DOPC  H18R24437   1.203   4.434  14.529  1.0081 -1.2002 -0.3716
  197DOPC  H18S24438   1.069   4.328  14.583  0.1025  1.4185 -0.0011
  197DOPC  H18T24439   1.228   4.250  14.545  0.1711 -0.7998  0.6427
  197DOPC   C3324440   2.338   4.382  13.610 -0.4465  0.6947 -0.2695
  197DOPC   H3X24441   2.408   4.311  13.560 -0.7760  0.8473 -0.9525
  197DOPC   H3Y24442   2.234   4.348  13.594 -0.0100 -0.0487 -1.7135
  197DOPC   C3424443   2.354   4.375  13.766  0.6026 -0.4609  0.6981
  197DOPC   H4X24444   2.288   4.451  13.813 -0.7489 -0.4114 -1.2129
  197DOPC   H4Y24445   2.460   4.403  13.785  1.8267 -2.1878 -2.8594
  197DOPC   C3524446   2.316   4.238  13.815 -0.1682  0.3014  0.0190
  197DOPC   H5X24447   2.406   4.173  13.816  0.1238  0.6961  0.6870
  197DOPC   H5Y24448   2.253   4.197  13.733 -0.6895  0.0953  0.5144
  197DOPC   C3624449   2.242   4.248  13.947 -0.6422 -0.3108  0.0755
  197DOPC   H6X24450   2.147   4.304  13.932 -0.3799 -0.2996 -1.7764
  197DOPC   H6Y24451   2.202   4.150  13.979 -1.3675 -1.6068 -4.1893
  197DOPC   C3724452   2.321   4.313  14.068  0.2073 -0.9086 -0.4579
  197DOPC   H7X24453   2.390   4.230  14.090  0.1233 -1.0367 -0.6753
  197DOPC   H7Y24454   2.382   4.396  14.025  2.2903 -2.3169 -0.3479
  197DOPC   C3824455   2.231   4.366  14.178  0.5420 -0.5401 -0.1152
  197DOPC   H8X24456   2.126   4.328  14.182 -0.4980  2.2092  0.6488
  197DOPC   H8Y24457   2.207   4.473  14.160  1.5612 -0.4426 -0.9874
  197DOPC   C3924458   2.297   4.360  14.309 -0.3896  0.4980  0.0798
  197DOPC   H9X24459   2.380   4.432  14.321 -1.2883  1.4438  0.7292
  197DOPC  C31024460   2.269   4.276  14.413 -0.4749 -0.4607  0.9134
  197DOPC  H10X24461   2.347   4.275  14.491  1.1493  1.4204 -0.5882
  197DOPC  C31124462   2.172   4.163  14.430 -0.4245  1.0835 -0.6315
  197DOPC  H11X24463   2.227   4.067  14.419 -1.8420 -0.2583  2.5380
  197DOPC  H11Y24464   2.095   4.148  14.351 -0.6579 -2.5986  0.1101
  197DOPC  C31224465   2.096   4.152  14.559 -0.4047 -0.4180  0.6699
  197DOPC  H12X24466   2.043   4.055  14.566  0.9632 -1.2862 -0.3913
  197DOPC  H12Y24467   2.015   4.228  14.569  0.0038  0.1860 -0.4021
  197DOPC  C31324468   2.178   4.168  14.682 -0.2922  0.2929 -1.4369
  197DOPC  H13X24469   2.266   4.101  14.679 -0.1572  0.2382  1.3339
  197DOPC  H13Y24470   2.204   4.276  14.688  0.4427  0.4366 -4.9240
  197DOPC  C31424471   2.102   4.126  14.808  0.4940  0.0417  0.0748
  197DOPC  H14X24472   2.017   4.198  14.806  1.4509  1.2137  0.8667
  197DOPC  H14Y24473   2.064   4.022  14.797  2.1359 -0.6634  0.8406
  197DOPC  C31524474   2.186   4.152  14.935  0.2278 -0.0684 -0.0437
  197DOPC  H15X24475   2.223   4.256  14.929 -2.2008  0.7642 -2.3767
  197DOPC  H15Y24476   2.271   4.080  14.938 -0.2233 -0.6107 -0.1758
  197DOPC  C31624477   2.107   4.149  15.060 -0.8464  0.2375 -0.2359
  197DOPC  H16X24478   2.031   4.230  15.056 -0.6170  0.6132  1.8349
  197DOPC  H16Y24479   2.060   4.052  15.085 -0.7351  0.3931  0.6406
  197DOPC  C31724480   2.194   4.172  15.191  0.3721 -0.5031  0.3350
  197DOPC  H17X24481   2.268   4.091  15.180 -0.8337 -1.4480 -1.3015
  197DOPC  H17Y24482   2.246   4.268  15.170  0.8864 -0.5680  1.2450
  197DOPC  C31824483   2.131   4.174  15.323  0.5081 -0.0905 -0.3659
  197DOPC  H18X24484   2.210   4.163  15.400  0.6736  0.8755 -0.3929
  197DOPC  H18Y24485   2.083   4.271  15.347  2.7019  1.4811 -2.0516
  197DOPC  H18Z24486   2.063   4.087  15.334  2.2295 -1.5233 -0.5771
  198DOPC     N24487   5.843   5.490  13.079  0.1352  0.6671  0.4250
  198DOPC   C1224488   5.702   5.507  13.141 -0.1654  0.3570 -0.4152
  198DOPC  H12A24489   5.665   5.417  13.188 -0.4750  0.3797 -0.6112
  198DOPC  H12B24490   5.633   5.535  13.063 -1.0238 -0.5063  0.0043
  198DOPC   C1324491   5.866   5.595  12.979 -0.2859 -0.0241  0.3712
  198DOPC  H13A24492   5.839   5.693  13.016 -1.1653  0.3687 -1.2373
  198DOPC  H13B24493   5.968   5.601  12.945 -0.4029 -1.6608 -0.3421
  198DOPC  H13C24494   5.810   5.578  12.888  1.8284  0.7049 -1.1485
  198DOPC   C1424495   5.850   5.356  13.000  0.6970 -0.1347 -0.1815
  198DOPC  H14A24496   5.767   5.352  12.932  1.9106 -1.6797 -1.6527
  198DOPC  H14B24497   5.945   5.340  12.950  0.7329 -2.8509  0.5856
  198DOPC  H14C24498   5.834   5.273  13.068  4.7135 -0.0904  1.0738
  198DOPC   C1524499   5.941   5.489  13.192 -0.5707  0.3016 -0.2140
  198DOPC  H15A24500   5.937   5.572  13.260  1.5884 -1.1827  1.8800
  198DOPC  H15B24501   6.042   5.486  13.153  0.1169  0.8603  1.4425
  198DOPC  H15C24502   5.923   5.400  13.250  0.1324 -0.4400 -1.0962
  198DOPC   C1124503   5.684   5.620  13.251 -0.2125 -0.0124  0.1128
  198DOPC  H11A24504   5.577   5.627  13.281 -0.2958  0.8037 -0.3343
  198DOPC  H11B24505   5.738   5.588  13.342 -0.9463  1.4118  1.0937
  198DOPC     P24506   5.819   5.840  13.305 -0.2631  0.2928 -0.6991
  198DOPC   O1324507   5.811   5.975  13.243 -0.0157  0.3293  0.0219
  198DOPC   O1424508   5.948   5.776  13.324 -0.4874 -0.6255 -0.1193
  198DOPC   O1224509   5.735   5.750  13.217 -0.1988 -0.1213  0.0150
  198DOPC   O1124510   5.741   5.839  13.443 -0.3514  0.1352  0.4371
  198DOPC    C124511   5.768   5.736  13.541 -0.9313  0.2336 -0.3355
  198DOPC    HA24512   5.862   5.678  13.528  1.0394  3.1756 -0.1959
  198DOPC    HB24513   5.682   5.667  13.553  1.1326 -2.3734  0.5861
  198DOPC    C224514   5.792   5.803  13.685 -0.7478 -0.5983  0.2129
  198DOPC    HS24515   5.806   5.743  13.778 -2.4489 -0.3982  0.6177
  198DOPC   O2124516   5.695   5.900  13.697 -0.3097 -0.3291 -0.5613
  198DOPC   C2124517   5.581   5.849  13.744 -0.6164  0.4114  0.3049
  198DOPC   O2224518   5.568   5.732  13.778  0.7978 -0.0630 -0.1564
  198DOPC   C2224519   5.466   5.947  13.725 -0.3205  0.3094 -0.1503
  198DOPC   H2R24520   5.411   5.934  13.629  0.4651 -0.4510 -0.5134
  198DOPC   H2S24521   5.517   6.046  13.726  1.2991 -0.4913  1.0290
  198DOPC    C324522   5.932   5.872  13.675  0.0568  0.3069 -0.4384
  198DOPC    HX24523   5.940   5.940  13.588 -0.9567  0.5370 -0.3666
  198DOPC    HY24524   6.006   5.790  13.657  0.2087  0.9620 -3.1508
  198DOPC   O3124525   5.965   5.943  13.798 -0.2429  0.1555  0.0618
  198DOPC   C3124526   5.952   6.075  13.800 -0.2449  0.5117 -0.2308
  198DOPC   O3224527   5.881   6.137  13.722 -0.1585 -0.3839  0.3157
  198DOPC   C3224528   6.032   6.131  13.915  1.0491 -0.0750 -0.0407
  198DOPC   H2X24529   6.112   6.062  13.949  1.0491  0.1591  0.4373
  198DOPC   H2Y24530   6.078   6.225  13.875  1.1395 -0.0405  0.1403
  198DOPC   C2324531   5.347   5.941  13.832  0.2361  0.2328  0.0103
  198DOPC   H3R24532   5.289   5.847  13.831  0.6174 -0.0176  0.6736
  198DOPC   H3S24533   5.280   6.028  13.812  0.0368 -0.1709 -1.1370
  198DOPC   C2424534   5.408   5.939  13.970 -0.8264  0.4236 -0.3760
  198DOPC   H4R24535   5.485   6.019  13.965  1.8956 -2.0159 -1.1255
  198DOPC   H4S24536   5.463   5.843  13.983  0.1347  0.8058 -1.4144
  198DOPC   C2524537   5.308   5.964  14.076 -0.5039  0.3844  1.1234
  198DOPC   H5R24538   5.234   5.882  14.065 -0.2965  0.3740 -0.4979
  198DOPC   H5S24539   5.249   6.055  14.052 -0.5461 -0.5512 -3.3559
  198DOPC   C2624540   5.366   5.957  14.220 -0.4370 -0.5409 -0.0023
  198DOPC   H6R24541   5.444   6.036  14.226 -2.7245  1.9552 -0.8633
  198DOPC   H6S24542   5.415   5.859  14.235 -0.5198 -0.8865 -1.8010
  198DOPC   C2724543   5.257   5.986  14.322  0.1934  1.2175  0.0608
  198DOPC   H7R24544   5.190   5.898  14.336 -0.3269  1.3915 -1.1894
  198DOPC   H7S24545   5.195   6.073  14.290  0.1766  0.5856 -1.7506
  198DOPC   C2824546   5.314   6.026  14.454  0.1076  0.3431 -0.3548
  198DOPC   H8R24547   5.361   6.126  14.437 -2.4448  1.7262  0.2190
  198DOPC   H8S24548   5.402   5.964  14.481  0.6093  1.5359  0.8800
  198DOPC   C2924549   5.219   6.043  14.569  0.9701  0.0399 -0.0641
  198DOPC   H9R24550   5.115   6.053  14.534  0.3446  0.1336  1.7394
  198DOPC  C21024551   5.236   6.021  14.702  0.2660  0.3449 -0.0979
  198DOPC  H10R24552   5.147   6.027  14.766 -0.9482  0.3617 -1.7084
  198DOPC  C21124553   5.373   6.011  14.773  0.1430  0.0322  0.0959
  198DOPC  H11R24554   5.442   6.069  14.708 -1.6503 -0.4925 -2.4299
  198DOPC  H11S24555   5.417   5.911  14.792  0.7689  0.6584  2.2571
  198DOPC  C21224556   5.355   6.070  14.910  0.0923  0.0453 -0.1265
  198DOPC  H12R24557   5.281   6.013  14.970 -2.2318  1.6720 -1.3434
  198DOPC  H12S24558   5.306   6.170  14.910  1.1046  0.5728  1.2603
  198DOPC  C21324559   5.483   6.084  14.992 -0.7269 -0.1519  0.1136
  198DOPC  H13R24560   5.460   6.141  15.085  2.9068  0.6546  0.6728
  198DOPC  H13S24561   5.559   6.150  14.945  0.7951 -0.1334  2.4148
  198DOPC  C21424562   5.546   5.949  15.037  0.3934 -0.3926 -0.6975
  198DOPC  H14R24563   5.588   5.901  14.945 -0.2932 -1.4415 -0.4788
  198DOPC  H14S24564   5.457   5.899  15.080 -0.7921  1.7842 -0.4705
  198DOPC  C21524565   5.662   5.973  15.137 -0.2776  0.1649  0.6330
  198DOPC  H15R24566   5.690   5.869  15.164  0.3715 -0.0794 -0.8890
  198DOPC  H15S24567   5.620   6.027  15.225 -1.2832  0.8275 -0.2407
  198DOPC  C21624568   5.779   6.044  15.062  0.0289  0.1654 -0.4544
  198DOPC  H16R24569   5.751   6.150  15.043 -0.3072 -0.1590 -1.8900
  198DOPC  H16S24570   5.795   5.989  14.967 -1.0914  0.9596 -1.1181
  198DOPC  C21724571   5.904   6.056  15.161  0.2151  0.7651 -0.2120
  198DOPC  H17R24572   5.988   6.109  15.112  1.3802  1.7562  2.6411
  198DOPC  H17S24573   5.921   5.948  15.180 -0.1878  0.6716 -0.3765
  198DOPC  C21824574   5.870   6.123  15.303 -0.7543  0.1382 -0.0829
  198DOPC  H18R24575   5.829   6.226  15.288  1.1693  0.6777 -2.1604
  198DOPC  H18S24576   5.959   6.117  15.369 -0.0166 -1.0481 -1.1529
  198DOPC  H18T24577   5.789   6.068  15.355  0.7159 -0.7334  1.3424
  198DOPC   C3324578   5.935   6.176  14.025  0.0583 -0.6085 -0.0816
  198DOPC   H3X24579   5.861   6.251  13.989 -2.1035 -1.7208  1.7125
  198DOPC   H3Y24580   5.988   6.224  14.110  1.0738 -1.4477 -0.2241
  198DOPC   C3424581   5.847   6.063  14.084  0.1687 -0.5867 -0.2500
  198DOPC   H4X24582   5.918   5.985  14.118 -0.6444 -0.6648  1.3379
  198DOPC   H4Y24583   5.783   6.036  13.998 -1.4225 -0.0877  0.7373
  198DOPC   C3524584   5.741   6.107  14.186  0.6721  0.0740 -0.4355
  198DOPC   H5X24585   5.689   6.010  14.198  0.6404 -0.1003 -1.7595
  198DOPC   H5Y24586   5.663   6.174  14.143 -0.4086 -0.5750  0.4505
  198DOPC   C3624587   5.811   6.159  14.313 -0.8277  0.3112  0.2531
  198DOPC   H6X24588   5.880   6.074  14.334 -0.0530 -0.0482 -3.1555
  198DOPC   H6Y24589   5.861   6.256  14.295  0.3116 -0.5176 -1.2411
  198DOPC   C3724590   5.721   6.162  14.439 -0.7584  0.4433 -0.7473
  198DOPC   H7X24591   5.647   6.244  14.433 -0.0553  1.6463  3.5512
  198DOPC   H7Y24592   5.662   6.068  14.443  1.1164 -0.7623  0.7563
  198DOPC   C3824593   5.803   6.176  14.571 -0.0494  0.2746  0.3622
  198DOPC   H8X24594   5.856   6.079  14.568 -0.2133  0.2062 -2.0407
  198DOPC   H8Y24595   5.737   6.162  14.660 -0.3794  0.1769  0.1033
  198DOPC   C3924596   5.899   6.293  14.585  0.0428 -0.5944 -0.2094
  198DOPC   H9X24597   5.957   6.302  14.492  2.2176 -1.4503  0.9921
  198DOPC  C31024598   5.914   6.396  14.670 -0.1533  0.2148  0.3841
  198DOPC  H10X24599   5.992   6.473  14.657  0.1289 -0.0568  0.4429
  198DOPC  C31124600   5.834   6.413  14.797  0.1342  0.6286 -0.1293
  198DOPC  H11X24601   5.756   6.337  14.816  1.8700 -1.1584  0.1322
  198DOPC  H11Y24602   5.779   6.510  14.796  1.2226  1.2791  0.6931
  198DOPC  C31224603   5.919   6.397  14.921 -0.5823  0.7930  0.2138
  198DOPC  H12X24604   5.970   6.298  14.931 -0.1218  1.0261  0.2127
  198DOPC  H12Y24605   5.860   6.390  15.015 -1.5839 -1.4488 -0.5159
  198DOPC  C31324606   6.020   6.508  14.939 -0.6912 -0.2894 -0.9252
  198DOPC  H13X24607   6.085   6.520  14.849  1.4642  0.6320  0.6644
  198DOPC  H13Y24608   5.969   6.603  14.965 -3.3675 -1.4346 -1.6324
  198DOPC  C31424609   6.117   6.480  15.049 -0.1670  0.2891 -0.1058
  198DOPC  H14X24610   6.062   6.474  15.146  0.3985 -2.3977  0.1097
  198DOPC  H14Y24611   6.173   6.386  15.032 -0.6754 -0.1191  0.4159
  198DOPC  C31524612   6.231   6.584  15.064 -0.2354 -0.0467  0.3451
  198DOPC  H15X24613   6.192   6.687  15.078 -0.6183 -0.2222  0.5799
  198DOPC  H15Y24614   6.304   6.576  14.981  0.2718  1.3742  0.6402
  198DOPC  C31624615   6.320   6.562  15.183  0.2759 -0.3922 -0.5715
  198DOPC  H16X24616   6.352   6.455  15.183 -1.8828 -1.0919  0.1174
  198DOPC  H16Y24617   6.409   6.628  15.185 -0.3196  0.4098  0.9988
  198DOPC  C31724618   6.245   6.601  15.313  0.1396  0.0496 -0.0774
  198DOPC  H17X24619   6.187   6.695  15.311  0.8525  0.4914 -1.5391
  198DOPC  H17Y24620   6.165   6.525  15.322 -1.7424  1.9418 -0.1973
  198DOPC  C31824621   6.327   6.596  15.444 -0.3261  0.0941  0.0643
  198DOPC  H18X24622   6.376   6.496  15.442 -0.6218 -0.0472 -1.0950
  198DOPC  H18Y24623   6.402   6.676  15.462 -3.6619  3.1420  1.5676
  198DOPC  H18Z24624   6.259   6.599  15.532 -0.8260 -1.6072 -0.2263
  199DOPC     N24625   7.494   6.120  12.833 -0.4765  0.1974  1.0297
  199DOPC   C1224626   7.402   6.091  12.951  0.0234 -0.5676  0.4002
  199DOPC  H12A24627   7.339   6.003  12.944 -1.3766  0.1322  2.8366
  199DOPC  H12B24628   7.337   6.177  12.959  1.4355  0.5147  0.6580
  199DOPC   C1324629   7.559   5.992  12.785 -0.9718 -0.2852 -0.4724
  199DOPC  H13A24630   7.632   5.957  12.857 -0.4662 -1.3012 -1.4378
  199DOPC  H13B24631   7.488   5.911  12.778 -0.2564 -0.9875  0.2160
  199DOPC  H13C24632   7.605   6.014  12.689 -0.0689  2.8407  0.5456
  199DOPC   C1424633   7.593   6.226  12.859 -0.3492 -0.2268  0.2363
  199DOPC  H14A24634   7.549   6.317  12.898 -2.3912 -0.9713 -0.2269
  199DOPC  H14B24635   7.660   6.186  12.933  4.3233  2.8846 -1.8376
  199DOPC  H14C24636   7.657   6.234  12.773  0.8322 -1.7508  0.9207
  199DOPC   C1524637   7.407   6.168  12.718 -0.3608  0.7798 -0.1441
  199DOPC  H15A24638   7.466   6.202  12.634 -1.3893  1.3037 -0.6710
  199DOPC  H15B24639   7.341   6.243  12.758  1.3523  2.2832  0.0232
  199DOPC  H15C24640   7.341   6.091  12.681  1.2560  0.2795 -2.1876
  199DOPC   C1124641   7.465   6.056  13.091  0.5946  0.5114 -0.3775
  199DOPC  H11A24642   7.503   6.150  13.138  1.7621 -0.2693  0.2841
  199DOPC  H11B24643   7.378   6.027  13.154 -0.5442  2.9439 -0.6714
  199DOPC     P24644   7.702   5.980  13.154 -0.3789  0.1670 -0.1290
  199DOPC   O1324645   7.785   6.074  13.067 -0.3937 -0.1184  0.2638
  199DOPC   O1424646   7.757   5.844  13.185 -0.1054 -0.3506  0.0630
  199DOPC   O1224647   7.558   5.954  13.092 -0.3092  0.1822 -0.1719
  199DOPC   O1124648   7.672   6.056  13.286  0.0889  0.4688  0.3894
  199DOPC    C124649   7.625   5.981  13.397  0.3743  0.4843 -1.5846
  199DOPC    HA24650   7.690   6.002  13.485  0.9151 -0.0232 -1.8520
  199DOPC    HB24651   7.628   5.870  13.389 -0.8545  0.0552  2.1602
  199DOPC    C224652   7.479   6.022  13.430  0.2170 -0.2598 -0.0841
  199DOPC    HS24653   7.401   5.991  13.356 -1.5668  0.0335  1.5943
  199DOPC   O2124654   7.488   6.162  13.449  0.2574 -0.3360  0.2514
  199DOPC   C2124655   7.370   6.219  13.443  0.8151  0.7240 -0.7501
  199DOPC   O2224656   7.264   6.161  13.420  0.3865  0.0022  0.4097
  199DOPC   C2224657   7.381   6.366  13.469 -0.0026 -0.2054 -0.1646
  199DOPC   H2R24658   7.448   6.410  13.392  1.6674  0.7185  1.7238
  199DOPC   H2S24659   7.448   6.382  13.555  0.0027 -0.0642 -0.1950
  199DOPC    C324660   7.439   5.951  13.558  0.1371  0.3917  0.2090
  199DOPC    HX24661   7.470   5.845  13.541 -1.3393 -0.1522  0.6823
  199DOPC    HY24662   7.332   5.935  13.584 -0.3169  1.9296 -0.5740
  199DOPC   O3124663   7.511   6.001  13.669 -0.2624  0.4658  0.3844
  199DOPC   C3124664   7.447   6.087  13.743  0.6616 -0.0603 -0.2436
  199DOPC   O3224665   7.327   6.111  13.736  0.2037  0.1446 -0.3782
  199DOPC   C3224666   7.545   6.142  13.843  0.3707 -0.2986 -0.9056
  199DOPC   H2X24667   7.623   6.197  13.785 -2.0365  1.4267 -2.7188
  199DOPC   H2Y24668   7.494   6.217  13.907  1.2992 -0.3260 -0.1146
  199DOPC   C2324669   7.248   6.451  13.482 -0.3282  0.9346 -0.5650
  199DOPC   H3R24670   7.189   6.441  13.388  0.5202 -0.8612 -0.9588
  199DOPC   H3S24671   7.280   6.556  13.499 -2.3527  1.5894 -0.4962
  199DOPC   C2424672   7.192   6.415  13.617 -0.2406  0.0932 -0.0764
  199DOPC   H4R24673   7.265   6.436  13.698 -2.0562 -0.2314  1.7024
  199DOPC   H4S24674   7.173   6.306  13.628 -0.9011  0.2158  0.0228
  199DOPC   C2524675   7.060   6.493  13.656 -0.6767  0.0511  0.0044
  199DOPC   H5R24676   7.019   6.438  13.743  2.3461 -1.2621  0.7453
  199DOPC   H5S24677   6.994   6.495  13.566  0.1451  0.2303 -0.6155
  199DOPC   C2624678   7.088   6.638  13.702 -0.0871 -0.3618 -0.0320
  199DOPC   H6R24679   7.141   6.701  13.627  2.2407 -0.2733  1.5851
  199DOPC   H6S24680   7.166   6.626  13.780  1.6635  0.9162 -1.5083
  199DOPC   C2724681   6.974   6.701  13.771 -0.4393 -0.4138  0.0122
  199DOPC   H7R24682   6.909   6.627  13.822 -2.2652  0.3091 -1.1575
  199DOPC   H7S24683   6.917   6.755  13.692  1.7896  1.7455 -0.2637
  199DOPC   C2824684   7.026   6.801  13.877 -0.1315 -1.2200  0.0776
  199DOPC   H8R24685   7.086   6.881  13.828 -1.5864 -0.6765 -0.8969
  199DOPC   H8S24686   7.090   6.748  13.950 -1.2299 -0.8322  1.3591
  199DOPC   C2924687   6.906   6.862  13.958  0.7282 -0.4689 -0.1080
  199DOPC   H9R24688   6.849   6.938  13.902  1.0244  0.9302  1.4165
  199DOPC  C21024689   6.874   6.838  14.086  0.2314 -0.4187 -0.2528
  199DOPC  H10R24690   6.787   6.889  14.131  1.2543  2.1858 -1.0503
  199DOPC  C21124691   6.947   6.746  14.173 -0.3509  0.6092 -0.2640
  199DOPC  H11R24692   7.050   6.785  14.188  0.1879 -0.8796  0.0336
  199DOPC  H11S24693   6.963   6.642  14.139  5.0332  0.4057  1.9385
  199DOPC  C21224694   6.890   6.740  14.321  0.2014 -0.0518 -0.0636
  199DOPC  H12R24695   6.782   6.712  14.320 -0.0908  0.7889  1.9356
  199DOPC  H12S24696   6.899   6.832  14.384  0.6185 -1.3238  1.8431
  199DOPC  C21324697   6.958   6.628  14.409 -0.1005 -0.2685 -0.0743
  199DOPC  H13R24698   7.068   6.643  14.397  0.1281 -1.7530 -0.0993
  199DOPC  H13S24699   6.935   6.524  14.377 -2.0654 -0.6880  2.3903
  199DOPC  C21424700   6.921   6.650  14.553 -0.3113 -0.2501  0.7362
  199DOPC  H14R24701   6.816   6.617  14.558 -0.0888 -1.2566 -0.6720
  199DOPC  H14S24702   6.938   6.752  14.595  2.4851 -0.9415  1.5249
  199DOPC  C21524703   7.001   6.547  14.635  0.0694  0.6225 -0.8065
  199DOPC  H15R24704   7.105   6.586  14.638 -0.5851  2.3830  1.7261
  199DOPC  H15S24705   6.986   6.451  14.581  0.0398 -1.0704  2.0092
  199DOPC  C21624706   6.952   6.531  14.773 -0.3224  0.8842 -0.5907
  199DOPC  H16R24707   6.862   6.466  14.773  1.5384 -1.8563 -0.4459
  199DOPC  H16S24708   6.914   6.630  14.808  0.4912  1.5080 -1.4169
  199DOPC  C21724709   7.060   6.487  14.874 -0.3631  0.3059  0.4362
  199DOPC  H17R24710   7.145   6.558  14.867  0.1448 -0.4375 -1.6044
  199DOPC  H17S24711   7.106   6.391  14.842 -2.1325 -0.1593 -0.8067
  199DOPC  C21824712   7.014   6.484  15.019 -0.0193 -0.2644  0.2046
  199DOPC  H18R24713   6.997   6.585  15.062  1.0196 -1.0259  2.5253
  199DOPC  H18S24714   7.088   6.422  15.073 -0.5315 -0.0352  1.1964
  199DOPC  H18T24715   6.917   6.429  15.022  0.0951 -0.5465 -0.7444
  199DOPC   C3324716   7.603   6.040  13.938  0.3348  0.4236  0.3186
  199DOPC   H3X24717   7.676   6.104  13.992  0.8232 -1.0856  1.5059
  199DOPC   H3Y24718   7.653   5.963  13.875 -0.5652  0.0208  0.0714
  199DOPC   C3424719   7.493   5.983  14.031 -0.0219  0.2021  0.2353
  199DOPC   H4X24720   7.418   5.928  13.971  0.5206 -1.1999  0.7796
  199DOPC   H4Y24721   7.447   6.063  14.092 -1.3558  0.4578 -1.0525
  199DOPC   C3524722   7.552   5.871  14.120 -0.2156 -0.2332 -0.1039
  199DOPC   H5X24723   7.629   5.923  14.180  0.0510 -2.1930  1.3581
  199DOPC   H5Y24724   7.595   5.792  14.054 -0.2068  1.3633 -2.1347
  199DOPC   C3624725   7.458   5.825  14.232 -0.4923 -0.2360  0.3010
  199DOPC   H6X24726   7.525   5.791  14.314 -0.8831 -1.4035  0.1544
  199DOPC   H6Y24727   7.404   5.915  14.270  0.8597  1.1687 -0.9840
  199DOPC   C3724728   7.365   5.711  14.187  0.2151 -0.8612 -0.9149
  199DOPC   H7X24729   7.302   5.746  14.102  0.5507  5.0589  0.8619
  199DOPC   H7Y24730   7.438   5.633  14.156  0.9639 -0.7562  0.5011
  199DOPC   C3824731   7.270   5.650  14.297  0.2228  0.4949 -0.5344
  199DOPC   H8X24732   7.334   5.634  14.386 -0.9343  1.5634  0.5261
  199DOPC   H8Y24733   7.230   5.549  14.270 -1.5586  0.1588  2.7641
  199DOPC   C3924734   7.159   5.741  14.332  0.0009 -0.4140  0.7545
  199DOPC   H9X24735   7.135   5.794  14.238  2.7058 -1.5736 -0.7140
  199DOPC  C31024736   7.107   5.771  14.454 -0.3820  0.5601 -0.0012
  199DOPC  H10X24737   7.028   5.848  14.450 -0.7727  0.1494 -0.3543
  199DOPC  C31124738   7.143   5.703  14.583  0.7090 -0.0554  0.1275
  199DOPC  H11X24739   7.157   5.786  14.657  0.1341  1.1273 -1.0456
  199DOPC  H11Y24740   7.233   5.639  14.572  1.2425  0.7437 -0.2528
  199DOPC  C31224741   7.027   5.625  14.644  0.0502 -0.0654  0.7723
  199DOPC  H12X24742   7.010   5.528  14.592 -3.9234  0.4444  0.8367
  199DOPC  H12Y24743   6.931   5.679  14.629  0.0955 -0.7758 -3.0189
  199DOPC  C31324744   7.053   5.603  14.797  0.3694 -0.1851 -0.1672
  199DOPC  H13X24745   7.150   5.552  14.813  0.3291 -0.9270 -2.0056
  199DOPC  H13Y24746   7.061   5.705  14.840 -2.0800 -0.4350  1.1319
  199DOPC  C31424747   6.946   5.526  14.874  0.3371 -0.1453 -0.4239
  199DOPC  H14X24748   6.971   5.524  14.982  1.1857 -2.9494 -0.5985
  199DOPC  H14Y24749   6.848   5.577  14.866  0.7504  0.9209  0.9010
  199DOPC  C31524750   6.937   5.378  14.834 -0.3421 -0.1064  0.3475
  199DOPC  H15X24751   7.033   5.325  14.848  0.7394  1.6143 -0.3108
  199DOPC  H15Y24752   6.916   5.388  14.726 -1.0542  2.7371  0.6909
  199DOPC  C31624753   6.825   5.308  14.914  0.2843 -0.9439  0.3499
  199DOPC  H16X24754   6.726   5.358  14.909  0.1432 -1.0908  1.3468
  199DOPC  H16Y24755   6.811   5.208  14.868 -2.8609  0.5629 -2.3896
  199DOPC  C31724756   6.861   5.275  15.058 -0.8874 -0.5698 -0.4598
  199DOPC  H17X24757   6.953   5.214  15.043  0.3862  1.3464 -0.7993
  199DOPC  H17Y24758   6.877   5.372  15.108 -0.1211 -0.6017 -0.6232
  199DOPC  C31824759   6.748   5.203  15.132  0.2582  0.0342 -0.8115
  199DOPC  H18X24760   6.775   5.185  15.238 -1.5373  0.2402 -0.2882
  199DOPC  H18Y24761   6.663   5.274  15.135  1.2286  1.2190  0.4595
  199DOPC  H18Z24762   6.725   5.105  15.086 -0.1837 -1.1716  1.8150
  200DOPC     N24763   1.524   6.073  12.703  0.4479 -1.1551  0.0589
  200DOPC   C1224764   1.646   6.164  12.722 -0.3101 -0.1727 -0.4882
  200DOPC  H12A24765   1.611   6.266  12.721  1.9402  0.6677  0.1644
  200DOPC  H12B24766   1.720   6.149  12.644  0.8220  0.6121  0.3887
  200DOPC   C1324767   1.559   5.926  12.722 -0.3119 -0.2110  0.1497
  200DOPC  H13A24768   1.472   5.865  12.704 -0.5829  0.0197  0.6430
  200DOPC  H13B24769   1.643   5.900  12.660 -0.4606 -1.0168  0.2832
  200DOPC  H13C24770   1.602   5.902  12.818 -1.0603 -2.7251 -0.0974
  200DOPC   C1424771   1.479   6.085  12.565 -0.3313 -0.3578  0.4092
  200DOPC  H14A24772   1.570   6.071  12.508 -0.5900 -2.2794  0.3933
  200DOPC  H14B24773   1.408   6.010  12.532  0.0589 -0.0025 -1.3364
  200DOPC  H14C24774   1.445   6.186  12.553 -1.1622 -0.2890  2.7052
  200DOPC   C1524775   1.412   6.118  12.790 -0.1468 -0.5372  0.6326
  200DOPC  H15A24776   1.379   6.217  12.761 -0.2076 -0.4315  1.0478
  200DOPC  H15B24777   1.452   6.129  12.890 -0.8818  0.9264  0.8019
  200DOPC  H15C24778   1.332   6.046  12.781  1.3324 -2.0132 -1.4275
  200DOPC   C1124779   1.715   6.150  12.849 -0.0794  0.4651 -0.4583
  200DOPC  H11A24780   1.642   6.165  12.931  0.7742 -0.3060  0.4741
  200DOPC  H11B24781   1.759   6.048  12.856  0.4536  0.4485 -3.1401
  200DOPC     P24782   1.954   6.224  12.909 -0.2427  0.3777 -0.0457
  200DOPC   O1324783   2.037   6.343  12.895 -0.0700  0.8715  0.0007
  200DOPC   O1424784   2.002   6.102  12.842  0.1883  0.0886 -0.3296
  200DOPC   O1224785   1.811   6.254  12.850 -0.3944  0.4256  0.1991
  200DOPC   O1124786   1.920   6.207  13.064  0.2024  0.1297 -0.1770
  200DOPC    C124787   1.850   6.309  13.143  0.0998  0.3632 -0.0794
  200DOPC    HA24788   1.757   6.338  13.090  0.9680  0.5274 -1.5525
  200DOPC    HB24789   1.924   6.390  13.158  1.0922 -0.7102  1.0311
  200DOPC    C224790   1.789   6.251  13.274 -0.0147  0.5267  0.1720
  200DOPC    HS24791   1.685   6.290  13.274 -0.3047 -0.1575 -1.6467
  200DOPC   O2124792   1.872   6.296  13.384 -0.8304 -0.4216  0.0452
  200DOPC   C2124793   1.843   6.415  13.433  0.2407  0.2027 -0.1741
  200DOPC   O2224794   1.745   6.481  13.411 -0.6449  0.3008 -0.6758
  200DOPC   C2224795   1.943   6.459  13.544  0.3045  0.8676 -0.2584
  200DOPC   H2R24796   2.015   6.520  13.486  0.3263  0.3638 -0.7626
  200DOPC   H2S24797   1.998   6.368  13.575 -3.1848 -1.3897 -0.1030
  200DOPC    C324798   1.783   6.098  13.264 -0.1970  0.2494 -0.1129
  200DOPC    HX24799   1.882   6.053  13.241 -0.6648  0.3550 -2.6063
  200DOPC    HY24800   1.721   6.067  13.177  1.3183 -3.4844 -0.0156
  200DOPC   O3124801   1.734   6.046  13.394  0.2315  0.2178  0.2019
  200DOPC   C3124802   1.826   6.021  13.485  0.5441 -0.2475 -1.0035
  200DOPC   O3224803   1.945   6.049  13.479 -0.3014  0.1248 -0.1079
  200DOPC   C3224804   1.750   5.989  13.616  0.4874 -0.9907  0.6668
  200DOPC   H2X24805   1.760   6.074  13.687  1.6042  1.1728 -1.9145
  200DOPC   H2Y24806   1.643   5.976  13.590  0.0728  1.0836  1.1213
  200DOPC   C2324807   1.873   6.525  13.666 -0.1152 -0.2756 -0.6944
  200DOPC   H3R24808   1.797   6.597  13.629 -0.2506 -0.1570 -0.1998
  200DOPC   H3S24809   1.949   6.585  13.720 -1.7413  1.7842 -0.5795
  200DOPC   C2424810   1.804   6.429  13.764 -0.3514  0.6107 -0.0391
  200DOPC   H4R24811   1.878   6.377  13.829  0.0847  0.5668 -0.5658
  200DOPC   H4S24812   1.748   6.354  13.704 -1.3104  1.3653 -0.1082
  200DOPC   C2524813   1.712   6.499  13.860  0.2568  0.2420 -0.4129
  200DOPC   H5R24814   1.652   6.431  13.924  0.8359  0.1396  0.0298
  200DOPC   H5S24815   1.646   6.543  13.781  1.4260  1.9063 -0.5261
  200DOPC   C2624816   1.776   6.605  13.945 -0.2917 -1.0867 -0.5654
  200DOPC   H6R24817   1.858   6.658  13.892 -1.0009  1.3644  0.6453
  200DOPC   H6S24818   1.808   6.577  14.048 -3.1186  2.8198  1.6060
  200DOPC   C2724819   1.674   6.728  13.976  0.0405  0.3227 -0.5300
  200DOPC   H7R24820   1.576   6.690  14.013 -0.1216  1.1474 -0.0964
  200DOPC   H7S24821   1.654   6.770  13.875  0.2278 -1.7661 -1.5024
  200DOPC   C2824822   1.732   6.825  14.079  0.0644 -0.3382  0.2754
  200DOPC   H8R24823   1.841   6.831  14.059  0.2492  0.3924  1.3737
  200DOPC   H8S24824   1.737   6.783  14.182 -1.7753 -1.2847  0.0098
  200DOPC   C2924825   1.676   6.969  14.071  0.2643  0.8260 -0.1719
  200DOPC   H9R24826   1.701   7.028  13.982  0.5291  1.9514  0.6374
  200DOPC  C21024827   1.597   7.032  14.168  0.8609 -1.1555 -0.0297
  200DOPC  H10R24828   1.547   7.122  14.132  1.2274 -1.2856 -0.8821
  200DOPC  C21124829   1.555   6.969  14.297  0.4751  0.5907  0.0467
  200DOPC  H11R24830   1.544   6.859  14.285 -1.1156  0.7335  0.0214
  200DOPC  H11S24831   1.450   7.002  14.308  0.5173  1.0845 -0.9665
  200DOPC  C21224832   1.627   6.995  14.424 -0.0934 -0.1503 -0.3065
  200DOPC  H12R24833   1.736   6.980  14.414 -0.0230 -0.3665  0.6961
  200DOPC  H12S24834   1.586   6.935  14.508 -0.7877  1.7504  0.7843
  200DOPC  C21324835   1.613   7.140  14.470 -0.1569  0.0892  0.4900
  200DOPC  H13R24836   1.510   7.160  14.507 -0.7466 -1.2366 -0.3723
  200DOPC  H13S24837   1.635   7.212  14.388 -1.0271  1.8083  1.7125
  200DOPC  C21424838   1.705   7.170  14.591 -0.0584 -0.1426  0.4665
  200DOPC  H14R24839   1.811   7.149  14.568  0.3044  0.1672  1.7865
  200DOPC  H14S24840   1.686   7.092  14.668  0.6972 -0.3615  0.4364
  200DOPC  C21524841   1.705   7.310  14.651 -0.0574 -0.0291  0.6861
  200DOPC  H15R24842   1.597   7.331  14.663 -0.1135 -0.9917  2.0703
  200DOPC  H15S24843   1.741   7.368  14.563  0.9853  0.3484  1.3441
  200DOPC  C21624844   1.791   7.342  14.773 -0.5055  0.2771  0.4531
  200DOPC  H16R24845   1.885   7.286  14.752 -0.9770 -0.0091 -0.9789
  200DOPC  H16S24846   1.756   7.307  14.873  1.4520  2.9185  2.2226
  200DOPC  C21724847   1.821   7.490  14.777 -0.8637 -0.2252 -0.0236
  200DOPC  H17R24848   1.731   7.553  14.793 -0.4710  0.5492 -0.7762
  200DOPC  H17S24849   1.870   7.530  14.686  1.2542 -0.6859  0.8459
  200DOPC  C21824850   1.922   7.518  14.893 -0.0039  0.1266  0.1896
  200DOPC  H18R24851   2.020   7.483  14.855 -1.3098 -3.2384 -0.4667
  200DOPC  H18S24852   1.899   7.452  14.980 -1.0287 -0.8973 -0.8217
  200DOPC  H18T24853   1.919   7.624  14.928 -1.4148  0.7083 -1.4980
  200DOPC   C3324854   1.810   5.867  13.674  0.5067 -0.1088  0.5321
  200DOPC   H3X24855   1.918   5.885  13.691  0.5832  0.4874 -0.4836
  200DOPC   H3Y24856   1.795   5.779  13.607  0.9932  1.1733 -1.3319
  200DOPC   C3424857   1.761   5.831  13.817 -0.2654  0.0677  0.2545
  200DOPC   H4X24858   1.805   5.731  13.836 -0.8517 -0.4928 -1.2058
  200DOPC   H4Y24859   1.651   5.824  13.820 -0.3629  1.0495 -0.2557
  200DOPC   C3524860   1.810   5.930  13.929 -0.0012  0.1360 -0.1331
  200DOPC   H5X24861   1.786   6.030  13.888 -0.3419  0.0544 -0.1382
  200DOPC   H5Y24862   1.920   5.923  13.934  0.0392  1.3203  1.0826
  200DOPC   C3624863   1.732   5.908  14.056  0.5045  0.7475 -0.2199
  200DOPC   H6X24864   1.623   5.912  14.034  0.4746 -1.7497 -0.9049
  200DOPC   H6Y24865   1.752   5.804  14.092 -0.6712  0.7995  0.6521
  200DOPC   C3724866   1.769   6.010  14.170  0.4706 -0.2593  0.3107
  200DOPC   H7X24867   1.876   6.006  14.198  0.2440  0.9327  1.4432
  200DOPC   H7Y24868   1.737   6.110  14.135 -0.1302 -0.0144  1.4913
  200DOPC   C3824869   1.688   5.986  14.296  0.0147 -0.5845  0.0830
  200DOPC   H8X24870   1.581   6.003  14.272 -0.2742  1.9943  2.5526
  200DOPC   H8Y24871   1.710   6.064  14.373 -0.4902  0.0816 -0.4277
  200DOPC   C3924872   1.714   5.852  14.355 -0.4741  0.0031  0.0809
  200DOPC   H9X24873   1.810   5.811  14.320 -0.6161 -0.5751  0.3518
  200DOPC  C31024874   1.666   5.817  14.475  0.0780  0.2646  0.1687
  200DOPC  H10X24875   1.700   5.730  14.534 -0.1419  0.4213  0.5364
  200DOPC  C31124876   1.552   5.886  14.540  0.0285  0.2160  0.2043
  200DOPC  H11X24877   1.482   5.820  14.597  0.7996 -0.2184  0.6639
  200DOPC  H11Y24878   1.479   5.932  14.470 -0.9675  0.7569  1.5616
  200DOPC  C31224879   1.584   6.016  14.618 -0.2044 -0.7085 -0.1298
  200DOPC  H12X24880   1.634   6.095  14.558 -1.9920  0.1637 -0.5414
  200DOPC  H12Y24881   1.654   5.988  14.700 -0.9351 -0.2145  0.6899
  200DOPC  C31324882   1.461   6.078  14.682  0.1128 -0.5295 -0.4580
  200DOPC  H13X24883   1.405   5.999  14.737 -1.1113 -0.6048 -1.7721
  200DOPC  H13Y24884   1.495   6.151  14.758 -0.8634  1.0545 -1.4975
  200DOPC  C31424885   1.379   6.165  14.585 -0.6053  0.1518  0.3233
  200DOPC  H14X24886   1.447   6.241  14.542 -0.2113 -0.3808 -0.0002
  200DOPC  H14Y24887   1.342   6.101  14.502  2.1513 -2.5716  1.0182
  200DOPC  C31524888   1.259   6.228  14.647  0.4896  0.1739 -0.5570
  200DOPC  H15X24889   1.286   6.303  14.725 -1.2674  1.5164 -1.1552
  200DOPC  H15Y24890   1.201   6.146  14.694  1.7256 -0.0942  0.5804
  200DOPC  C31624891   1.173   6.290  14.534  0.1285  0.3398  0.1108
  200DOPC  H16X24892   1.215   6.382  14.487  0.3299 -0.2102 -0.8174
  200DOPC  H16Y24893   1.169   6.214  14.453  3.3212 -0.3319  0.4368
  200DOPC  C31724894   1.024   6.313  14.565 -0.6124 -0.0447  0.0276
  200DOPC  H17X24895   0.967   6.319  14.470  1.3565 -1.4641 -1.3338
  200DOPC  H17Y24896   0.976   6.231  14.624  0.4068 -0.3063  0.5191
  200DOPC  C31824897   1.001   6.440  14.642  0.2798  0.0592  0.1381
  200DOPC  H18X24898   0.894   6.470  14.649  0.7490  1.8453  0.2051
  200DOPC  H18Y24899   1.044   6.436  14.744 -0.3510 -0.3829  0.3977
  200DOPC  H18Z24900   1.062   6.524  14.602  1.3683 -1.0365 -0.5823
  201SOD    SOD24901   0.031   6.373  18.603 -0.1376 -0.4540  0.2823
  202SOD    SOD24902   4.158   0.540  13.288  0.0262 -0.1261  0.1866
  203SOD    SOD24903   4.832   0.525  18.018 -0.2936 -0.1681 -0.3011
  204SOD    SOD24904   6.992   5.083  11.501  0.0270 -0.2158 -0.0860
  205SOD    SOD24905   6.378   4.402  17.629  0.5260  0.0002  0.0161
  206SOD    SOD24906   0.955   3.998  11.742 -0.1395 -0.2858  0.3389
  207SOD    SOD24907   2.771   4.030  10.796  0.4595  0.1625  0.0959
  208SOD    SOD24908   7.207   5.553  17.629  0.0115 -0.1934  0.3849
  209SOD    SOD24909   4.212   6.588  12.089 -0.6730  0.1113 -0.2713
  210SOD    SOD24910   6.465   4.076  18.034 -0.0295 -0.1857 -0.1305
  211SOD    SOD24911   0.597   4.307  18.891 -0.2944  0.3978  0.0802
  212SOD    SOD24912   2.805   0.045  18.831 -0.4222 -0.4930 -0.3134
  213SOD    SOD24913   3.756   4.860  12.742  0.3460 -0.2667 -0.1541
  214SOD    SOD24914   2.188   3.744  17.440  0.1882 -0.3483  0.4101
  215SOD    SOD24915   1.479   1.412  17.463 -0.2501 -0.1811 -0.3090
  216SOD    SOD24916   7.646   4.182  18.064  0.0495  0.1529  0.1923
  217SOD    SOD24917   7.250   1.063  11.573 -0.3470  0.1095 -0.3743
  218SOD    SOD24918   1.828   5.495  18.431 -0.0997  0.5426 -0.1032
  219SOD    SOD24919   4.443   3.767  17.567  0.0142  0.2231  0.5105
  220SOD    SOD24920   6.401   5.226  11.435 -0.1584 -0.0850 -0.3184
  221SOD    SOD24921   6.889   2.213  12.987 -0.1530  0.0531 -0.3499
  222SOD    SOD24922   0.243   3.048  18.119  0.1892  0.0976 -0.3981
  223SOD    SOD24923   0.277   1.248  11.876  0.2372  0.3025  0.1524
  224SOD    SOD24924   1.137   1.023  11.456 -0.3666 -0.0775  0.6123
  225SOD    SOD24925   1.666   6.588  12.475  0.4308  0.0328 -0.1621
  226SOD    SOD24926   7.525   7.256  18.488  0.2186 -0.4121  0.1586
  227CLA    CLA24927   1.716   5.059  12.445  0.2413 -0.1029 -0.2308
  228CLA    CLA24928   0.984   7.498  11.927  0.0493 -0.6193 -0.3492
  229CLA    CLA24929   7.523   4.754  12.068 -0.2507  0.2159 -0.5022
  230CLA    CLA24930   7.493   4.380  18.089  0.1872 -0.0604 -0.3976
  231CLA    CLA24931   4.122   4.562  18.941  0.1687 -0.0072  0.1454
  232CLA    CLA24932   4.745   5.600  18.843 -0.2720  0.2317 -0.0587
  233CLA    CLA24933   0.354   3.324  17.455 -0.0505  0.3695  0.8131
  234CLA    CLA24934   3.264   1.620  18.075 -0.4181 -0.1645 -0.0798
  235CLA    CLA24935   0.941   1.426  11.832 -0.0723 -0.2796  0.1790
  236CLA    CLA24936   3.928   1.635  17.721  0.2013 -0.3331 -0.1301
  237CLA    CLA24937   7.550   3.942  18.184  0.6127  0.3227 -0.2932
  238CLA    CLA24938   0.696   5.939  10.994  0.1736  0.1945  0.1046
  239CLA    CLA24939   4.950   1.160  12.433  0.0143 -0.5075  0.4025
  240CLA    CLA24940   0.372   6.470  18.903 -0.1780 -0.1068 -0.0771
  241CLA    CLA24941   4.233   0.260  11.710 -0.0586  0.2988 -0.0725
  242CLA    CLA24942   4.406   0.043  17.658 -0.3164 -0.5314 -0.1125
  243CLA    CLA24943   2.611   5.192  11.018 -0.0016  0.0881  0.5827
  244CLA    CLA24944   6.832   1.472  12.239 -0.1839  0.6743  0.1699
  245CLA    CLA24945   2.216   0.943  12.397 -0.0652  0.0625 -0.0489
  246CLA    CLA24946   0.550   1.630  18.141  0.3817 -0.0410  0.1515
  247CLA    CLA24947   0.380   7.251  12.282 -0.4455  0.1318 -0.0536
  248CLA    CLA24948   3.373   5.466  11.892  0.0538  0.2816 -0.5451
  249CLA    CLA24949   0.044   3.563  12.026 -0.0521 -0.4594 -0.1992
  250CLA    CLA24950   7.202   0.876  17.694  0.2779  0.0158 -0.4227
  251CLA    CLA24951   5.220   0.771  17.965 -0.6098 -0.2618  0.2334
  252CLA    CLA24952   1.842   7.640  11.818 -0.0803  0.0223  0.2786
  253TIP3   OH224953   5.236   6.063  17.756 -0.2684  0.3394  0.8708
  253TIP3    H124954   5.197   6.146  17.784  1.7036  1.1284  1.4504
  253TIP3    H224955   5.328   6.070  17.783  0.6492 -0.8261 -1.6584
  254TIP3   OH224956   4.106   4.690  18.660 -0.1765 -0.0255 -0.6883
  254TIP3    H124957   4.161   4.767  18.675  0.1906 -0.2403 -0.9232
  254TIP3    H224958   4.107   4.644  18.744  0.7820 -0.5213 -0.9533
  255TIP3   OH224959   7.050   2.823  17.225 -0.3869  0.8275  0.4159
  255TIP3    H124960   7.014   2.895  17.173 -1.0791  1.0295  1.1593
  255TIP3    H224961   7.096   2.866  17.297  0.3514  0.5457  0.1185
  256TIP3   OH224962   5.754   5.887  19.214  0.0234 -0.0663 -0.0016
  256TIP3    H124963   5.663   5.860  19.226 -0.3142  0.1773 -1.6912
  256TIP3    H224964   5.806   5.820  19.258 -0.9647 -0.0000  1.3240
  257TIP3   OH224965   7.188   3.494  17.108  0.4849 -0.1540 -0.1624
  257TIP3    H124966   7.242   3.418  17.086  0.7597  0.4078 -1.5374
  257TIP3    H224967   7.098   3.461  17.108  0.6106 -0.5016 -0.6618
  258TIP3   OH224968   6.632   0.414  19.021 -0.1425  0.1289  0.2303
  258TIP3    H124969   6.553   0.401  19.074 -0.5169 -0.4849 -0.4467
  258TIP3    H224970   6.702   0.425  19.084 -0.7571  0.5749  0.8491
  259TIP3   OH224971   1.791   4.796  18.353 -0.8616  0.0870  0.3515
  259TIP3    H124972   1.854   4.761  18.416 -1.5415 -0.0828  0.9465
  259TIP3    H224973   1.781   4.726  18.289  1.1876  0.9204 -0.9958
  260TIP3   OH224974   5.126   6.303  17.824 -0.7425  0.1096 -0.2056
  260TIP3    H124975   5.105   6.372  17.761  2.2746  0.9891 -0.4098
  260TIP3    H224976   5.090   6.335  17.907 -3.5365 -0.4075 -1.1425
  261TIP3   OH224977   0.271   2.539  17.812  0.1045  0.1184 -0.0911
  261TIP3    H124978   0.229   2.564  17.895  0.0774  1.4301 -0.4721
  261TIP3    H224979   0.206   2.485  17.768 -0.9296  1.4906 -0.3347
  262TIP3   OH224980   4.243   3.520  17.207 -0.2879 -0.7813  0.3938
  262TIP3    H124981   4.296   3.500  17.130  3.0031  1.2635  1.9016
  262TIP3    H224982   4.172   3.455  17.205  1.1919 -2.5319 -2.8148
  263TIP3   OH224983   5.930   0.333  18.326  0.0763 -0.4485 -0.2496
  263TIP3    H124984   5.896   0.422  18.324  0.9197 -0.0820  0.9071
  263TIP3    H224985   5.857   0.279  18.296 -0.2767  0.6537 -1.5118
  264TIP3   OH224986   0.390   0.025  19.328  0.4457  0.0846  0.2201
  264TIP3    H124987   0.296   0.013  19.317  0.6642 -0.5010 -1.1886
  264TIP3    H224988   0.429  -0.057  19.297  1.3640 -0.2715  2.1825
  265TIP3   OH224989   0.305   4.940  17.358 -0.2608 -0.0872 -0.1097
  265TIP3    H124990   0.274   4.857  17.322 -0.2072 -0.7565  1.3310
  265TIP3    H224991   0.323   4.921  17.450  0.6557  1.2904  0.0193
  266TIP3   OH224992   5.772   3.286  17.515 -0.1112 -0.6453  0.2957
  266TIP3    H124993   5.683   3.254  17.527 -0.2340 -0.1699  0.6901
  266TIP3    H224994   5.769   3.336  17.433 -0.0310 -1.2297 -0.0686
  267TIP3   OH224995   6.852   0.851  19.359 -0.0206 -0.3951  0.0534
  267TIP3    H124996   6.807   0.913  19.303 -0.2432  1.0935  1.7982
  267TIP3    H224997   6.783   0.792  19.390 -0.5620  0.9507  1.5149
  268TIP3   OH224998   2.077   6.810  19.501 -0.0756  0.1247 -0.6702
  268TIP3    H124999   2.014   6.852  19.559 -0.3754 -1.4634  0.2301
  268TIP3    H225000   2.155   6.865  19.507  0.1660 -0.3459  1.8936
  269TIP3   OH225001   5.334   4.654  17.246 -0.0126 -0.4003  0.3090
  269TIP3    H125002   5.374   4.733  17.282 -1.6965  1.5810 -1.8087
  269TIP3    H225003   5.245   4.655  17.279 -0.2927 -0.9163 -0.3972
  270TIP3   OH225004   4.091   3.997  18.338  0.1883 -0.5396  0.5284
  270TIP3    H125005   4.145   4.007  18.416  0.2234 -0.1464  0.4562
  270TIP3    H225006   4.145   4.030  18.266 -0.3314  0.3545  0.5258
  271TIP3   OH225007   6.839   1.360  19.602  0.3762 -0.2681 -0.2978
  271TIP3    H125008   6.890   1.440  19.593  1.5666 -0.9021  0.5563
  271TIP3    H225009   6.834   1.325  19.513 -0.5002  0.9284 -0.7497
  272TIP3   OH225010   3.734   0.435  17.778  0.1647 -0.1602  0.0062
  272TIP3    H125011   3.751   0.521  17.740 -2.0431  0.7247  0.8548
  272TIP3    H225012   3.805   0.421  17.840  0.4700  1.1196 -0.0409
  273TIP3   OH225013   2.079   0.442  18.761 -0.5775  0.4521  0.5208
  273TIP3    H125014   2.008   0.497  18.794 -0.8301 -0.0047  0.7423
  273TIP3    H225015   2.108   0.390  18.836  2.2261  2.9088  1.3319
  274TIP3   OH225016   0.034   4.513  17.143 -0.1489  0.5749  0.6844
  274TIP3    H125017   0.071   4.502  17.055 -1.6484 -1.1906  0.2156
  274TIP3    H225018   0.006   4.426  17.169 -2.8539  1.5550  1.4652
  275TIP3   OH225019   4.175   6.316  17.694  0.4546 -0.0617 -0.2921
  275TIP3    H125020   4.156   6.403  17.730 -0.1363 -0.8859  1.5352
  275TIP3    H225021   4.231   6.332  17.619  0.1823  1.9085 -0.1170
  276TIP3   OH225022   1.911   2.728  18.681  0.0463 -0.4802 -0.3208
  276TIP3    H125023   1.930   2.727  18.587  1.6980  1.2492 -0.0814
  276TIP3    H225024   1.979   2.672  18.719  1.2436  1.1328  0.0397
  277TIP3   OH225025   0.037   1.156  18.944  0.3220  0.3396  0.8977
  277TIP3    H125026   0.120   1.203  18.947  0.1428  0.9308 -1.5136
  277TIP3    H225027  -0.010   1.194  18.870 -2.7366  1.0063  2.9668
  278TIP3   OH225028   2.001   7.651  16.950 -0.3791  0.0291 -0.0927
  278TIP3    H125029   1.984   7.581  17.013  0.4973  0.1212  0.2628
  278TIP3    H225030   1.915   7.681  16.923 -0.7595 -0.4552  0.5735
  279TIP3   OH225031   1.276   0.679  18.583 -0.1866 -0.0880  0.0685
  279TIP3    H125032   1.351   0.629  18.552  0.2238  0.8719 -0.5409
  279TIP3    H225033   1.250   0.636  18.665 -1.4923 -2.8802 -1.6484
  280TIP3   OH225034   0.708   7.159  18.594  0.1325  0.4186 -0.1040
  280TIP3    H125035   0.635   7.196  18.545 -0.4548  0.0057  0.4322
  280TIP3    H225036   0.752   7.100  18.532  0.8223  1.6566 -0.8270
  281TIP3   OH225037   5.077   5.583  18.992  0.1538  0.3775 -0.5402
  281TIP3    H125038   5.136   5.659  19.002  0.2962  0.3756 -1.3095
  281TIP3    H225039   5.057   5.581  18.898 -0.3223 -0.1914 -0.4273
  282TIP3   OH225040   4.524   6.297  18.718  0.0385 -0.2926 -0.2452
  282TIP3    H125041   4.532   6.202  18.713  0.1258 -0.3092  0.2330
  282TIP3    H225042   4.456   6.318  18.654  2.1836 -0.3539 -2.7156
  283TIP3   OH225043   6.760   2.326  17.574 -0.4045  0.4138  0.5183
  283TIP3    H125044   6.781   2.275  17.653  0.2482  1.1168  0.8155
  283TIP3    H225045   6.763   2.262  17.503  2.9775  0.4227  0.4987
  284TIP3   OH225046   6.301   5.557  11.600  0.6770 -0.2939  0.2828
  284TIP3    H125047   6.343   5.471  11.595 -0.7467 -1.0721  1.2283
  284TIP3    H225048   6.264   5.561  11.688  0.6415  1.2713  0.2253
  285TIP3   OH225049   3.270   6.690  11.480  0.1529  0.5215 -0.2261
  285TIP3    H125050   3.193   6.634  11.478  1.7753 -1.8557 -0.4863
  285TIP3    H225051   3.309   6.681  11.393  0.9027  1.4446 -0.0094
  286TIP3   OH225052   7.080   2.325  13.041  0.5557  0.2655 -0.5360
  286TIP3    H125053   7.129   2.394  12.995  2.0701 -0.7886 -0.5622
  286TIP3    H225054   7.141   2.291  13.106 -1.1303  0.8557  1.4773
  287TIP3   OH225055   5.957   6.131  12.242  0.1195 -0.2143  0.1259
  287TIP3    H125056   5.978   6.060  12.182  0.5348 -0.2633  0.3262
  287TIP3    H225057   5.997   6.208  12.203 -1.7991  0.2717 -1.0049
  288TIP3   OH225058   7.541   4.320  12.360  1.1546  0.7176  0.1587
  288TIP3    H125059   7.523   4.330  12.454 -0.8405  0.7436 -0.1925
  288TIP3    H225060   7.570   4.407  12.332  2.0919  0.6244  0.7932
  289TIP3   OH225061   6.633   6.013  11.338 -0.3155  0.3864 -0.6360
  289TIP3    H125062   6.541   6.041  11.337 -0.8220 -1.1053  0.5485
  289TIP3    H225063   6.659   6.020  11.430 -0.1166 -1.7684 -0.4779
  290TIP3   OH225064   0.922   5.490  11.199 -0.0178 -0.0245  0.4741
  290TIP3    H125065   0.986   5.517  11.133 -0.8926  0.1750 -0.3269
  290TIP3    H225066   0.838   5.516  11.162 -0.8432 -2.7981  0.1273
  291TIP3   OH225067   1.675   4.297  11.740 -0.0889 -0.2239 -0.0553
  291TIP3    H125068   1.702   4.266  11.826 -0.0780  0.9466  0.3915
  291TIP3    H225069   1.612   4.367  11.758 -0.0998  0.0324 -0.9950
  292TIP3   OH225070   7.660   6.616  12.039 -0.2047 -0.1572  0.4000
  292TIP3    H125071   7.733   6.554  12.047 -0.1524 -0.3050 -1.0954
  292TIP3    H225072   7.698   6.701  12.062  0.6622 -0.1016 -1.1799
  293TIP3   OH225073   2.857   1.039  12.367 -0.0602  0.1201 -0.1132
  293TIP3    H125074   2.784   1.042  12.306 -0.3263 -2.1914 -0.0087
  293TIP3    H225075   2.842   0.959  12.418  1.6630  0.4812  1.0496
  294TIP3   OH225076   5.901   3.061  10.855  0.3774 -0.2389 -0.1353
  294TIP3    H125077   5.986   3.050  10.812  1.2879  2.5823  0.7314
  294TIP3    H225078   5.907   3.009  10.935  0.6089 -1.3931 -0.8797
  295TIP3   OH225079   6.501   7.354  11.893  0.0685 -0.4616 -0.3057
  295TIP3    H125080   6.563   7.427  11.887 -3.3630  2.6291 -1.8757
  295TIP3    H225081   6.513   7.307  11.811 -0.2114  0.6873 -1.0357
  296TIP3   OH225082   5.539   2.346  12.171 -0.4752 -0.0272 -0.3572
  296TIP3    H125083   5.606   2.414  12.178  1.2882 -1.6140 -1.0435
  296TIP3    H225084   5.458   2.394  12.153  0.1391  2.0682  1.9282
  297TIP3   OH225085   0.374   1.292  10.975  0.1018  0.6824  0.5381
  297TIP3    H125086   0.296   1.342  11.000 -1.3106 -0.4698 -1.2328
  297TIP3    H225087   0.385   1.309  10.881  1.2127 -0.1820  0.4870
  298TIP3   OH225088   0.809   7.290  11.324  0.2226  0.5087 -0.0454
  298TIP3    H125089   0.807   7.385  11.310 -0.5561  0.5351  0.1738
  298TIP3    H225090   0.883   7.260  11.272 -0.5252  1.0328 -1.4851
  299TIP3   OH225091   6.583   2.863  11.886  0.3242 -0.0778 -0.6106
  299TIP3    H125092   6.551   2.900  11.803 -2.3760  0.6071  0.6332
  299TIP3    H225093   6.633   2.934  11.926 -0.1232  0.3178 -0.7400
  300TIP3   OH225094   3.374   4.476  12.653 -0.2530 -0.3792  0.1252
  300TIP3    H125095   3.300   4.435  12.608 -0.9804  0.3037  0.6892
  300TIP3    H225096   3.351   4.473  12.746 -1.3850  3.2282  0.1102
  301TIP3   OH225097   4.120   0.163  12.937 -0.0991  0.1812 -0.5509
  301TIP3    H125098   4.050   0.227  12.920  0.1911  0.5130 -0.4994
  301TIP3    H225099   4.073   0.082  12.955 -0.5343  0.7332  0.9292
  302TIP3   OH225100   4.402   5.523  11.680  0.5924 -0.4071  0.0153
  302TIP3    H125101   4.419   5.433  11.653  0.2151 -0.9287  1.4586
  302TIP3    H225102   4.483   5.550  11.724  0.2441 -0.4892  0.7149
  303TIP3   OH225103   7.364   7.591  10.857 -0.4656  0.2847  0.2218
  303TIP3    H125104   7.429   7.536  10.812 -1.7246  0.3122 -1.7156
  303TIP3    H225105   7.417   7.659  10.900  0.7897  1.4826 -2.8854
  304TIP3   OH225106   2.124   5.919  10.674  0.1667 -0.1582  0.3225
  304TIP3    H125107   2.034   5.948  10.655 -0.3307 -1.6597  0.2239
  304TIP3    H225108   2.120   5.886  10.764  0.2742 -1.4161 -0.1095
  305TIP3   OH225109   0.784   2.130  12.726 -0.0185 -0.9304 -0.1314
  305TIP3    H125110   0.844   2.066  12.765  0.1907 -0.6299  0.0390
  305TIP3    H225111   0.702   2.082  12.716 -0.0008 -1.0878  0.4457
  306TIP3   OH225112   6.791   1.339  12.565 -0.2187  0.1603 -0.1434
  306TIP3    H125113   6.721   1.388  12.523  0.7813 -0.1456 -2.3520
  306TIP3    H225114   6.789   1.253  12.522  0.7568 -0.2353  0.5582
  307TIP3   OH225115   7.517   0.077  10.995 -0.2329  0.4873  0.3126
  307TIP3    H125116   7.608   0.103  10.982  0.0041  0.5605  1.9350
  307TIP3    H225117   7.471   0.160  11.009 -0.3640  0.3818  0.5064
  308TIP3   OH225118   5.578   0.870  11.657  0.1027 -0.3812 -0.3949
  308TIP3    H125119   5.603   0.842  11.745 -0.3003  0.5934  0.0403
  308TIP3    H225120   5.633   0.817  11.599  2.9858  1.4186  0.5042
  309TIP3   OH225121   2.024   2.991  10.703 -0.2616 -0.0513 -0.1507
  309TIP3    H125122   2.007   3.013  10.795  0.3866 -1.7442  0.4357
  309TIP3    H225123   2.109   2.946  10.705 -0.8798 -1.3533 -1.3594
  310TIP3   OH225124   5.580   0.839  10.954 -0.1175  1.0989  0.3897
  310TIP3    H125125   5.591   0.811  11.045 -0.3775  0.0483  0.1130
  310TIP3    H225126   5.486   0.833  10.938  0.1682 -2.5633 -1.0491
  311TIP3   OH225127   7.247   0.440  12.747 -0.6246  0.3765  0.0434
  311TIP3    H125128   7.198   0.517  12.718 -1.2058 -1.0049 -3.0363
  311TIP3    H225129   7.327   0.441  12.695  0.2969 -0.1180  1.3888
  312TIP3   OH225130   7.143   1.833  12.326 -0.8307  0.0588 -0.8698
  312TIP3    H125131   7.114   1.743  12.342 -1.0266  0.5797  2.3715
  312TIP3    H225132   7.071   1.888  12.358  0.7719  1.3390  0.7819
  313TIP3   OH225133   6.454   5.666  12.039 -0.8271 -0.3919 -0.1601
  313TIP3    H125134   6.483   5.750  12.003  0.9723 -0.4692  1.0104
  313TIP3    H225135   6.521   5.604  12.012 -1.7810 -1.3377 -0.4144
  314TIP3   OH225136   3.161   4.275  11.566  0.2609 -0.4180 -0.0321
  314TIP3    H125137   3.221   4.340  11.602  0.8394 -0.5456 -0.7489
  314TIP3    H225138   3.124   4.317  11.488  0.2560 -0.7535 -0.2121
  315TIP3   OH225139   0.409   0.368  12.508  0.4664 -0.1832  0.5273
  315TIP3    H125140   0.442   0.338  12.423  1.5529  2.2912  0.0029
  315TIP3    H225141   0.319   0.335  12.511  0.3974 -0.3434 -1.5803
  316TIP3   OH225142   1.645   5.341  10.562  0.1088  0.0269  0.3019
  316TIP3    H125143   1.691   5.286  10.626  2.8050  1.8210  0.0449
  316TIP3    H225144   1.707   5.352  10.490 -1.4569  1.0719 -0.9524
  317TIP3   OH225145   4.124   2.370  10.792  0.0201 -0.7771  0.3220
  317TIP3    H125146   4.169   2.452  10.812 -0.4948  0.0977 -1.8546
  317TIP3    H225147   4.186   2.302  10.819  1.0614  0.3383  0.8415
  318TIP3   OH225148   0.279   2.447  11.346 -0.3856  0.1158 -0.1270
  318TIP3    H125149   0.241   2.442  11.434 -0.7186 -0.9913 -0.3179
  318TIP3    H225150   0.325   2.531  11.344 -0.2959  0.1082  1.1307
  319TIP3   OH225151   3.126   6.250  11.865 -0.4756 -0.3868 -0.1167
  319TIP3    H125152   3.185   6.174  11.863  2.0226  1.4108  0.6378
  319TIP3    H225153   3.130   6.286  11.777 -1.3435 -0.8680 -0.3631
  320TIP3   OH225154   5.944   5.323  12.626 -0.0875 -0.2894 -0.0274
  320TIP3    H125155   5.941   5.231  12.651  0.7019 -0.8833 -1.9175
  320TIP3    H225156   5.893   5.328  12.546 -0.4024  1.0073  0.2305
  321TIP3   OH225157   7.182   2.208  13.282  0.1687  0.5726 -0.3107
  321TIP3    H125158   7.102   2.200  13.334  0.1008  0.6164 -0.4090
  321TIP3    H225159   7.217   2.119  13.279 -0.7732  0.2237 -1.7004
  322TIP3   OH225160   6.343   4.356  11.004 -0.0153  0.9786  0.2557
  322TIP3    H125161   6.255   4.374  10.970 -0.6186  0.7376  1.6441
  322TIP3    H225162   6.329   4.298  11.079  1.4516 -0.3556 -0.4354
  323TIP3   OH225163   4.352   1.427  17.437  0.2126 -0.3667  0.1790
  323TIP3    H125164   4.393   1.343  17.452  0.2343 -0.1581  1.3524
  323TIP3    H225165   4.272   1.425  17.490  1.0359  0.9534  1.5544
  324TIP3   OH225166   0.130   5.357  17.745 -0.8374  0.4697 -0.0052
  324TIP3    H125167   0.146   5.399  17.660 -1.3129  1.3901  0.3420
  324TIP3    H225168   0.103   5.268  17.723  0.7564  0.1472 -0.7337
  325TIP3   OH225169   4.232   7.309  18.582 -0.3369 -0.0633  0.3682
  325TIP3    H125170   4.291   7.287  18.655 -0.2970  0.9467  0.6582
  325TIP3    H225171   4.289   7.315  18.506  0.1638  1.9302  0.8276
  326TIP3   OH225172   3.286   3.868  18.775 -0.3015 -0.1033 -0.0893
  326TIP3    H125173   3.229   3.895  18.847  1.1690 -1.8951  1.8589
  326TIP3    H225174   3.307   3.950  18.730  0.1602  1.4156  2.6500
  327TIP3   OH225175   3.197   3.327  17.588 -0.1062  0.0081 -0.3160
  327TIP3    H125176   3.243   3.287  17.514 -0.2786  0.1494 -0.5029
  327TIP3    H225177   3.185   3.256  17.651  0.3981 -0.0228 -0.2484
  328TIP3   OH225178   2.738   0.751  18.411 -0.1920  0.1059 -0.4471
  328TIP3    H125179   2.739   0.788  18.322  2.4569  0.5002 -0.3239
  328TIP3    H225180   2.694   0.667  18.400 -1.0635  0.6879 -1.8664
  329TIP3   OH225181   1.164   4.657  17.094  0.3185  0.3470  0.2040
  329TIP3    H125182   1.187   4.569  17.064 -0.0858  0.4891 -0.5389
  329TIP3    H225183   1.071   4.652  17.114  0.4380  0.4347  0.7988
  330TIP3   OH225184   5.843   3.226  16.737  0.2949 -0.0094  0.6151
  330TIP3    H125185   5.801   3.310  16.753 -1.3970 -0.9618  1.4937
  330TIP3    H225186   5.908   3.243  16.669 -0.2351  1.9167  0.5517
  331TIP3   OH225187   4.697   0.014  19.314 -0.1454  0.0369 -0.3537
  331TIP3    H125188   4.665   0.090  19.266  0.5213  0.0679 -0.7543
  331TIP3    H225189   4.673   0.031  19.405  0.7892  1.1571 -0.2998
  332TIP3   OH225190   6.066   7.205  18.142  0.2678 -0.1197  0.0026
  332TIP3    H125191   6.125   7.280  18.143 -0.6612  0.6255  0.6521
  332TIP3    H225192   6.080   7.162  18.227 -0.6711  0.5283  0.5094
  333TIP3   OH225193   7.333   7.292  18.980  0.2683 -0.7414 -0.2883
  333TIP3    H125194   7.403   7.318  19.040  0.7459 -0.7965 -0.8181
  333TIP3    H225195   7.254   7.295  19.034  0.7222 -1.0359  0.4091
  334TIP3   OH225196   0.915   0.539  16.864  0.4732  0.6932 -0.4749
  334TIP3    H125197   0.900   0.467  16.803  0.2750 -0.2994  0.6993
  334TIP3    H225198   0.842   0.599  16.849 -0.8036 -0.6004  0.2349
  335TIP3   OH225199   1.547   6.247  18.134  0.7376 -0.3229  0.5725
  335TIP3    H125200   1.498   6.232  18.052  0.7186  1.4358  0.2347
  335TIP3    H225201   1.480   6.245  18.202  0.6272 -0.8850  0.4564
  336TIP3   OH225202   2.872   1.860  18.126  0.5081  0.2405  0.1003
  336TIP3    H125203   2.897   1.781  18.175  0.7740 -0.1002 -0.5690
  336TIP3    H225204   2.788   1.838  18.086  0.0232  0.7192  0.8509
  337TIP3   OH225205   5.242   7.236  17.401 -0.3062 -0.2425  0.0343
  337TIP3    H125206   5.225   7.160  17.345 -0.6954 -0.0369 -0.1342
  337TIP3    H225207   5.326   7.270  17.371 -0.7959  0.2303 -0.8512
  338TIP3   OH225208   3.444   5.086  19.308 -0.8547 -0.1475  0.7275
  338TIP3    H125209   3.416   5.111  19.396 -2.0639 -0.6204  0.4858
  338TIP3    H225210   3.378   5.025  19.277 -0.1833 -0.3764 -0.3333
  339TIP3   OH225211   1.490   7.418  18.931  0.0594  0.4361 -0.0295
  339TIP3    H125212   1.507   7.435  18.838  0.3514 -0.5599 -0.1716
  339TIP3    H225213   1.446   7.333  18.932 -1.9551  1.4211  0.5963
  340TIP3   OH225214   5.928   3.620  18.969  0.2595  0.3443 -0.2579
  340TIP3    H125215   5.911   3.564  19.045 -0.4047  0.7183 -0.1266
  340TIP3    H225216   5.892   3.572  18.895 -1.7100  1.2464  0.0521
  341TIP3   OH225217   0.045   4.652  18.444 -0.3741 -0.0155 -0.0560
  341TIP3    H125218  -0.044   4.683  18.462 -0.1933 -0.2551  1.3600
  341TIP3    H225219   0.091   4.728  18.409 -1.2300  0.0034 -1.2107
  342TIP3   OH225220   5.175   1.174  18.373  0.3462 -0.8648 -0.2570
  342TIP3    H125221   5.178   1.250  18.315 -0.2192 -0.5802  0.0836
  342TIP3    H225222   5.160   1.100  18.314  0.4116 -0.6583 -0.5370
  343TIP3   OH225223   3.452   1.752  18.605  0.5311 -0.0104 -0.4479
  343TIP3    H125224   3.381   1.737  18.542  1.5906 -0.9113 -1.4722
  343TIP3    H225225   3.518   1.686  18.584  1.6047  0.6658  0.6160
  344TIP3   OH225226   7.360   4.558  18.474  0.5760 -0.2070  0.1162
  344TIP3    H125227   7.393   4.642  18.442  0.1462  0.4826  1.4088
  344TIP3    H225228   7.266   4.562  18.458  0.5686 -0.4844  0.0919
  345TIP3   OH225229   3.076   7.600  18.912 -0.3867  0.1597 -0.0297
  345TIP3    H125230   3.123   7.580  18.831  0.4749  2.4388 -0.1509
  345TIP3    H225231   3.141   7.643  18.968 -1.4477  0.2858  1.1525
  346TIP3   OH225232   4.478   3.433  18.697  0.0914  0.3221 -0.1587
  346TIP3    H125233   4.542   3.497  18.729  0.9258  0.0486 -1.2372
  346TIP3    H225234   4.497   3.424  18.604 -0.6133 -0.8277 -0.2112
  347TIP3   OH225235   5.671   4.276  18.622 -0.1884 -0.2066 -0.0833
  347TIP3    H125236   5.585   4.267  18.581  0.5448  0.7859 -1.9684
  347TIP3    H225237   5.708   4.355  18.582  1.2754 -0.1424  1.3012
  348TIP3   OH225238   6.474   5.688  19.075  0.4232  0.2258  0.2109
  348TIP3    H125239   6.450   5.773  19.038  1.5850  0.9709  1.0723
  348TIP3    H225240   6.560   5.703  19.115  0.0931 -1.0344  1.4826
  349TIP3   OH225241   2.366   1.977  17.698  0.2557 -0.2534 -0.1940
  349TIP3    H125242   2.448   1.930  17.711  1.3826  1.1688 -1.8415
  349TIP3    H225243   2.325   1.934  17.623  1.9112  2.0177 -2.5648
  350TIP3   OH225244   5.621   6.612  18.204  0.5057 -0.1501  0.2205
  350TIP3    H125245   5.637   6.701  18.236 -1.4559  0.4538 -0.3084
  350TIP3    H225246   5.587   6.624  18.115 -2.7670 -1.1207  1.1791
  351TIP3   OH225247   3.135   3.041  16.817  0.1099 -0.4241  0.1351
  351TIP3    H125248   3.140   3.132  16.844  0.3731 -0.5196  0.4191
  351TIP3    H225249   3.212   3.000  16.857  0.5999 -0.5328 -0.8861
  352TIP3   OH225250   0.675   7.353  17.416  0.3107 -0.1577 -0.6473
  352TIP3    H125251   0.736   7.413  17.373  2.4438  0.0916  2.4348
  352TIP3    H225252   0.705   7.266  17.389  0.3817  0.0253 -1.1703
  353TIP3   OH225253   1.267   0.632  16.719 -0.1621  0.7090 -0.3242
  353TIP3    H125254   1.227   0.711  16.683 -1.1356 -0.1308 -1.1691
  353TIP3    H225255   1.261   0.643  16.814 -1.0462  1.2856 -0.4327
  354TIP3   OH225256   1.443   4.712  19.027 -0.1298  0.5763  0.6934
  354TIP3    H125257   1.505   4.640  19.045 -0.4277  0.2535  0.4451
  354TIP3    H225258   1.405   4.690  18.943  0.3184  1.4212  0.2603
  355TIP3   OH225259   5.599   7.155  18.540  0.0896  0.2336 -0.6957
  355TIP3    H125260   5.508   7.180  18.525  0.7881  3.0738 -0.7964
  355TIP3    H225261   5.649   7.209  18.478  1.8571 -1.4707 -0.8621
  356TIP3   OH225262   2.475   4.856  18.246 -0.4562 -0.2456  0.1279
  356TIP3    H125263   2.545   4.832  18.186 -0.4568 -2.2952  0.8573
  356TIP3    H225264   2.433   4.932  18.205  0.1233 -0.9824 -1.9765
  357TIP3   OH225265   6.771   6.877  18.560 -0.0522  0.7881 -0.5302
  357TIP3    H125266   6.846   6.907  18.612 -0.6690  0.8802  0.3363
  357TIP3    H225267   6.740   6.798  18.606  0.3939 -0.1007 -1.7144
  358TIP3   OH225268   6.035   6.918  18.714 -0.3696 -0.1394  0.0800
  358TIP3    H125269   6.053   6.999  18.763  0.5748  0.5402 -1.3275
  358TIP3    H225270   6.069   6.848  18.770  0.8360  0.6241  0.3336
  359TIP3   OH225271   5.992   3.960  18.765  0.3186 -0.1310  0.3167
  359TIP3    H125272   5.907   3.916  18.769  0.8185 -1.1179  0.4006
  359TIP3    H225273   5.997   4.009  18.847  0.0582 -0.5001  0.5558
  360TIP3   OH225274   5.411   5.006  18.357  0.4181 -0.3811  0.3229
  360TIP3    H125275   5.380   5.087  18.397  1.4696 -0.6940  1.8495
  360TIP3    H225276   5.462   4.963  18.426  2.1877 -1.0191 -1.2864
  361TIP3   OH225277   6.201   0.545  17.539 -0.3273 -0.0140  0.1038
  361TIP3    H125278   6.221   0.451  17.540  0.1146  0.0252 -1.6069
  361TIP3    H225279   6.106   0.549  17.529 -0.6561 -0.2278  2.5731
  362TIP3   OH225280   0.241   1.813  19.419 -0.8630  0.2148  0.4069
  362TIP3    H125281   0.191   1.742  19.380  1.1732 -0.5520 -0.9971
  362TIP3    H225282   0.319   1.771  19.456  0.7548  1.6900 -1.0941
  363TIP3   OH225283   1.908   3.690  19.366 -0.7447  0.7400  0.1781
  363TIP3    H125284   1.863   3.616  19.327  1.0136 -0.6192  0.5933
  363TIP3    H225285   1.907   3.758  19.298  0.1934 -0.7320 -1.3752
  364TIP3   OH225286   5.302   6.007  19.268  0.3241 -0.2171  0.1743
  364TIP3    H125287   5.272   6.072  19.204  0.2608 -2.0537 -1.7777
  364TIP3    H225288   5.226   5.993  19.325 -0.6001 -0.5289 -1.0821
  365TIP3   OH225289   4.466   2.000  18.031  0.0787  0.0123 -0.2197
  365TIP3    H125290   4.515   2.010  18.113 -1.0755  2.7087  0.2347
  365TIP3    H225291   4.527   1.956  17.972  1.6054 -0.3227  1.5236
  366TIP3   OH225292   1.393   6.152  18.341 -0.0342  0.3207  0.0088
  366TIP3    H125293   1.308   6.129  18.377  0.4945  0.7224  1.5679
  366TIP3    H225294   1.453   6.088  18.377  0.5137  0.7360 -0.1517
  367TIP3   OH225295   0.429   2.383  18.604  0.0399  0.3697 -0.1614
  367TIP3    H125296   0.413   2.375  18.510  2.1979 -0.8691 -0.4783
  367TIP3    H225297   0.421   2.294  18.638 -0.6074  0.7908  0.8297
  368TIP3   OH225298   3.992   3.305  18.083  0.1590 -0.1949  0.1825
  368TIP3    H125299   3.934   3.296  18.008  0.9624 -2.1104 -0.2776
  368TIP3    H225300   3.935   3.294  18.159  0.0271 -4.3112 -0.2642
  369TIP3   OH225301   4.754   0.403  19.228  0.1537  0.6597 -0.3306
  369TIP3    H125302   4.676   0.348  19.216 -0.7235  1.8901 -0.4314
  369TIP3    H225303   4.775   0.434  19.140 -0.1647  1.5275 -0.1152
  370TIP3   OH225304   6.153   2.775  17.977  0.4833 -0.2115  0.3883
  370TIP3    H125305   6.201   2.771  17.895 -0.9308  0.0799 -0.4837
  370TIP3    H225306   6.073   2.824  17.957 -0.7157 -1.5894  1.4885
  371TIP3   OH225307   0.711   0.298  16.968  0.0205  0.5122  0.1625
  371TIP3    H125308   0.628   0.264  16.936  0.9443 -0.9545 -0.8245
  371TIP3    H225309   0.777   0.242  16.926  1.4675  1.0457  1.6320
  372TIP3   OH225310   3.721   5.468  19.046 -0.3765  0.5714 -0.1185
  372TIP3    H125311   3.649   5.426  19.093 -0.1849  1.0690  0.6326
  372TIP3    H225312   3.776   5.395  19.017 -1.4107  0.1531 -1.1105
  373TIP3   OH225313   7.673   4.454  19.527 -0.0634  0.0129  0.0860
  373TIP3    H125314   7.692   4.505  19.606 -0.0988  1.6363 -0.8851
  373TIP3    H225315   7.636   4.519  19.466  1.0421 -0.9134 -1.6525
  374TIP3   OH225316   1.953   4.621  17.393  0.2300 -0.1402 -0.2235
  374TIP3    H125317   1.894   4.608  17.318 -0.0774 -0.6088  0.0927
  374TIP3    H225318   1.904   4.588  17.468  0.9280 -0.6081  0.0391
  375TIP3   OH225319   4.407   1.227  18.272 -0.2296  0.9439 -0.4611
  375TIP3    H125320   4.353   1.150  18.289  1.1207 -0.6613 -2.7489
  375TIP3    H225321   4.374   1.262  18.189  0.5088  1.5404 -0.5224
  376TIP3   OH225322   0.606   1.614  17.839  0.4816  1.0186 -0.5630
  376TIP3    H125323   0.688   1.655  17.813  0.8199 -0.5441 -2.2264
  376TIP3    H225324   0.602   1.625  17.934  2.4023  1.4985 -0.5009
  377TIP3   OH225325   5.245   1.223  18.947  0.2674 -0.5823  0.0772
  377TIP3    H125326   5.182   1.286  18.981 -0.5243 -1.4496  0.2588
  377TIP3    H225327   5.311   1.276  18.903 -0.1548  0.3923  0.5900
  378TIP3   OH225328   4.223   2.469  17.275 -0.3240  0.1062  0.1620
  378TIP3    H125329   4.266   2.474  17.189 -1.1748  1.1073 -0.2253
  378TIP3    H225330   4.155   2.403  17.264 -0.1894 -0.0363  0.1818
  379TIP3   OH225331   6.058   2.546  19.328 -0.1048  0.3732  0.1623
  379TIP3    H125332   6.121   2.494  19.378  0.7093 -0.5095 -1.6937
  379TIP3    H225333   5.980   2.492  19.324 -0.8127  1.1777  1.8721
  380TIP3   OH225334   6.213   4.846  18.078 -0.4510 -0.6012  0.7175
  380TIP3    H125335   6.188   4.891  18.159 -0.0125  1.3534 -0.1691
  380TIP3    H225336   6.212   4.915  18.012  1.1489 -1.7415 -0.5555
  381TIP3   OH225337   1.080   5.359  17.716  0.2785  0.4932 -0.1462
  381TIP3    H125338   1.156   5.397  17.760  0.2227  1.5376 -0.9152
  381TIP3    H225339   1.116   5.289  17.661  0.3830 -0.6099  1.2728
  382TIP3   OH225340   1.972   0.983  18.338 -0.8791  0.6290  0.1828
  382TIP3    H125341   1.982   1.056  18.277  0.4564  0.1005 -0.2761
  382TIP3    H225342   1.974   0.905  18.283 -1.3765  0.2140  0.7475
  383TIP3   OH225343   2.695   3.165  16.895 -0.3518  0.2808  0.7664
  383TIP3    H125344   2.721   3.233  16.958  2.5774 -1.5123  1.7304
  383TIP3    H225345   2.700   3.208  16.810  1.2731  1.3685  1.3543
  384TIP3   OH225346   1.742   6.301  17.140  0.0671  0.3157  0.6402
  384TIP3    H125347   1.668   6.334  17.191  0.9689  1.6387  1.1356
  384TIP3    H225348   1.734   6.345  17.055 -0.2438 -0.2958  0.3386
  385TIP3   OH225349   4.340   3.414  18.931  0.1012 -0.3308 -0.1852
  385TIP3    H125350   4.376   3.414  18.842  2.3647 -1.4400  0.6493
  385TIP3    H225351   4.337   3.506  18.956  0.9910 -0.1144 -0.8394
  386TIP3   OH225352   3.273   5.978  16.939  0.3976 -0.0661 -0.1494
  386TIP3    H125353   3.192   6.012  16.903  0.8792  1.9592  0.5039
  386TIP3    H225354   3.258   5.974  17.034  0.6794 -0.7520 -0.1302
  387TIP3   OH225355   3.076   3.992  18.935 -0.0637 -0.0708  0.3716
  387TIP3    H125356   3.127   4.060  18.979 -1.3897  3.3314 -2.8191
  387TIP3    H225357   2.987   4.005  18.968 -0.6573  1.0859 -1.5190
  388TIP3   OH225358   3.441   1.862  17.933 -0.4020  0.3423  0.3461
  388TIP3    H125359   3.517   1.806  17.945  0.6062  1.8366  1.1439
  388TIP3    H225360   3.371   1.818  17.982  0.6710  0.3417  1.9421
  389TIP3   OH225361   6.882   4.016  18.695 -0.2829  0.7692 -0.7746
  389TIP3    H125362   6.807   4.050  18.646 -0.1746  1.5411 -0.4212
  389TIP3    H225363   6.859   3.924  18.713 -0.1319  0.3285 -2.6162
  390TIP3   OH225364   2.640   1.123  19.334  0.1766  0.5040 -0.6013
  390TIP3    H125365   2.584   1.185  19.289  0.1940  0.7566 -0.2805
  390TIP3    H225366   2.696   1.086  19.266 -0.5239  0.0810 -0.9625
  391TIP3   OH225367   2.774   2.192  18.361  0.3907 -0.2847 -0.2885
  391TIP3    H125368   2.812   2.115  18.403 -1.3570 -0.4427  1.1162
  391TIP3    H225369   2.724   2.158  18.287  1.8715 -0.1784 -1.4060
  392TIP3   OH225370   7.045   5.610  19.413 -0.0225  0.5732 -0.0743
  392TIP3    H125371   7.047   5.654  19.498  2.0767 -0.0318  0.2543
  392TIP3    H225372   7.107   5.658  19.359  0.1832 -0.2665 -0.6104
  393TIP3   OH225373   3.851   0.234  18.558 -0.1268  0.4532 -0.1117
  393TIP3    H125374   3.915   0.265  18.622 -0.5057 -1.5519  1.3599
  393TIP3    H225375   3.904   0.195  18.489  0.3203 -0.9044  0.9408
  394TIP3   OH225376   2.421   5.474  18.672 -0.1552 -0.1192  0.3862
  394TIP3    H125377   2.448   5.409  18.737  1.1435  0.4543  0.4550
  394TIP3    H225378   2.436   5.431  18.587  1.0280  0.1920  0.4237
  395TIP3   OH225379   1.387   7.177  19.623 -0.1009 -0.5054  0.1092
  395TIP3    H125380   1.466   7.153  19.574 -0.4078 -0.4098 -0.4392
  395TIP3    H225381   1.402   7.267  19.651 -1.0828  0.4425 -2.2197
  396TIP3   OH225382   0.235   3.572  18.821  0.5926  0.3891 -0.2009
  396TIP3    H125383   0.200   3.604  18.738  0.1057  1.9077  0.5594
  396TIP3    H225384   0.189   3.489  18.836  0.9574 -0.1006 -1.5985
  397TIP3   OH225385   2.610   3.643  18.198  0.2694 -0.2645 -0.0355
  397TIP3    H125386   2.524   3.681  18.213 -0.7893 -1.8437 -1.7690
  397TIP3    H225387   2.671   3.715  18.215 -1.4619  1.2807 -0.1052
  398TIP3   OH225388   2.993   1.659  18.255  0.0444 -0.0796 -0.8483
  398TIP3    H125389   3.014   1.578  18.209  0.3420 -0.5721  0.1112
  398TIP3    H225390   2.994   1.635  18.348 -0.4229  0.8988 -0.5715
  399TIP3   OH225391   1.982   4.308  19.569 -0.0746  0.6826 -0.0814
  399TIP3    H125392   1.912   4.355  19.524 -1.6513 -0.1026  1.4259
  399TIP3    H225393   1.994   4.356  19.651 -2.6603 -2.0032  2.1352
  400TIP3   OH225394   5.376   0.609  19.087 -0.1396  0.0700 -0.4596
  400TIP3    H125395   5.295   0.563  19.108 -0.1069 -0.0283 -0.5505
  400TIP3    H225396   5.431   0.544  19.044  0.7806 -0.4291  1.3498
  401TIP3   OH225397   0.566   5.487  19.100  0.0634 -0.0145  0.1511
  401TIP3    H125398   0.624   5.498  19.025  0.0454 -2.6461 -0.3253
  401TIP3    H225399   0.483   5.457  19.063 -0.0859 -0.9577  1.1897
  402TIP3   OH225400   3.147   1.676  16.924  0.0653  0.0275  0.1901
  402TIP3    H125401   3.068   1.710  16.966 -0.5836 -1.0334 -0.1540
  402TIP3    H225402   3.202   1.754  16.911 -0.0637  0.5290  2.2003
  403TIP3   OH225403   1.115   7.662  17.658 -0.0611 -0.0253 -0.0837
  403TIP3    H125404   1.078   7.574  17.663 -0.6031  0.0968 -1.5447
  403TIP3    H225405   1.039   7.719  17.654  0.2204  0.2860 -2.2635
  404TIP3   OH225406   7.103   5.898  18.685 -0.4590  0.2617  0.4831
  404TIP3    H125407   7.079   5.942  18.603 -1.9248 -1.0680  0.1405
  404TIP3    H225408   7.027   5.912  18.742 -0.0600 -0.0490  1.0969
  405TIP3   OH225409   6.742   7.160  18.454 -1.0450 -0.3448 -0.4682
  405TIP3    H125410   6.741   7.064  18.452 -1.1794 -0.3593  0.1601
  405TIP3    H225411   6.649   7.184  18.447 -0.9850 -0.2505 -0.9622
  406TIP3   OH225412   1.085   7.411  19.420  0.6627  0.1188 -0.1624
  406TIP3    H125413   1.089   7.423  19.515  0.3154 -0.0622 -0.1228
  406TIP3    H225414   1.166   7.451  19.388  1.0938 -0.3816  0.2643
  407TIP3   OH225415   0.884   5.430  18.875  0.2453  0.3638  0.0118
  407TIP3    H125416   0.820   5.501  18.876  0.1589  0.2848  0.4048
  407TIP3    H225417   0.834   5.353  18.850  0.0543  0.1896  0.8800
  408TIP3   OH225418   3.317   6.444  18.732  0.0259 -0.1706 -0.1095
  408TIP3    H125419   3.226   6.439  18.701  0.1444  0.7783 -0.6414
  408TIP3    H225420   3.357   6.363  18.702 -0.2375  0.0991 -1.2410
  409TIP3   OH225421   4.215   6.437  19.160 -0.2623 -0.6395  0.5079
  409TIP3    H125422   4.302   6.409  19.187  0.3685  0.4455 -0.3190
  409TIP3    H225423   4.204   6.401  19.072 -0.2243  0.0416  0.2121
  410TIP3   OH225424   4.909   1.303  17.556 -0.1357  1.3507  1.0094
  410TIP3    H125425   4.863   1.238  17.503  0.4785  1.9014 -0.2401
  410TIP3    H225426   4.931   1.373  17.495 -0.1875  2.4363  2.1882
  411TIP3   OH225427   5.501   7.442  16.873  0.3278  0.1953  0.6454
  411TIP3    H125428   5.463   7.401  16.795  1.1520 -0.1292  0.3930
  411TIP3    H225429   5.447   7.412  16.945  0.3954 -0.6467  0.3540
  412TIP3   OH225430   6.214   3.545  17.215  0.0331  0.1110  0.1294
  412TIP3    H125431   6.179   3.587  17.294 -0.6168 -1.7475  0.8990
  412TIP3    H225432   6.294   3.501  17.246  2.0376  2.6208 -1.1654
  413TIP3   OH225433   1.592   4.975  17.674  0.7053 -0.1506 -1.0012
  413TIP3    H125434   1.514   4.950  17.624  0.8098 -1.0871 -0.7228
  413TIP3    H225435   1.566   4.964  17.766  0.9723  0.1387 -0.8885
  414TIP3   OH225436   1.296   7.521  17.489 -1.0094  0.0620  0.2540
  414TIP3    H125437   1.262   7.578  17.558  1.5666 -0.3835  2.0195
  414TIP3    H225438   1.255   7.555  17.409 -4.4022  0.3862  1.9214
  415TIP3   OH225439   3.718   4.942  18.212 -0.3969 -0.1637 -0.2640
  415TIP3    H125440   3.759   4.857  18.200 -0.6219 -0.4495  0.8970
  415TIP3    H225441   3.747   4.972  18.298 -0.6747  0.7355 -0.4653
  416TIP3   OH225442   7.114   6.461  17.746  0.5056  0.0574 -0.3914
  416TIP3    H125443   7.022   6.434  17.751  0.5505  0.1554  2.5662
  416TIP3    H225444   7.118   6.544  17.794  2.3131 -0.6046  0.7168
  417TIP3   OH225445   7.053   1.689  17.528 -0.2495 -0.1151 -0.6070
  417TIP3    H125446   7.086   1.779  17.525  0.0315 -0.2543 -2.5001
  417TIP3    H225447   7.113   1.639  17.473 -1.0533 -1.2569 -0.4781
  418TIP3   OH225448   5.168   3.650  17.942  0.4621  1.4078  0.0788
  418TIP3    H125449   5.174   3.576  17.881 -0.3657  1.5718 -0.2092
  418TIP3    H225450   5.233   3.713  17.910  1.7550  0.4885  0.7970
  419TIP3   OH225451   0.537   7.156  19.534  0.1883 -0.1045 -0.2975
  419TIP3    H125452   0.506   7.246  19.521  0.1314 -0.3261 -1.9121
  419TIP3    H225453   0.630   7.164  19.552  0.0928  0.2980  0.0254
  420TIP3   OH225454   0.703   6.096  18.274 -0.2945 -0.0281 -0.8051
  420TIP3    H125455   0.725   6.137  18.357 -1.7126 -1.9524  0.6149
  420TIP3    H225456   0.775   6.120  18.216  1.5339  0.1936  1.3909
  421TIP3   OH225457   3.018   6.298  17.743  0.3187 -0.1061  0.1266
  421TIP3    H125458   2.971   6.269  17.665  0.4413  2.0544 -0.8276
  421TIP3    H225459   2.951   6.307  17.810 -0.2741  0.6169 -0.5368
  422TIP3   OH225460   4.245   7.667  19.010 -0.1042  0.1573  0.0149
  422TIP3    H125461   4.176   7.710  19.062 -0.0089  0.4720 -0.1163
  422TIP3    H225462   4.198   7.601  18.959 -0.1053 -0.6402  1.0140
  423TIP3   OH225463   0.713   2.010  17.406 -0.4151  0.1805  0.0888
  423TIP3    H125464   0.709   1.997  17.311  0.4788 -0.4063  0.1267
  423TIP3    H225465   0.806   2.021  17.425 -0.6672  1.3087  0.7785
  424TIP3   OH225466   2.820   2.959  18.672 -0.0425  0.3019  0.1611
  424TIP3    H125467   2.791   2.882  18.722 -0.8839  1.0482  0.8712
  424TIP3    H225468   2.748   2.978  18.612 -0.2152  1.0285  0.5845
  425TIP3   OH225469   1.996   7.651  18.572  0.5442 -0.4075 -0.1330
  425TIP3    H125470   2.084   7.677  18.547  1.3264 -2.6834  0.0804
  425TIP3    H225471   1.971   7.584  18.509 -1.4843  0.8801 -0.8101
  426TIP3   OH225472   6.521   1.971  17.349 -0.3249  0.0111 -0.3739
  426TIP3    H125473   6.531   1.937  17.261  0.3746 -0.7181 -0.0187
  426TIP3    H225474   6.558   2.059  17.345 -0.0315 -0.1261 -0.7363
  427TIP3   OH225475   3.755   3.534  17.577 -0.3791 -0.1933 -0.1363
  427TIP3    H125476   3.742   3.538  17.671 -0.9639 -0.0091 -0.2243
  427TIP3    H225477   3.840   3.491  17.566 -0.0797  0.2252  0.4827
  428TIP3   OH225478   5.544   0.084  19.689  0.0473 -0.1200 -0.1334
  428TIP3    H125479   5.621   0.121  19.731  0.7284 -0.6139 -0.9233
  428TIP3    H225480   5.516   0.153  19.628  0.6410 -0.4462 -0.7832
  429TIP3   OH225481   1.062   7.545  16.978  0.6383  0.7236  0.6667
  429TIP3    H125482   1.044   7.452  16.967  1.1801  0.6447  0.4622
  429TIP3    H225483   0.977   7.582  17.005 -0.1134  0.5042 -1.2272
  430TIP3   OH225484   1.007   4.470  18.152  0.0320  0.0180  0.4560
  430TIP3    H125485   1.070   4.517  18.206  0.3227 -1.1125  1.1278
  430TIP3    H225486   0.946   4.430  18.214 -0.5456 -0.0407 -0.1239
  431TIP3   OH225487   3.555   6.347  19.243 -0.1716 -0.5365 -0.0791
  431TIP3    H125488   3.556   6.253  19.262 -1.4012 -0.5691 -0.0986
  431TIP3    H225489   3.519   6.353  19.154 -2.0410  0.0319  0.6630
  432TIP3   OH225490   6.912   0.385  17.826 -0.0296  0.1461 -0.0398
  432TIP3    H125491   6.938   0.403  17.917  0.8670 -0.6543 -0.1236
  432TIP3    H225492   6.833   0.332  17.835  0.0264  0.1120  0.2719
  433TIP3   OH225493   3.829   7.385  18.721  0.3598  0.0523 -0.4044
  433TIP3    H125494   3.792   7.442  18.654  0.5479 -1.2757 -1.6950
  433TIP3    H225495   3.840   7.300  18.677 -0.8173 -1.2734  1.6733
  434TIP3   OH225496   0.232   6.371  19.508  0.0939  0.0856  0.5611
  434TIP3    H125497   0.325   6.372  19.484  0.2808 -0.1509  1.2554
  434TIP3    H225498   0.195   6.447  19.463  0.5600  0.0071  0.0336
  435TIP3   OH225499   1.027   0.202  18.587  0.5086 -0.0466  0.1179
  435TIP3    H125500   0.993   0.130  18.639 -1.3906  0.4025 -0.4241
  435TIP3    H225501   0.950   0.254  18.565  1.6607  1.4115 -0.6266
  436TIP3   OH225502   6.604   5.420  19.103 -0.2851 -0.2457  0.4696
  436TIP3    H125503   6.656   5.396  19.179 -3.3648 -0.0665  2.7946
  436TIP3    H225504   6.600   5.516  19.106 -1.4249 -0.2888  0.8690
  437TIP3   OH225505   6.365   5.061  18.707 -0.0347  0.0422  0.2367
  437TIP3    H125506   6.460   5.056  18.718  0.2279  1.6845 -0.9470
  437TIP3    H225507   6.348   5.016  18.624 -0.3391 -0.4659  0.5677
  438TIP3   OH225508   6.542   1.394  19.483 -0.2646  0.0112 -0.0114
  438TIP3    H125509   6.585   1.360  19.562  2.2024  1.4924 -0.6264
  438TIP3    H225510   6.451   1.364  19.491  0.1836 -0.9048  2.7658
  439TIP3   OH225511   2.802   4.239  18.507 -0.1346  0.1878  0.4616
  439TIP3    H125512   2.810   4.329  18.475  1.9496  0.1896  0.8502
  439TIP3    H225513   2.880   4.226  18.560 -1.1088 -1.4130  1.5733
  440TIP3   OH225514   6.246   1.532  17.688 -0.0660 -0.0087  0.1649
  440TIP3    H125515   6.305   1.539  17.614  1.0429  0.8772  1.0969
  440TIP3    H225516   6.303   1.516  17.763 -0.9392  1.3193  1.1566
  441TIP3   OH225517   1.206   2.724  17.642  0.1921 -0.1361 -0.1767
  441TIP3    H125518   1.127   2.777  17.652 -0.6130 -1.2946 -0.2405
  441TIP3    H225519   1.253   2.763  17.568 -0.8745 -0.1173 -0.8504
  442TIP3   OH225520   4.994   4.349  19.316  0.3159  0.1178  0.0863
  442TIP3    H125521   4.909   4.350  19.361 -0.5514  2.3590 -1.4369
  442TIP3    H225522   5.058   4.370  19.384 -0.4394 -0.5117  1.0294
  443TIP3   OH225523   1.428   1.961  18.989  0.0196 -0.2441 -0.3604
  443TIP3    H125524   1.335   1.980  18.976 -0.5707 -1.7739  1.2879
  443TIP3    H225525   1.436   1.867  18.972  0.6849 -0.7188  2.2002
  444TIP3   OH225526   1.627   6.465  16.948 -0.0544  0.3947  0.5456
  444TIP3    H125527   1.539   6.499  16.932 -0.7239 -0.1155  2.7636
  444TIP3    H225528   1.672   6.536  16.994  0.1544  0.0815  0.8294
  445TIP3   OH225529   0.142   1.503  19.063  0.3506 -0.1062 -0.0089
  445TIP3    H125530   0.079   1.529  18.996  0.7193  0.9701  0.0490
  445TIP3    H225531   0.182   1.423  19.029 -0.3176 -0.2380 -0.5077
  446TIP3   OH225532   6.248   4.104  17.956  0.2246 -0.7799  0.3864
  446TIP3    H125533   6.177   4.088  17.893 -0.3012 -0.7139  0.9609
  446TIP3    H225534   6.204   4.133  18.036  1.0200  3.2525 -0.3980
  447TIP3   OH225535   2.284   6.396  19.214 -0.4022  0.6553 -0.2592
  447TIP3    H125536   2.235   6.322  19.176 -2.0362  0.5924  1.8049
  447TIP3    H225537   2.223   6.470  19.209  1.3161  2.0449 -2.5582
  448TIP3   OH225538   3.966   6.502  17.024 -0.3309  0.7178 -0.5992
  448TIP3    H125539   3.914   6.456  16.957  0.1441  0.5236 -0.8390
  448TIP3    H225540   4.056   6.475  17.007 -0.1433  1.0913 -0.2153
  449TIP3   OH225541   5.207   2.124  18.066 -0.1174 -0.2138 -0.0418
  449TIP3    H125542   5.294   2.114  18.026 -0.8863  0.5335 -2.0394
  449TIP3    H225543   5.210   2.211  18.108 -0.4815  0.7282 -1.8522
  450TIP3   OH225544   7.152   6.622  17.190  0.4119 -0.2124 -0.3072
  450TIP3    H125545   7.235   6.666  17.168 -0.1173  0.9114 -0.1598
  450TIP3    H225546   7.127   6.662  17.274 -1.4327  1.1778 -1.4564
  451TIP3   OH225547   0.800   5.775  19.329 -0.3180  0.2789 -0.4421
  451TIP3    H125548   0.876   5.719  19.316  0.1808  1.1462 -1.3631
  451TIP3    H225549   0.835   5.864  19.331 -1.0777  0.5869  1.1259
  452TIP3   OH225550   6.790   3.826  17.226  0.2432  0.7078 -0.4371
  452TIP3    H125551   6.721   3.891  17.238 -1.0998 -0.8507  0.5025
  452TIP3    H225552   6.774   3.791  17.138  0.3648  0.9264 -0.5481
  453TIP3   OH225553   5.785   1.749  17.276  0.0129  0.2802 -0.1460
  453TIP3    H125554   5.860   1.698  17.244 -0.3420 -0.3337 -0.0098
  453TIP3    H225555   5.802   1.838  17.245 -0.1894 -0.2430 -1.8238
  454TIP3   OH225556   1.897   4.032  17.973  0.9921 -0.2010 -0.0404
  454TIP3    H125557   1.965   3.974  17.939 -0.2871 -1.8297  0.0885
  454TIP3    H225558   1.898   4.018  18.067  0.9944  0.3633  0.0462
  455TIP3   OH225559   2.060   6.220  19.152 -0.0666  0.3178 -0.8737
  455TIP3    H125560   1.994   6.274  19.108  0.3466  1.1475 -0.4955
  455TIP3    H225561   2.109   6.180  19.080 -1.0104 -0.3738 -1.1599
  456TIP3   OH225562   5.854   3.437  18.752 -0.4596  0.0577 -0.7386
  456TIP3    H125563   5.873   3.463  18.662  3.0801 -1.3509 -0.5753
  456TIP3    H225564   5.821   3.348  18.745 -0.4190  0.0349 -0.6440
  457TIP3   OH225565   2.636   5.001  17.944 -0.3740 -0.5659  0.1287
  457TIP3    H125566   2.552   4.956  17.951 -1.8063  1.5416 -2.0336
  457TIP3    H225567   2.660   4.994  17.852 -0.0991  2.0026 -0.0799
  458TIP3   OH225568   1.513   2.349  16.638 -0.5123  0.4718  0.3209
  458TIP3    H125569   1.503   2.257  16.663 -2.0348  0.4571 -0.2536
  458TIP3    H225570   1.608   2.361  16.632 -0.2306 -0.6659  1.8030
  459TIP3   OH225571   2.234   0.385  18.292 -0.1502  0.1869  0.5321
  459TIP3    H125572   2.315   0.348  18.257  0.4305  2.2222 -0.4260
  459TIP3    H225573   2.166   0.353  18.234  0.4018  0.9545 -0.5771
  460TIP3   OH225574   6.726   0.210  17.815  0.1526 -0.0009 -0.1311
  460TIP3    H125575   6.633   0.229  17.805  0.2504 -0.2444 -1.6774
  460TIP3    H225576   6.738   0.127  17.768  1.4121  0.7631 -1.1890
  461TIP3   OH225577   3.927   1.620  18.392  0.2130  0.0187  0.1302
  461TIP3    H125578   3.945   1.530  18.418 -0.4610 -0.1451  0.0571
  461TIP3    H225579   3.934   1.620  18.296  0.9568  0.2192  0.1818
  462TIP3   OH225580   2.310   6.443  18.320  0.3618  0.3901 -0.2000
  462TIP3    H125581   2.246   6.510  18.343 -1.3434 -1.2949  0.2865
  462TIP3    H225582   2.267   6.391  18.252  1.3528 -0.5736 -0.1238
  463TIP3   OH225583   7.123   1.209  17.994 -0.6765  0.1824 -0.5788
  463TIP3    H125584   7.119   1.119  18.029  1.0096  0.8159  1.4930
  463TIP3    H225585   7.216   1.225  17.980 -0.8375  1.9598  0.1414
  464TIP3   OH225586   4.244   3.921  18.532  0.0106 -0.0035 -0.2011
  464TIP3    H125587   4.231   3.826  18.534  0.3691 -0.0401  1.1885
  464TIP3    H225588   4.200   3.953  18.610  0.3536  0.9202 -0.3789
  465TIP3   OH225589   5.891   5.093  19.484 -0.0903 -0.7275 -0.1730
  465TIP3    H125590   5.919   5.003  19.504  1.9162 -0.4665 -1.5709
  465TIP3    H225591   5.972   5.143  19.479 -1.1046  0.9477 -0.4860
  466TIP3   OH225592   5.585   2.439  17.540 -0.3839 -0.5850  0.2164
  466TIP3    H125593   5.569   2.522  17.495  1.0762 -0.2174  0.3478
  466TIP3    H225594   5.529   2.376  17.495 -0.7000  0.2479 -0.5762
  467TIP3   OH225595   7.423   6.897  19.168  0.1554  0.0425 -0.5071
  467TIP3    H125596   7.491   6.952  19.207  0.9733  0.2925 -2.1843
  467TIP3    H225597   7.343   6.950  19.173  0.6934  0.9344 -1.0561
  468TIP3   OH225598   5.886   6.086  19.108 -0.2183  0.3019 -0.4085
  468TIP3    H125599   5.842   6.092  19.023 -0.2244 -0.9781 -0.5230
  468TIP3    H225600   5.845   6.011  19.151  1.7333 -0.8675 -0.4618
  469TIP3   OH225601   3.751   2.967  18.348  0.2217 -0.0669 -0.4726
  469TIP3    H125602   3.793   2.889  18.312  0.3487 -0.1784 -0.0897
  469TIP3    H225603   3.783   2.972  18.438 -0.0285  0.2543 -0.3994
  470TIP3   OH225604   5.772   6.383  18.308 -0.0154  0.2425  0.0721
  470TIP3    H125605   5.727   6.434  18.240 -0.6866 -1.1338 -0.5471
  470TIP3    H225606   5.844   6.340  18.261 -0.7183 -1.0289  0.1216
  471TIP3   OH225607   6.803   1.101  18.288 -0.1435  0.5718  0.1453
  471TIP3    H125608   6.745   1.040  18.243  1.5818 -0.4525 -0.7957
  471TIP3    H225609   6.801   1.180  18.234 -0.3950  0.4169 -0.0752
  472TIP3   OH225610   3.561   2.266  18.484 -0.0107  0.2000  0.3676
  472TIP3    H125611   3.652   2.259  18.513 -0.2836 -0.6608  1.0779
  472TIP3    H225612   3.526   2.177  18.493 -0.7524  0.3895 -0.5007
  473TIP3   OH225613   6.893   0.802  17.685 -0.6341  0.0924  0.3098
  473TIP3    H125614   6.988   0.803  17.702 -0.8269  0.0285  1.5280
  473TIP3    H225615   6.875   0.888  17.647 -0.0752  0.0859  0.0202
  474TIP3   OH225616   2.260   6.991  18.453  0.2109 -0.0215 -0.7893
  474TIP3    H125617   2.248   7.085  18.442 -0.7443 -0.1028 -0.5874
  474TIP3    H225618   2.188   6.965  18.511  1.2927 -0.6428  0.3368
  475TIP3   OH225619   2.072   6.942  18.668  0.5412 -0.2174  0.2260
  475TIP3    H125620   2.106   6.853  18.659  0.2315 -0.2767 -0.4168
  475TIP3    H225621   1.981   6.931  18.698  0.7910 -0.0834  1.0720
  476TIP3   OH225622   6.838   3.746  18.675 -0.3157  0.8200 -0.1220
  476TIP3    H125623   6.919   3.710  18.711  0.5089  2.0262 -0.7097
  476TIP3    H225624   6.768   3.702  18.724  0.6626 -0.8097 -0.1463
  477TIP3   OH225625   6.892   7.503  16.915 -0.2853 -0.0641  0.5655
  477TIP3    H125626   6.915   7.593  16.893  0.4823 -0.5840 -0.8586
  477TIP3    H225627   6.824   7.480  16.851  1.2717 -1.2755 -0.7405
  478TIP3   OH225628   6.810   2.393  17.214  0.5362  0.1428 -0.1203
  478TIP3    H125629   6.893   2.437  17.203  0.4319  0.8011  1.4325
  478TIP3    H225630   6.764   2.405  17.131  1.7901  0.1586 -0.8259
  479TIP3   OH225631   5.695   3.282  18.089 -0.1339 -0.8223  0.2969
  479TIP3    H125632   5.690   3.188  18.071 -2.5270 -0.7853  0.3973
  479TIP3    H225633   5.615   3.302  18.138 -0.2515  1.4576 -0.6599
  480TIP3   OH225634   2.214   3.028  16.998  0.1013 -0.0626  0.4039
  480TIP3    H125635   2.189   2.987  16.915 -1.7143  0.6607  0.5435
  480TIP3    H225636   2.309   3.020  17.001  0.2136 -0.1487 -1.7431
  481TIP3   OH225637   2.209   7.219  19.593 -0.0633 -0.4835 -0.2008
  481TIP3    H125638   2.209   7.151  19.525 -0.2160 -1.4008  0.6987
  481TIP3    H225639   2.273   7.189  19.657  0.4953  0.6635 -0.2091
  482TIP3   OH225640   3.296   2.853  19.634  0.1163  0.3521 -0.4800
  482TIP3    H125641   3.243   2.838  19.712 -0.8384  3.0850 -0.4951
  482TIP3    H225642   3.277   2.944  19.609  0.7076 -0.2764 -3.6497
  483TIP3   OH225643   3.722   1.214  18.548  0.4287 -0.1182  0.4464
  483TIP3    H125644   3.767   1.214  18.464  0.6748  0.3657  0.5708
  483TIP3    H225645   3.677   1.298  18.551 -0.8480 -0.7694  0.1416
  484TIP3   OH225646   6.305   1.613  18.358 -0.2566  0.0235  0.1736
  484TIP3    H125647   6.330   1.577  18.443  1.0699 -0.4153 -0.3794
  484TIP3    H225648   6.233   1.557  18.329 -0.1816 -0.3288  0.6471
  485TIP3   OH225649   4.483   7.515  18.884 -0.3166 -0.4007  0.1393
  485TIP3    H125650   4.461   7.425  18.860  0.4565 -0.5996  0.1587
  485TIP3    H225651   4.459   7.521  18.976 -0.6051 -0.5053  0.0744
  486TIP3   OH225652   5.725   1.818  17.682  0.4032  0.0003  0.0525
  486TIP3    H125653   5.771   1.737  17.659  0.3925 -0.2610  0.9149
  486TIP3    H225654   5.742   1.829  17.776 -1.0094  0.0799  0.3198
  487TIP3   OH225655   3.288   3.183  19.101 -0.3512  0.1126 -0.1514
  487TIP3    H125656   3.354   3.159  19.036 -0.1194 -0.9759  0.4664
  487TIP3    H225657   3.312   3.272  19.128  0.9558 -0.3196  0.1812
  488TIP3   OH225658   0.262   4.890  19.648  0.0826  0.4198  0.2538
  488TIP3    H125659   0.220   4.804  19.645 -1.1131  0.9108  1.8129
  488TIP3    H225660   0.257   4.922  19.557  0.1932 -0.9607 -0.2627
  489TIP3   OH225661   2.197   2.827  18.874  0.1906  0.4376  0.1438
  489TIP3    H125662   2.197   2.771  18.796  1.1822 -1.0242  1.1529
  489TIP3    H225663   2.268   2.889  18.859 -0.3434  0.8956 -0.5837
  490TIP3   OH225664   5.238   1.842  16.952 -0.0996  0.5190  0.4435
  490TIP3    H125665   5.241   1.747  16.941 -1.3281  0.2799  1.8787
  490TIP3    H225666   5.246   1.876  16.863  0.2769 -0.9141 -0.1107
  491TIP3   OH225667   3.277   4.148  19.034  0.0732  0.7338 -0.0435
  491TIP3    H125668   3.270   4.231  18.986  1.4359  0.0995 -1.4168
  491TIP3    H225669   3.358   4.156  19.084  0.6132 -0.0476 -0.7748
  492TIP3   OH225670   6.264   6.573  18.265 -0.4898  0.4632 -0.2207
  492TIP3    H125671   6.328   6.640  18.288 -1.1901  0.5606  1.6173
  492TIP3    H225672   6.297   6.493  18.307 -1.8491  0.6491  1.2738
  493TIP3   OH225673   5.959   1.820  17.859 -0.3145  0.1822  0.2425
  493TIP3    H125674   5.921   1.906  17.842  2.1264  1.3931  0.5811
  493TIP3    H225675   6.012   1.831  17.938 -1.1674 -2.0662  1.2289
  494TIP3   OH225676   5.550   4.071  18.929  0.0446  0.1819 -0.1018
  494TIP3    H125677   5.607   4.016  18.874 -0.2208 -0.6570  0.4451
  494TIP3    H225678   5.563   4.038  19.018 -0.2952  0.8634  0.2093
  495TIP3   OH225679   0.216   0.337  19.048  0.0493 -0.1284 -0.1903
  495TIP3    H125680   0.307   0.324  19.076  1.3807  1.8495 -3.1590
  495TIP3    H225681   0.222   0.394  18.972 -3.6558 -0.7524 -1.1398
  496TIP3   OH225682   2.887   3.509  17.230  0.1794 -0.3657  0.5245
  496TIP3    H125683   2.826   3.485  17.161  0.4018  0.0592  0.1718
  496TIP3    H225684   2.963   3.452  17.216  0.9271  0.8394 -0.6331
  497TIP3   OH225685   5.924   4.911  17.256  0.0299 -0.4558 -0.1838
  497TIP3    H125686   5.932   5.003  17.233  1.6416 -0.6030 -0.3588
  497TIP3    H225687   5.902   4.911  17.350 -0.0283  0.1022 -0.1977
  498TIP3   OH225688   0.739   4.911  19.666 -0.0752 -0.3240 -0.1371
  498TIP3    H125689   0.781   4.825  19.665  0.9742  0.1667  0.3085
  498TIP3    H225690   0.810   4.973  19.651 -0.7556  0.4995 -0.0567
  499TIP3   OH225691   0.634   5.463  19.681 -0.0684 -0.5072  0.4272
  499TIP3    H125692   0.696   5.535  19.694  0.4999 -0.4122 -2.1936
  499TIP3    H225693   0.680   5.385  19.710  1.2133 -0.3846 -1.1549
  500TIP3   OH225694   4.233   0.768  18.422  0.3433 -0.1375  0.4716
  500TIP3    H125695   4.164   0.718  18.380 -1.0675  1.4205  0.8452
  500TIP3    H225696   4.299   0.702  18.447 -0.4597 -1.5124 -0.8852
  501TIP3   OH225697   5.025   5.002  17.580 -0.5075 -0.1152  0.0744
  501TIP3    H125698   4.959   4.962  17.636 -0.3225 -1.5476 -0.6868
  501TIP3    H225699   5.106   4.994  17.629 -0.2791 -1.7112 -0.5042
  502TIP3   OH225700   1.036   5.635  19.347 -0.1341  0.1076 -0.2879
  502TIP3    H125701   1.029   5.613  19.440 -1.1030 -0.6209 -0.5073
  502TIP3    H225702   1.049   5.550  19.304 -1.5696  0.2012 -0.9681
  503TIP3   OH225703   1.697   7.360  18.567  0.1426 -0.2245 -0.0647
  503TIP3    H125704   1.688   7.337  18.474 -1.7363  2.2355 -0.6081
  503TIP3    H225705   1.696   7.455  18.568 -1.5677 -0.1757  2.6197
  504TIP3   OH225706   4.405   3.638  17.750 -0.6856  0.0552  0.5214
  504TIP3    H125707   4.362   3.654  17.834  0.5076 -0.5017  1.2736
  504TIP3    H225708   4.463   3.563  17.767  0.9976  1.1218 -0.2806
  505TIP3   OH225709   0.206   6.644  19.107 -0.3646 -0.0062 -0.1540
  505TIP3    H125710   0.114   6.643  19.079 -0.3414  0.9769 -0.2752
  505TIP3    H225711   0.253   6.601  19.035 -0.9129 -2.2210  0.7102
  506TIP3   OH225712   2.892   1.388  18.148 -0.4056  0.2821 -0.0237
  506TIP3    H125713   2.884   1.377  18.053 -0.3352 -1.2703  0.1304
  506TIP3    H225714   2.802   1.379  18.181 -0.4063  0.6599  0.0895
  507TIP3   OH225715   3.872   3.660  18.633  0.4731  0.3161  0.1411
  507TIP3    H125716   3.842   3.717  18.705  1.7042  0.3176  0.6865
  507TIP3    H225717   3.940   3.606  18.673  1.6741  0.7999 -1.1977
  508TIP3   OH225718   5.848   2.564  17.350 -0.2845  0.2049 -0.0623
  508TIP3    H125719   5.895   2.498  17.301 -2.0281 -0.8200 -0.4446
  508TIP3    H225720   5.886   2.561  17.438 -0.1153 -1.0892 -0.1632
  509TIP3   OH225721   5.561   1.628  18.923  0.0864  0.0850 -0.1508
  509TIP3    H125722   5.575   1.584  19.007 -1.8024  1.5855  1.0344
  509TIP3    H225723   5.588   1.718  18.938 -1.0735  0.5788 -0.8642
  510TIP3   OH225724   0.824   1.789  19.222  0.1524  0.1132  0.0375
  510TIP3    H125725   0.845   1.705  19.182  1.0187  0.9994 -1.4396
  510TIP3    H225726   0.852   1.779  19.314 -0.6327 -1.4929  0.1349
  511TIP3   OH225727   5.519   2.147  18.172 -0.9046 -0.3481  0.3708
  511TIP3    H125728   5.468   2.097  18.236 -0.4589 -1.2072  0.0638
  511TIP3    H225729   5.578   2.200  18.226  0.2175 -1.8571  0.6834
  512TIP3   OH225730   0.487   6.140  17.363 -0.2313  1.0128  0.0435
  512TIP3    H125731   0.394   6.117  17.366 -0.2157  0.7826 -0.7679
  512TIP3    H225732   0.491   6.229  17.398 -0.8141  1.1615 -0.2450
  513TIP3   OH225733   5.909   2.749  18.300  0.1506  0.3023 -0.4912
  513TIP3    H125734   5.857   2.701  18.236 -0.6332 -0.1542  0.4775
  513TIP3    H225735   5.952   2.681  18.352  1.1044  0.6709 -0.7713
  514TIP3   OH225736   0.305   1.238  18.196  0.3144 -0.6482  0.0169
  514TIP3    H125737   0.398   1.214  18.191  0.8977  1.3611  0.3540
  514TIP3    H225738   0.261   1.156  18.217  1.9645 -1.7310 -0.4930
  515TIP3   OH225739   3.891   6.872  19.501 -0.0109 -0.4098  0.4562
  515TIP3    H125740   3.824   6.835  19.443 -0.0460 -0.1188  0.3104
  515TIP3    H225741   3.859   6.854  19.589 -0.2250 -0.3705  0.3867
  516TIP3   OH225742   4.790   3.395  18.919 -0.1331  0.2065 -0.8994
  516TIP3    H125743   4.736   3.406  18.997  0.4644 -0.8210 -0.3252
  516TIP3    H225744   4.858   3.461  18.927  0.1759 -0.1725 -0.3233
  517TIP3   OH225745   2.128   1.716  19.478  0.6261 -0.1367 -0.0877
  517TIP3    H125746   2.200   1.732  19.416  0.8275  5.2218  1.0275
  517TIP3    H225747   2.165   1.737  19.563 -1.5210 -0.2058  0.9099
  518TIP3   OH225748   2.338   4.238  17.531 -0.2959 -0.1662  0.0889
  518TIP3    H125749   2.314   4.249  17.439  1.6157 -0.1506 -0.4435
  518TIP3    H225750   2.409   4.301  17.545  1.9425 -2.6053  0.5424
  519TIP3   OH225751   0.877   2.358  17.544  0.2299  0.0209 -0.0564
  519TIP3    H125752   0.827   2.424  17.593 -0.2271 -1.2654  1.2969
  519TIP3    H225753   0.968   2.378  17.562  0.0964  0.3969  0.2119
  520TIP3   OH225754   0.096   6.540  18.149 -0.8505  0.1535  0.8226
  520TIP3    H125755   0.097   6.487  18.070 -1.1191  1.0804  0.1930
  520TIP3    H225756   0.013   6.587  18.146 -0.0275  1.6416  0.6764
  521TIP3   OH225757   4.912   2.231  18.246  0.3499  0.0590 -0.0689
  521TIP3    H125758   4.989   2.265  18.200  0.5861 -1.2184 -0.6721
  521TIP3    H225759   4.844   2.296  18.228  1.3547  1.4331  0.8220
  522TIP3   OH225760   1.535   0.108  19.211  0.3766 -0.0213  0.4809
  522TIP3    H125761   1.604   0.042  19.203  1.6174  1.3580 -0.5564
  522TIP3    H225762   1.485   0.101  19.130 -0.8188 -1.0939  1.2787
  523TIP3   OH225763   6.841   5.495  18.889  1.0060 -0.2814 -0.4123
  523TIP3    H125764   6.933   5.501  18.863  1.0440  1.1284 -0.0465
  523TIP3    H225765   6.843   5.499  18.985  0.5288  0.5828 -0.4297
  524TIP3   OH225766   0.938   7.348  17.631 -0.0924  0.2846 -0.2111
  524TIP3    H125767   0.959   7.350  17.537  0.5198  0.2518 -0.0805
  524TIP3    H225768   0.862   7.404  17.640  0.0288  0.5307 -0.6897
  525TIP3   OH225769   3.848   3.985  18.170  0.4794  0.0962  0.1998
  525TIP3    H125770   3.899   3.983  18.250  0.4159  1.6737  0.3060
  525TIP3    H225771   3.906   3.947  18.104  0.1910 -2.0965  1.1372
  526TIP3   OH225772   4.842   4.896  17.775  0.0216 -0.2285  0.0673
  526TIP3    H125773   4.914   4.835  17.764  0.9011  0.7533  0.2379
  526TIP3    H225774   4.799   4.867  17.856  0.6491 -0.3930  0.3456
  527TIP3   OH225775   3.660   2.703  18.814  0.5495  0.6040  0.1321
  527TIP3    H125776   3.637   2.743  18.730  1.3612 -1.6322 -1.2425
  527TIP3    H225777   3.650   2.609  18.799  3.6979 -0.0706  1.5721
  528TIP3   OH225778   7.439   5.340  19.546  0.2094 -0.4081 -0.1652
  528TIP3    H125779   7.481   5.398  19.483  1.4595  1.5880  2.2981
  528TIP3    H225780   7.378   5.395  19.594 -0.3579 -1.7099  0.6865
  529TIP3   OH225781   4.610   2.675  17.549  0.1700 -0.2311 -0.5034
  529TIP3    H125782   4.558   2.755  17.545  0.5523  0.0724  0.3324
  529TIP3    H225783   4.564   2.620  17.612  1.6996  0.7090  1.5608
  530TIP3   OH225784   5.544   1.186  17.455 -0.2118 -0.1089 -0.3014
  530TIP3    H125785   5.531   1.099  17.492 -4.0769 -0.2068 -1.4117
  530TIP3    H225786   5.577   1.239  17.527 -0.2383 -1.9368  1.1031
  531TIP3   OH225787   2.605   4.567  18.360  0.1045 -0.2588  0.5344
  531TIP3    H125788   2.573   4.532  18.443 -1.6418 -0.0809 -0.0211
  531TIP3    H225789   2.623   4.490  18.306 -0.0029 -0.3597  0.6422
  532TIP3   OH225790   3.366   7.632  18.142 -0.0088 -0.4737  0.0239
  532TIP3    H125791   3.358   7.727  18.154 -0.1560 -0.5339  0.4086
  532TIP3    H225792   3.284   7.597  18.176  0.2578 -0.7830  0.3510
  533TIP3   OH225793   6.237   5.068  17.228  1.0973  0.2958 -0.3786
  533TIP3    H125794   6.152   5.083  17.187  1.0680  0.1672 -0.3638
  533TIP3    H225795   6.216   5.044  17.318  0.9672 -2.5942 -1.0616
  534TIP3   OH225796   4.245   0.771  18.864  0.1860  0.0902  0.1360
  534TIP3    H125797   4.246   0.711  18.939  1.2905  1.3074  1.1415
  534TIP3    H225798   4.158   0.760  18.826  0.2969 -2.0149  0.3672
  535TIP3   OH225799   7.087   2.659  18.021  0.0364  0.6714  0.2358
  535TIP3    H125800   7.012   2.719  18.021  0.5279  1.3289  1.3710
  535TIP3    H225801   7.111   2.651  18.114 -1.4962 -3.2065  0.5000
  536TIP3   OH225802   5.757   4.248  18.027  0.1667  0.5769 -0.0870
  536TIP3    H125803   5.715   4.167  18.057 -0.5653  0.7029 -0.7247
  536TIP3    H225804   5.739   4.311  18.097  2.0626 -0.1784  1.1393
  537TIP3   OH225805   5.684   7.374  17.129  0.9970 -0.4795  0.1733
  537TIP3    H125806   5.704   7.284  17.155  0.6552 -0.4213  0.6556
  537TIP3    H225807   5.768   7.412  17.107  1.4147 -0.2993  1.9543
  538TIP3   OH225808   0.361   5.842  19.332 -0.0975  0.3788  0.5208
  538TIP3    H125809   0.281   5.835  19.385  0.3313  0.8649  1.2553
  538TIP3    H225810   0.428   5.799  19.385  0.2617  0.5519  0.2066
  539TIP3   OH225811   3.634   1.808  19.291 -0.3811 -0.3722  0.3046
  539TIP3    H125812   3.613   1.789  19.199  0.5336 -0.1474  0.0375
  539TIP3    H225813   3.556   1.852  19.325 -1.0595 -1.2077 -0.1196
  540TIP3   OH225814   0.716   3.262  18.469  0.0504  0.0088 -0.3613
  540TIP3    H125815   0.681   3.300  18.549  0.1265 -2.0299  0.7018
  540TIP3    H225816   0.800   3.307  18.456  0.3808 -0.1212  1.1204
  541TIP3   OH225817   7.329   4.520  19.154 -0.0730  0.1529  0.0857
  541TIP3    H125818   7.265   4.534  19.225  0.0470  1.0111  0.0357
  541TIP3    H225819   7.280   4.473  19.087 -0.4689  0.2171  0.3227
  542TIP3   OH225820   6.225   2.818  17.732 -0.4813 -1.0790  0.2180
  542TIP3    H125821   6.316   2.824  17.700 -1.0882  0.7694 -1.3688
  542TIP3    H225822   6.187   2.747  17.681 -0.3682 -0.7276 -0.3731
  543TIP3   OH225823   2.212   3.765  17.031 -0.1314  0.2328  0.2670
  543TIP3    H125824   2.249   3.679  17.052  0.6682 -0.0075 -1.8501
  543TIP3    H225825   2.125   3.764  17.070  0.2438 -1.1512  1.1281
  544TIP3   OH225826   4.885   0.609  18.603 -0.1363 -0.5813 -0.0485
  544TIP3    H125827   4.867   0.672  18.533 -0.1582 -0.7914 -0.2333
  544TIP3    H225828   4.848   0.526  18.571 -2.4595 -0.1588  1.2659
  545TIP3   OH225829   5.725   0.801  18.120  0.4991 -0.0200 -0.0025
  545TIP3    H125830   5.807   0.755  18.104  0.1866 -0.2931 -0.8745
  545TIP3    H225831   5.751   0.887  18.154  1.1163 -0.3924  0.4808
  546TIP3   OH225832   6.208   2.224  18.086  0.3318 -0.0235 -0.6928
  546TIP3    H125833   6.262   2.232  18.007  1.3143 -0.0183 -0.0392
  546TIP3    H225834   6.174   2.312  18.101  3.2248  0.9543  0.9860
  547TIP3   OH225835   5.327   7.192  18.538 -0.0498  0.1808  0.5144
  547TIP3    H125836   5.275   7.191  18.457  0.6124  1.2003  0.0413
  547TIP3    H225837   5.292   7.121  18.591 -1.1979  0.1630 -0.2381
  548TIP3   OH225838   5.610   5.921  17.742  0.0734  0.4297 -0.4394
  548TIP3    H125839   5.667   5.857  17.786 -0.7673  0.0996  0.1875
  548TIP3    H225840   5.542   5.868  17.700 -0.6795  0.9110  0.1585
  549TIP3   OH225841   6.598   3.401  18.653 -0.1928  0.2344  0.2984
  549TIP3    H125842   6.525   3.363  18.701 -0.2107 -0.4008 -0.2263
  549TIP3    H225843   6.674   3.389  18.710 -0.2676 -0.2499  0.2988
  550TIP3   OH225844   2.095   3.065  19.180  0.4740 -0.0673  0.6795
  550TIP3    H125845   2.071   3.004  19.111  1.2368  1.1321 -0.6859
  550TIP3    H225846   2.187   3.045  19.199  0.8555  0.9338 -0.0847
  551TIP3   OH225847   0.548   4.945  18.922  0.0561 -0.0121  0.1246
  551TIP3    H125848   0.558   4.861  18.966 -1.2581  1.3715  3.3867
  551TIP3    H225849   0.613   5.002  18.963 -1.8955  1.6090  1.1586
  552TIP3   OH225850   6.836   2.158  18.371 -0.0953 -0.0517  0.0530
  552TIP3    H125851   6.742   2.139  18.373 -0.2595  0.1825 -2.4166
  552TIP3    H225852   6.854   2.179  18.279  2.3706 -0.0625  0.4745
  553TIP3   OH225853   2.809   1.816  19.649 -0.0516  0.0062  0.1999
  553TIP3    H125854   2.757   1.755  19.702 -1.6566  0.5572 -0.6609
  553TIP3    H225855   2.862   1.760  19.593 -0.0092 -0.5849  0.8159
  554TIP3   OH225856   0.079   5.883  18.761  0.0624  0.4068  0.4129
  554TIP3    H125857   0.019   5.839  18.820 -1.0394  2.1642  0.6889
  554TIP3    H225858   0.049   5.860  18.674  1.1857 -1.5249  0.4789
  555TIP3   OH225859   7.190   7.319  17.796 -0.1838 -0.0459  0.0475
  555TIP3    H125860   7.185   7.354  17.707 -0.0487 -0.2837 -0.0525
  555TIP3    H225861   7.189   7.397  17.852 -1.2708  0.0759 -0.1137
  556TIP3   OH225862   0.860   6.372  19.002 -0.1893  0.5702 -0.7229
  556TIP3    H125863   0.787   6.429  18.976  0.9528  1.9943 -0.9366
  556TIP3    H225864   0.819   6.301  19.051 -1.5874  2.1749  0.5744
  557TIP3   OH225865   3.993   4.284  18.626  0.4115 -0.8579  0.4626
  557TIP3    H125866   3.958   4.198  18.649 -0.3152 -0.6573  0.1232
  557TIP3    H225867   3.987   4.288  18.531 -0.8252  0.0875  0.5517
  558TIP3   OH225868   3.255   4.779  18.110  0.9646  0.1654  0.2284
  558TIP3    H125869   3.183   4.803  18.169 -0.0394 -3.0137  0.4852
  558TIP3    H225870   3.333   4.787  18.164  0.1638 -1.7194  1.7668
  559TIP3   OH225871   7.141   1.248  17.022  0.0740 -0.1555  0.4511
  559TIP3    H125872   7.150   1.223  17.114  1.3533  0.0286  0.3968
  559TIP3    H225873   7.219   1.301  17.005  0.8262 -1.7080 -1.2334
  560TIP3   OH225874   4.941   3.125  17.831  0.4237 -0.3271 -0.1949
  560TIP3    H125875   4.911   3.083  17.750  1.1007  1.2445 -1.3012
  560TIP3    H225876   4.943   3.218  17.810  0.4090  0.1380  1.7247
  561TIP3   OH225877   3.932   0.964  17.210 -0.0919 -0.0503  0.1714
  561TIP3    H125878   4.019   0.992  17.182 -0.0176  0.8995  1.2738
  561TIP3    H225879   3.872   1.025  17.167 -0.0602  0.6004  1.0245
  562TIP3   OH225880   5.032   3.456  17.206 -0.4925  0.4323 -0.0695
  562TIP3    H125881   5.106   3.514  17.188 -0.2141 -0.1204 -0.7798
  562TIP3    H225882   4.997   3.435  17.119 -0.3748 -0.7281  0.1470
  563TIP3   OH225883   5.106   2.123  19.316  0.0556  0.1587 -0.8543
  563TIP3    H125884   5.092   2.143  19.409  1.5215 -0.0271 -0.5716
  563TIP3    H225885   5.018   2.116  19.280 -0.5406  0.8888  0.3801
  564TIP3   OH225886   6.655   4.483  18.020 -0.0924  0.0721 -0.0705
  564TIP3    H125887   6.712   4.559  18.034 -0.8974  0.5213  0.8604
  564TIP3    H225888   6.609   4.472  18.104 -0.0736 -1.3749 -0.2226
  565TIP3   OH225889   2.131   4.975  18.357  0.0313  0.5378 -0.0474
  565TIP3    H125890   2.149   5.061  18.395 -1.7451  0.6930  0.5354
  565TIP3    H225891   2.173   4.913  18.418 -1.1467  0.8797  1.1616
  566TIP3   OH225892   3.487   0.316  17.628 -0.1275  0.0836 -0.1488
  566TIP3    H125893   3.556   0.359  17.678 -0.1454  0.3874 -0.3895
  566TIP3    H225894   3.502   0.341  17.537 -1.4293  1.3647 -0.0485
  567TIP3   OH225895   6.995   1.120  17.759  0.0478 -0.2678 -0.3910
  567TIP3    H125896   7.037   1.038  17.733  0.9275 -1.0816  3.0754
  567TIP3    H225897   7.052   1.155  17.828 -1.8391  1.7153  0.2627
  568TIP3   OH225898   7.306   5.730  18.695 -0.4845 -0.2991 -0.1982
  568TIP3    H125899   7.255   5.810  18.686 -0.7664 -0.4496  0.0476
  568TIP3    H225900   7.248   5.660  18.666 -0.5233 -0.5043  0.3591
  569TIP3   OH225901   4.976   6.391  19.647 -0.4238  0.1121  0.3439
  569TIP3    H125902   5.058   6.388  19.696 -0.2905 -0.1648  0.1082
  569TIP3    H225903   4.980   6.475  19.599 -0.2633  0.0839  0.3079
  570TIP3   OH225904   2.323   1.603  19.214 -0.2434  0.4983  0.3298
  570TIP3    H125905   2.372   1.631  19.291 -1.4730  2.2098  0.5560
  570TIP3    H225906   2.388   1.597  19.145  0.7039  0.0230  1.2328
  571TIP3   OH225907   6.979   1.592  19.578 -0.0175  0.1902 -0.0980
  571TIP3    H125908   6.914   1.662  19.575  0.4542  0.6086 -1.0227
  571TIP3    H225909   7.062   1.636  19.562  0.3008 -0.5544 -0.5627
  572TIP3   OH225910   7.196   6.974  17.654 -0.0280  0.1442  0.0316
  572TIP3    H125911   7.133   6.990  17.725  0.1634  2.7929 -0.3011
  572TIP3    H225912   7.280   7.004  17.689  0.3685  0.0071 -0.7849
  573TIP3   OH225913   2.738   3.939  18.267  0.6894  0.7645  0.4733
  573TIP3    H125914   2.807   3.917  18.330  0.2906  0.8448  0.9463
  573TIP3    H225915   2.680   3.999  18.315 -0.8514 -0.9142  0.7971
  574TIP3   OH225916   5.007   1.434  17.315  0.1684 -0.3154  0.0426
  574TIP3    H125917   5.069   1.504  17.335 -0.5282  0.1974  0.4862
  574TIP3    H225918   4.944   1.475  17.255  0.2916 -0.8421 -0.4487
  575TIP3   OH225919   5.503   0.132  16.870 -0.1314  0.0819  0.3754
  575TIP3    H125920   5.510   0.208  16.928  1.2659 -0.5219  1.0419
  575TIP3    H225921   5.579   0.078  16.891 -0.6487 -1.1161 -0.6617
  576TIP3   OH225922   0.036   0.092  19.040 -0.2546 -0.4961 -0.3331
  576TIP3    H125923  -0.045   0.108  18.992  0.8723 -0.3188 -2.3200
  576TIP3    H225924   0.092   0.166  19.018  0.2543 -0.2868  1.5116
  577TIP3   OH225925   7.676   6.991  19.732 -0.4178 -0.1107  0.8578
  577TIP3    H125926   7.621   6.938  19.790  0.1504  1.2701  2.7384
  577TIP3    H225927   7.616   7.057  19.696 -0.1030  1.2572  2.7346
  578TIP3   OH225928   2.196   0.021  19.428 -0.2941 -0.0788  0.5459
  578TIP3    H125929   2.124   0.033  19.366  0.4395  0.6525 -0.1803
  578TIP3    H225930   2.176  -0.062  19.472 -0.7287 -0.7132 -0.8047
  579TIP3   OH225931   2.995   6.785  18.103 -0.3619  0.1449 -0.0470
  579TIP3    H125932   3.043   6.706  18.127 -3.1115 -1.1576  1.4992
  579TIP3    H225933   2.903   6.762  18.111 -1.3144  2.9661 -1.4382
  580TIP3   OH225934   5.245   5.017  18.894  0.3814 -0.3878 -0.2078
  580TIP3    H125935   5.229   5.090  18.835  0.1169  2.6718  3.3146
  580TIP3    H225936   5.159   4.977  18.906  0.0857  0.1701 -0.4313
  581TIP3   OH225937   5.181   5.215  18.704  0.1891 -0.5340 -0.1111
  581TIP3    H125938   5.139   5.300  18.690 -0.3280 -0.6469  0.6711
  581TIP3    H225939   5.181   5.174  18.618 -3.3238 -1.4113  0.1475
  582TIP3   OH225940   3.183   7.258  17.002  0.6933 -0.2132  0.2100
  582TIP3    H125941   3.190   7.164  16.985 -1.8746 -0.9843  2.6301
  582TIP3    H225942   3.098   7.283  16.966  0.5240  0.7265  1.1966
  583TIP3   OH225943   2.528   3.486  17.661 -0.0950  0.0252  0.0325
  583TIP3    H125944   2.592   3.506  17.730 -0.7394  0.7641  0.4305
  583TIP3    H225945   2.578   3.495  17.580  0.0802  1.5937  0.2867
  584TIP3   OH225946   0.263   2.066  18.294 -0.2506 -0.0932 -0.3807
  584TIP3    H125947   0.285   2.013  18.217  1.8670  0.8083 -0.4700
  584TIP3    H225948   0.345   2.111  18.316 -1.3195  1.1805  1.2181
  585TIP3   OH225949   1.637   2.236  18.535  0.4954  0.0006  0.2214
  585TIP3    H125950   1.722   2.272  18.510 -0.1983  1.5710 -0.0164
  585TIP3    H225951   1.602   2.298  18.599  0.1525 -1.4145  1.4583
  586TIP3   OH225952   0.321   3.168  17.746  0.3361  0.3468  0.1049
  586TIP3    H125953   0.322   3.226  17.822  0.0535  1.0017 -0.3857
  586TIP3    H225954   0.348   3.223  17.673  0.7436 -0.3128 -0.2532
  587TIP3   OH225955   5.205   4.319  17.230 -0.0337  0.5712  0.4398
  587TIP3    H125956   5.154   4.306  17.310 -1.1018 -0.8816 -0.4267
  587TIP3    H225957   5.295   4.300  17.256 -0.6255 -1.9284  0.8998
  588TIP3   OH225958   7.236   5.441  16.962 -0.0104 -0.2858  0.1098
  588TIP3    H125959   7.183   5.519  16.978 -1.7822 -0.8834 -2.3396
  588TIP3    H225960   7.284   5.461  16.882 -1.6639 -2.1561 -1.4670
  589TIP3   OH225961   5.554   2.363  18.732  0.2074 -0.1107 -0.2868
  589TIP3    H125962   5.561   2.440  18.788  0.7022  0.4548 -1.1081
  589TIP3    H225963   5.589   2.391  18.647  1.3275 -1.5012 -0.3377
  590TIP3   OH225964   6.478   0.735  19.794 -0.1319  0.5461  0.3129
  590TIP3    H125965   6.420   0.678  19.743  0.8165 -0.3851  0.2567
  590TIP3    H225966   6.433   0.745  19.878 -1.6459  1.9849 -0.5986
  591TIP3   OH225967   7.046   0.969  18.171 -0.1456  0.2073 -0.2253
  591TIP3    H125968   6.977   1.025  18.207  0.0538  1.1745 -1.3081
  591TIP3    H225969   7.019   0.881  18.194 -1.2413  0.6387  0.2230
  592TIP3   OH225970   3.181   4.577  18.985 -0.0500  0.6158 -0.3817
  592TIP3    H125971   3.150   4.650  19.039  0.2957  0.5010 -0.0288
  592TIP3    H225972   3.164   4.606  18.895 -0.8220  0.7180 -0.2126
  593TIP3   OH225973   4.302   0.003  18.553  0.6244 -0.1854  0.2489
  593TIP3    H125974   4.236  -0.062  18.576  0.4299  0.1449  0.6304
  593TIP3    H225975   4.380  -0.048  18.531  0.3124 -0.5662  0.0153
  594TIP3   OH225976   6.735   7.251  19.066 -0.2551 -0.0758 -0.6884
  594TIP3    H125977   6.708   7.256  19.157  2.6488 -1.7006  0.4049
  594TIP3    H225978   6.759   7.341  19.043 -0.3532  0.2417  0.4001
  595TIP3   OH225979   3.845   6.097  19.158 -0.6148  0.1696 -0.4293
  595TIP3    H125980   3.866   6.066  19.070  0.9438 -0.8025  0.2399
  595TIP3    H225981   3.914   6.162  19.177 -0.8241  0.2324  0.1351
  596TIP3   OH225982   2.119   0.556  19.056 -0.0087  0.1555  0.9563
  596TIP3    H125983   2.089   0.487  19.116  0.9536 -0.5702  0.6358
  596TIP3    H225984   2.043   0.614  19.046 -1.4869 -1.8372 -0.1674
  597TIP3   OH225985   3.221   7.626  18.682 -0.4510 -1.1435 -0.0623
  597TIP3    H125986   3.248   7.687  18.613  0.2537 -0.2405  0.9655
  597TIP3    H225987   3.298   7.618  18.738 -1.0095 -1.8519  0.6298
  598TIP3   OH225988   5.488   5.238  19.047  0.0169  0.3584 -0.1494
  598TIP3    H125989   5.562   5.266  19.101 -0.5326 -1.7539  1.8127
  598TIP3    H225990   5.529   5.192  18.974  0.6740  0.0167  0.4222
  599TIP3   OH225991   3.242   5.998  17.218 -0.6551 -0.2052  0.0447
  599TIP3    H125992   3.264   6.082  17.258  0.4822 -0.4102 -0.1266
  599TIP3    H225993   3.203   5.948  17.289  0.2161 -0.1224  0.5991
  600TIP3   OH225994   7.629   7.183  17.955 -0.3114  0.2013 -0.0362
  600TIP3    H125995   7.694   7.179  18.024 -0.2385 -0.1935 -0.1226
  600TIP3    H225996   7.545   7.181  18.001 -0.2840  1.6440  0.1277
  601TIP3   OH225997   5.046   6.209  19.451  0.1555  0.4639 -0.2179
  601TIP3    H125998   4.995   6.221  19.531  1.1691 -0.2598  0.5680
  601TIP3    H225999   5.047   6.114  19.438  2.3194  0.3128  0.5285
  602TIP3   OH226000   5.484   2.059  19.128 -0.2488  0.0298  0.3756
  602TIP3    H126001   5.539   2.058  19.050 -1.3273  1.4584 -0.4546
  602TIP3    H226002   5.415   2.122  19.108 -1.9468 -1.3511  1.5429
  603TIP3   OH226003   2.334   7.357  17.625  0.4794  0.7471 -0.6569
  603TIP3    H126004   2.336   7.281  17.567  0.5722 -0.7953  1.2595
  603TIP3    H226005   2.265   7.413  17.589  0.8186  0.0754 -2.4572
  604TIP3   OH226006   6.435   5.055  18.020  0.3789  0.2432 -0.0722
  604TIP3    H126007   6.521   5.048  17.978  0.5481 -1.5606  0.4612
  604TIP3    H226008   6.455   5.073  18.112  0.0298  3.5463 -0.5482
  605TIP3   OH226009   4.608   1.556  18.123 -0.4813 -0.1666 -0.5170
  605TIP3    H126010   4.668   1.595  18.060  0.9997  0.1845  1.0565
  605TIP3    H226011   4.650   1.475  18.150 -0.9456 -0.1656  0.2507
  606TIP3   OH226012   6.825   5.629  18.621 -0.0520 -0.1670 -0.0387
  606TIP3    H126013   6.811   5.590  18.707 -0.9990 -0.9514 -0.5335
  606TIP3    H226014   6.813   5.723  18.635 -1.4774 -0.4019  0.4474
  607TIP3   OH226015   5.208   3.603  18.527 -0.2298  0.3356  0.0403
  607TIP3    H126016   5.255   3.673  18.573 -0.0298  0.8284 -0.8795
  607TIP3    H226017   5.144   3.650  18.473 -1.3431 -0.2945  0.7804
  608TIP3   OH226018   3.227   3.574  18.980 -0.1274 -0.2624  0.0421
  608TIP3    H126019   3.252   3.581  18.888 -0.4288 -2.7969 -0.3107
  608TIP3    H226020   3.134   3.595  18.982 -0.3715 -1.2383 -0.4420
  609TIP3   OH226021   2.785   5.357  18.748  0.1474 -0.9252 -0.7750
  609TIP3    H126022   2.863   5.313  18.779  1.2303 -0.3745 -2.5677
  609TIP3    H226023   2.757   5.307  18.671 -0.6354 -0.4988 -0.7848
  610TIP3   OH226024   4.274   1.239  17.198 -0.0831  0.4353 -0.2167
  610TIP3    H126025   4.289   1.303  17.268 -1.6752 -1.4616  2.0617
  610TIP3    H226026   4.360   1.201  17.181  0.3227  0.7670  0.9758
  611TIP3   OH226027   5.532   5.716  16.968 -0.1816 -0.1564 -0.0786
  611TIP3    H126028   5.480   5.645  16.930 -0.7310  0.4438 -0.4844
  611TIP3    H226029   5.607   5.725  16.909 -0.1793 -0.3085 -0.1008
  612TIP3   OH226030   1.541   4.594  18.556 -0.6165  0.3946  0.6218
  612TIP3    H126031   1.518   4.592  18.463  0.3435 -0.5619  0.3824
  612TIP3    H226032   1.527   4.505  18.586  1.8545 -0.0452  0.6548
  613TIP3   OH226033   4.445   1.285  19.426  0.2500 -0.4424  0.5801
  613TIP3    H126034   4.497   1.365  19.419  1.4607 -1.1258  1.5183
  613TIP3    H226035   4.500   1.216  19.390 -0.8100 -0.8702 -0.2800
  614TIP3   OH226036   6.067   0.964  18.398  0.1525 -0.5123  0.0792
  614TIP3    H126037   6.105   1.047  18.369 -1.4546 -0.3788 -1.9161
  614TIP3    H226038   6.078   0.905  18.323 -2.1211 -0.9004 -0.0087
  615TIP3   OH226039   5.758   3.062  17.296 -0.3575 -0.3131 -0.3105
  615TIP3    H126040   5.721   3.106  17.372 -0.5839 -1.5194  0.3111
  615TIP3    H226041   5.825   3.003  17.332 -0.7423 -1.1971 -0.9913
  616TIP3   OH226042   7.438   5.195  18.636  0.5092  0.4332 -0.0376
  616TIP3    H126043   7.428   5.100  18.637 -0.4864  0.5175 -0.7361
  616TIP3    H226044   7.475   5.214  18.549  0.6716  0.6913  0.0853
  617TIP3   OH226045   3.601   6.056  19.265 -0.3855  0.6514 -0.2565
  617TIP3    H126046   3.681   6.059  19.213  2.2273 -3.1311  2.9577
  617TIP3    H226047   3.550   5.983  19.229  0.9142 -1.2626  1.5800
  618TIP3   OH226048   0.846   1.555  16.999  0.2717 -0.2384 -0.2553
  618TIP3    H126049   0.850   1.509  17.083 -1.6307 -0.8313 -0.4474
  618TIP3    H226050   0.855   1.486  16.933  3.6523  0.4074 -0.6475
  619TIP3   OH226051   3.766   2.402  18.907 -0.0681  0.4022 -0.2532
  619TIP3    H126052   3.783   2.380  18.998  0.0035  0.9807 -0.1220
  619TIP3    H226053   3.811   2.335  18.856 -0.6272 -0.2821  0.1419
  620TIP3   OH226054   4.308   0.532  19.377  0.4585  0.1298  0.5413
  620TIP3    H126055   4.387   0.572  19.413  0.4662 -0.9964  1.8885
  620TIP3    H226056   4.323   0.438  19.384 -0.0493 -0.1395 -1.3931
  621TIP3   OH226057   4.734   2.385  16.992  0.0846 -0.2832  0.6926
  621TIP3    H126058   4.644   2.390  16.959  0.2408  0.0142  0.3038
  621TIP3    H226059   4.769   2.473  16.979  0.7986 -0.6821 -0.2288
  622TIP3   OH226060   6.306   1.746  19.462 -0.2460 -0.0540  1.0606
  622TIP3    H126061   6.384   1.801  19.468 -0.2947  0.0392  0.8600
  622TIP3    H226062   6.245   1.784  19.525 -0.1992 -0.0095  1.0783
  623TIP3   OH226063   5.654   5.111  18.813 -0.1995  0.3346 -0.2200
  623TIP3    H126064   5.652   5.163  18.732 -0.2548 -0.0495 -0.4684
  623TIP3    H226065   5.584   5.046  18.802 -0.5921  0.6432  0.3848
  624TIP3   OH226066   3.632   4.537  18.929  0.1122 -0.0790  0.2775
  624TIP3    H126067   3.588   4.592  18.864  0.8726  0.1463 -0.0548
  624TIP3    H226068   3.703   4.495  18.881 -0.7170 -1.7194  0.4088
  625TIP3   OH226069   4.799   1.904  18.874 -0.3922  0.1711 -0.3209
  625TIP3    H126070   4.872   1.965  18.867 -0.7667  0.5326 -1.2166
  625TIP3    H226071   4.799   1.877  18.965  1.2055 -0.2594 -0.4216
  626TIP3   OH226072   4.086   0.630  18.225  0.4531  0.0671 -0.1737
  626TIP3    H126073   4.062   0.567  18.292  1.2949 -0.5980 -0.4802
  626TIP3    H226074   4.152   0.586  18.172  0.0810  0.7043 -1.2231
  627TIP3   OH226075   3.880   5.884  17.638 -0.0570  0.7009 -0.4199
  627TIP3    H126076   3.853   5.966  17.680 -2.9938  0.8326 -2.2203
  627TIP3    H226077   3.937   5.911  17.566  0.8030  0.9314  0.3381
  628TIP3   OH226078   4.424   0.469  16.978  0.0091  0.1957 -0.4937
  628TIP3    H126079   4.493   0.530  16.951 -1.8334  2.3168 -0.7536
  628TIP3    H226080   4.455   0.431  17.060  1.0012  1.9340 -0.0229
  629TIP3   OH226081   6.098   4.475  16.799 -0.1389 -0.2789 -0.6099
  629TIP3    H126082   6.006   4.498  16.801 -0.1520 -0.3938  0.0881
  629TIP3    H226083   6.144   4.559  16.807 -0.1504 -0.4329  4.8957
  630TIP3   OH226084   7.168   2.502  19.185  0.6624  0.2114  0.0168
  630TIP3    H126085   7.116   2.482  19.263 -2.7531  1.8615 -1.6079
  630TIP3    H226086   7.185   2.596  19.192 -0.4650  0.5616 -1.5872
  631TIP3   OH226087   1.326   0.098  17.763  0.9924 -0.0729  0.1366
  631TIP3    H126088   1.293   0.146  17.839  0.7446 -1.5991  1.0251
  631TIP3    H226089   1.248   0.061  17.722  1.3157 -1.2916  0.5804
  632TIP3   OH226090   4.600   0.812  19.678 -0.1175 -0.0905  0.6666
  632TIP3    H126091   4.695   0.818  19.671 -0.0956  1.2935  1.6754
  632TIP3    H226092   4.569   0.901  19.661 -1.0684 -0.0659  2.2743
  633TIP3   OH226093   6.333   4.648  17.895 -0.4546 -0.4223  0.1854
  633TIP3    H126094   6.298   4.577  17.949  1.0921 -0.0975  1.7049
  633TIP3    H226095   6.322   4.727  17.949 -0.0596  0.1179 -0.5113
  634TIP3   OH226096   3.327   0.602  19.353 -0.7943  0.0080 -0.1844
  634TIP3    H126097   3.352   0.694  19.343  2.4278 -0.5333  1.4469
  634TIP3    H226098   3.392   0.554  19.302 -2.1888 -1.4380 -0.6958
  635TIP3   OH226099   7.522   7.252  18.721 -0.1789 -0.4225  0.7785
  635TIP3    H126100   7.458   7.261  18.792 -0.5904  3.3134  0.1328
  635TIP3    H226101   7.606   7.245  18.766 -0.6826 -1.7962  1.5945
  636TIP3   OH226102   0.645   6.666  17.426  0.0988  0.2382  0.4169
  636TIP3    H126103   0.698   6.742  17.405  0.9822 -0.5467 -0.2349
  636TIP3    H226104   0.704   6.608  17.474 -0.0480 -0.8025 -0.6256
  637TIP3   OH226105   2.253   3.949  17.360  0.1089  0.2326 -0.3876
  637TIP3    H126106   2.284   4.036  17.387  0.5931  0.8900 -2.8591
  637TIP3    H226107   2.186   3.967  17.295 -0.6802 -1.2635 -0.0185
  638TIP3   OH226108   6.966   0.427  19.524 -0.1854  0.1454 -0.2123
  638TIP3    H126109   7.021   0.349  19.536 -0.7167 -0.0574  1.1664
  638TIP3    H226110   6.973   0.448  19.431  2.4539  0.3195 -0.0278
  639TIP3   OH226111   5.854   3.527  18.483 -0.0185 -0.1340  0.5728
  639TIP3    H126112   5.769   3.568  18.464  0.0122 -0.1061  0.4947
  639TIP3    H226113   5.864   3.460  18.415  0.0035 -0.1655  0.6066
  640TIP3   OH226114   6.341   5.545  17.636 -0.3675  0.4490  0.0992
  640TIP3    H126115   6.436   5.534  17.649 -0.4692 -2.5345 -1.0073
  640TIP3    H226116   6.304   5.534  17.724  0.2749  1.6815  0.5493
  641TIP3   OH226117   6.082   1.805  18.281  0.9509  0.0741 -0.3664
  641TIP3    H126118   6.099   1.749  18.206 -1.3499 -0.5316 -0.5359
  641TIP3    H226119   6.128   1.763  18.353  1.9676 -0.1727 -1.1449
  642TIP3   OH226120   3.591   1.831  17.347 -0.4570  0.0151 -0.2059
  642TIP3    H126121   3.518   1.885  17.317 -0.3548  0.4922  0.4018
  642TIP3    H226122   3.606   1.858  17.437 -0.5819 -1.2177  0.2062
  643TIP3   OH226123   1.138   6.705  18.432  0.1025  0.4376  0.1911
  643TIP3    H126124   1.162   6.736  18.520  0.6991  1.1445 -0.2108
  643TIP3    H226125   1.175   6.617  18.426  0.1431  0.4252  0.6054
  644TIP3   OH226126   3.782   5.649  17.769  0.0928 -0.1116  0.5686
  644TIP3    H126127   3.847   5.718  17.756  0.8484 -0.9186 -0.0883
  644TIP3    H226128   3.752   5.660  17.859 -1.3384  2.3557 -0.1228
  645TIP3   OH226129   2.661   6.007  16.856 -0.0404  0.2811 -0.7479
  645TIP3    H126130   2.655   5.915  16.882  0.1931  0.7414  1.1057
  645TIP3    H226131   2.623   6.054  16.930 -0.7374  1.6609 -1.9432
  646TIP3   OH226132   1.844   5.246  17.877  0.3861  0.5323  0.1105
  646TIP3    H126133   1.783   5.261  17.804 -0.6215 -0.9347  0.5977
  646TIP3    H226134   1.790   5.207  17.946  1.7052  0.0577  0.9131
  647TIP3   OH226135   6.999   1.166  18.974 -0.1826  0.1152  0.3329
  647TIP3    H126136   6.981   1.235  19.038 -0.0049  0.7978 -0.3313
  647TIP3    H226137   6.921   1.111  18.975 -1.9108  2.3041 -1.5790
  648TIP3   OH226138   4.278   6.283  18.018  0.0592 -0.3242 -0.3518
  648TIP3    H126139   4.334   6.354  18.050 -0.1900  0.2356 -1.1107
  648TIP3    H226140   4.280   6.293  17.922 -2.0357  0.2835 -0.3886
  649TIP3   OH226141   5.902   6.267  19.340  0.0420  0.6299 -0.2037
  649TIP3    H126142   5.885   6.233  19.253 -1.3370  2.5559 -0.7790
  649TIP3    H226143   5.908   6.190  19.396  0.7840 -0.6398 -1.9426
  650TIP3   OH226144   2.864   3.905  18.013 -0.6137 -0.5646  0.0608
  650TIP3    H126145   2.820   3.965  17.952  0.7400  1.5224  1.0215
  650TIP3    H226146   2.831   3.929  18.099  1.8811  0.7135  0.7562
  651TIP3   OH226147   7.600   3.634  18.069 -0.4199  0.0688  0.4228
  651TIP3    H126148   7.582   3.702  18.134  0.2606  1.3311 -0.6632
  651TIP3    H226149   7.516   3.618  18.028 -0.4385  0.8984  0.1090
  652TIP3   OH226150   3.218   1.097  19.657  0.2987  0.6468  0.6518
  652TIP3    H126151   3.276   1.055  19.721 -1.6390 -0.7155  1.6445
  652TIP3    H226152   3.270   1.105  19.578  0.9888 -3.4250  0.4757
  653TIP3   OH226153   5.120   4.387  19.560  0.1239 -0.3379  0.2473
  653TIP3    H126154   5.148   4.468  19.601 -0.3559  0.4002 -0.8315
  653TIP3    H226155   5.197   4.330  19.564  0.8517  0.6115 -0.0714
  654TIP3   OH226156   1.793   2.383  16.666  0.7949  0.0680  0.3104
  654TIP3    H126157   1.797   2.449  16.735  2.1753 -0.5479  0.8580
  654TIP3    H226158   1.877   2.390  16.621 -0.2114  0.7270 -1.6161
  655TIP3   OH226159   3.490   4.515  18.163 -0.1113  0.0110  0.5941
  655TIP3    H126160   3.492   4.610  18.175  0.3145  0.3132 -1.4475
  655TIP3    H226161   3.552   4.481  18.228 -0.8199  1.0397  1.8562
  656TIP3   OH226162   2.861   2.066  19.400 -0.3115 -0.5365 -0.0315
  656TIP3    H126163   2.801   2.106  19.463 -0.2469  0.6252 -0.6782
  656TIP3    H226164   2.939   2.044  19.452 -1.2004 -1.9499  0.7919
  657TIP3   OH226165   7.632   1.228  17.810  0.4979  0.6579  0.2769
  657TIP3    H126166   7.623   1.160  17.743  0.9291 -0.8607  1.6926
  657TIP3    H226167   7.711   1.276  17.786  0.9063 -0.1668 -0.0687
  658TIP3   OH226168   5.424   3.160  19.125 -0.3766  0.0086 -0.1911
  658TIP3    H126169   5.419   3.070  19.157  1.1234  0.4816  1.4756
  658TIP3    H226170   5.407   3.214  19.202  0.9289  1.1743 -0.6908
  659TIP3   OH226171   0.844   3.030  17.840 -0.3164 -0.1623  0.2197
  659TIP3    H126172   0.800   2.983  17.911 -0.8700 -0.6232 -0.4190
  659TIP3    H226173   0.776   3.088  17.805  0.1782  0.6518  0.5761
  660TIP3   OH226174   6.441   6.346  19.725  0.9648 -0.1692  0.2973
  660TIP3    H126175   6.402   6.351  19.812  0.6707  0.1364  0.1502
  660TIP3    H226176   6.366   6.345  19.665  1.1765  0.2615  0.0197
  661TIP3   OH226177   7.469   3.122  19.605  0.6875 -0.1895 -0.0310
  661TIP3    H126178   7.430   3.111  19.519 -0.2621 -2.5912  0.6259
  661TIP3    H226179   7.544   3.179  19.591 -0.0622  0.3244 -2.2417
  662TIP3   OH226180   4.882   5.996  19.209  0.4047  0.3147 -0.4411
  662TIP3    H126181   4.854   6.061  19.145  0.1090  0.9040  0.2754
  662TIP3    H226182   4.836   5.916  19.184 -1.0473  0.9796  0.0422
  663TIP3   OH226183   1.274   1.996  16.871 -0.2967  0.4451  0.1217
  663TIP3    H126184   1.206   1.965  16.811  1.1730 -0.4496 -1.1279
  663TIP3    H226185   1.252   2.089  16.884 -1.3540  0.3539 -0.7954
  664TIP3   OH226186   5.410   2.613  19.351  0.4457  0.4000 -0.0783
  664TIP3    H126187   5.461   2.555  19.295  0.2822  0.0698  0.1115
  664TIP3    H226188   5.325   2.570  19.359  0.5187  0.3636  0.5510
  665TIP3   OH226189   2.193   6.045  17.252 -0.1264 -0.0536 -0.2411
  665TIP3    H126190   2.108   6.048  17.208 -0.6250 -0.8446  0.6180
  665TIP3    H226191   2.202   5.954  17.280  0.5172  0.2593  0.6127
  666TIP3   OH226192   1.252   7.163  16.947  0.1442 -0.3331  0.2061
  666TIP3    H126193   1.185   7.097  16.964 -1.3957  1.7386  2.8975
  666TIP3    H226194   1.207   7.232  16.899  1.0907 -0.1391 -0.4226
  667TIP3   OH226195   4.185   1.762  17.092  0.2305  0.1159  0.0142
  667TIP3    H126196   4.243   1.697  17.133 -1.0087 -1.6674 -0.9363
  667TIP3    H226197   4.148   1.716  17.017 -0.8631  1.8904 -0.5662
  668TIP3   OH226198   6.410   5.327  17.412 -0.5733  0.1438 -0.2441
  668TIP3    H126199   6.389   5.233  17.404  0.4109 -0.0843 -0.2577
  668TIP3    H226200   6.345   5.370  17.356 -0.6139 -0.5855 -0.7795
  669TIP3   OH226201   6.613   3.030  18.218  0.3222 -0.3998 -0.2073
  669TIP3    H126202   6.615   3.122  18.191  0.6965 -0.6083 -0.9028
  669TIP3    H226203   6.569   2.984  18.146 -0.6294 -0.6524  0.5132
  670TIP3   OH226204   2.556   6.660  18.716 -0.0277  0.0642 -0.6223
  670TIP3    H126205   2.607   6.741  18.715 -1.1075  0.7698 -0.3033
  670TIP3    H226206   2.558   6.631  18.808  1.2529 -0.8829 -0.9197
  671TIP3   OH226207   6.732   6.235  18.462  0.0877 -0.1250  0.3346
  671TIP3    H126208   6.728   6.298  18.391 -1.0874  0.1278  0.6053
  671TIP3    H226209   6.673   6.164  18.436 -0.0746 -0.2024  0.8936
  672TIP3   OH226210   7.063   1.579  16.845  0.3285 -0.0747 -0.3547
  672TIP3    H126211   7.134   1.536  16.798  3.0684  0.2582  3.1035
  672TIP3    H226212   7.106   1.644  16.901 -2.8135  0.9784  1.0983
  673TIP3   OH226213   1.054   3.165  16.657  0.3111 -0.0505 -0.0258
  673TIP3    H126214   0.988   3.195  16.595 -1.2688 -0.9995  1.1331
  673TIP3    H226215   1.055   3.233  16.725  0.9877  0.2590 -0.3316
  674TIP3   OH226216   1.411   5.630  17.171  0.3406  0.1537  0.1847
  674TIP3    H126217   1.354   5.562  17.209  1.2638 -0.2394  0.8986
  674TIP3    H226218   1.420   5.695  17.240 -0.3102  0.8820 -0.4011
  675TIP3   OH226219   6.823   4.765  19.241 -0.4684 -0.0073  0.5612
  675TIP3    H126220   6.912   4.784  19.211 -0.8334 -0.4268 -0.8850
  675TIP3    H226221   6.835   4.723  19.326  0.8169 -1.3730 -0.2273
  676TIP3   OH226222   2.994   6.998  18.625 -0.1623  0.2616 -0.1030
  676TIP3    H126223   3.050   7.068  18.658 -1.4656  1.3904 -0.2027
  676TIP3    H226224   2.908   7.016  18.663 -1.0231 -0.0351 -1.8185
  677TIP3   OH226225   6.060   1.805  19.652 -0.1999  0.1404 -0.6842
  677TIP3    H126226   6.060   1.733  19.715 -1.4969  0.1538 -0.6454
  677TIP3    H226227   6.015   1.769  19.575 -0.1979  0.6825 -0.9377
  678TIP3   OH226228   6.601   0.665  17.041 -0.3736  0.1034 -0.6046
  678TIP3    H126229   6.669   0.599  17.030  0.6915  0.2298  3.6241
  678TIP3    H226230   6.520   0.615  17.054  0.0880 -0.3386  0.6719
  679TIP3   OH226231   4.894   7.627  18.531 -0.6202  0.6559  0.5211
  679TIP3    H126232   4.828   7.639  18.463 -2.0500 -2.1642  1.2338
  679TIP3    H226233   4.879   7.697  18.594 -1.4911  1.3193 -0.4106
  680TIP3   OH226234   4.349   4.421  19.400  0.7293 -0.2513 -0.1393
  680TIP3    H126235   4.384   4.381  19.479 -2.5503  0.0618  1.6155
  680TIP3    H226236   4.307   4.350  19.353  1.2099 -0.1252 -0.7776
  681TIP3   OH226237   4.316   1.360  16.968 -0.7776  0.0665  0.0721
  681TIP3    H126238   4.224   1.340  16.950 -0.8926  0.9687 -0.3688
  681TIP3    H226239   4.327   1.341  17.061 -0.9349 -1.7935 -0.2520
  682TIP3   OH226240   6.859   4.199  19.229  0.3160 -0.1769 -0.9899
  682TIP3    H126241   6.881   4.271  19.289  0.0408 -1.2634  0.4733
  682TIP3    H226242   6.938   4.188  19.176  1.3701 -0.4683  0.5411
  683TIP3   OH226243   1.066   0.620  18.128  0.1759 -0.1159 -0.2737
  683TIP3    H126244   1.135   0.575  18.178  0.8334  0.0587 -1.0036
  683TIP3    H226245   0.986   0.604  18.178  0.6401 -0.8566  0.2594
  684TIP3   OH226246   5.776   1.948  16.986 -0.2567 -0.4114  0.4299
  684TIP3    H126247   5.813   1.866  16.955  0.6480  0.4470 -0.9172
  684TIP3    H226248   5.682   1.940  16.972  0.1094  0.4854 -4.4456
  685TIP3   OH226249   6.463   0.371  19.220 -0.0029  0.1043 -0.0226
  685TIP3    H126250   6.533   0.333  19.272 -1.1153  0.6027  1.9349
  685TIP3    H226251   6.382   0.337  19.259 -0.8873  0.1633 -1.7031
  686TIP3   OH226252   7.277   2.027  17.293  0.4148 -0.5016  0.6371
  686TIP3    H126253   7.310   1.969  17.224  0.3171 -0.1471  0.2907
  686TIP3    H226254   7.233   2.098  17.246  0.6089 -0.0974  1.0572
  687TIP3   OH226255   0.499   2.876  17.834  0.0366  0.0940 -0.0134
  687TIP3    H126256   0.486   2.915  17.921  0.0520  0.2900 -0.0991
  687TIP3    H226257   0.502   2.782  17.850 -2.6643 -0.0841 -0.0967
  688TIP3   OH226258   4.851   6.962  16.908  0.2118  0.5013  0.3706
  688TIP3    H126259   4.913   6.935  16.840 -2.6777 -3.5723 -1.0326
  688TIP3    H226260   4.807   7.039  16.872  1.5613  0.9081 -0.4593
  689TIP3   OH226261   2.816   3.730  18.974  0.1680  0.5626 -1.1662
  689TIP3    H126262   2.842   3.644  18.940  1.7702  1.1488 -1.5274
  689TIP3    H226263   2.880   3.748  19.043 -2.5165 -0.2549  1.8139
  690TIP3   OH226264   5.242   4.042  17.685  0.4102 -0.8172 -0.1714
  690TIP3    H126265   5.147   4.041  17.696  0.4033 -2.9981 -0.0685
  690TIP3    H226266   5.260   4.126  17.641 -1.6431 -0.7678 -1.0182
  691TIP3   OH226267   1.335   1.302  17.582 -0.5532 -0.4486  0.0557
  691TIP3    H126268   1.276   1.339  17.648 -0.2949 -0.4720  0.2982
  691TIP3    H226269   1.327   1.208  17.592 -2.6853 -0.5460 -1.8382
  692TIP3   OH226270   6.504   7.278  18.158  0.7074  0.2395 -0.3734
  692TIP3    H126271   6.485   7.266  18.251  0.1145 -0.6396 -0.5928
  692TIP3    H226272   6.534   7.368  18.151 -0.0433  0.5793  0.5487
  693TIP3   OH226273   2.215   6.927  18.177  0.3225  0.4065 -0.1290
  693TIP3    H126274   2.187   6.989  18.109 -1.3455  0.4776  0.5794
  693TIP3    H226275   2.261   6.981  18.241  0.4720  0.6070 -0.4016
  694TIP3   OH226276   4.122   6.658  19.302  0.2666 -0.4415  0.2503
  694TIP3    H126277   4.078   6.725  19.249  1.7893  0.2452 -0.1965
  694TIP3    H226278   4.114   6.577  19.251 -0.2917 -0.2820  0.0800
  695TIP3   OH226279   3.177   2.565  18.711 -0.1654 -0.2981  0.1415
  695TIP3    H126280   3.148   2.645  18.668 -0.4136 -0.3369  0.2369
  695TIP3    H226281   3.269   2.556  18.684 -0.2385 -0.1749 -0.1564
  696TIP3   OH226282   2.968   0.592  18.193 -0.0527  0.2023 -0.1179
  696TIP3    H126283   2.942   0.646  18.267  3.2963 -1.5228  2.5958
  696TIP3    H226284   3.051   0.630  18.163  0.6711 -1.4014 -0.2886
  697TIP3   OH226285   1.461   5.533  16.927 -0.0776  0.2145  0.6092
  697TIP3    H126286   1.491   5.446  16.956 -0.6453  0.0612  0.7581
  697TIP3    H226287   1.470   5.588  17.005  1.2783  0.5608  0.2343
  698TIP3   OH226288   4.975   1.019  17.222  0.2239 -0.4212  0.4519
  698TIP3    H126289   5.006   0.929  17.214 -0.5981 -0.5481 -2.4275
  698TIP3    H226290   5.054   1.070  17.239  1.4964 -1.2051 -2.5985
  699TIP3   OH226291   3.251   3.909  17.145  0.1188  0.5984  0.1219
  699TIP3    H126292   3.191   3.931  17.216  0.3050  1.6976 -0.0364
  699TIP3    H226293   3.327   3.965  17.160  0.6565 -0.0130 -0.2820
  700TIP3   OH226294   3.720   4.475  19.228  0.1416 -0.8864  0.4770
  700TIP3    H126295   3.786   4.529  19.272  0.0507 -0.5196  0.1700
  700TIP3    H226296   3.724   4.502  19.137 -0.1418 -1.1616  0.3799
  701TIP3   OH226297   5.512   5.383  18.300 -0.0661  0.2256 -0.0882
  701TIP3    H126298   5.584   5.445  18.312  0.1750 -0.4540  2.8026
  701TIP3    H226299   5.434   5.431  18.327 -0.1270 -0.1842  0.4795
  702TIP3   OH226300   0.141   1.075  17.938 -0.2750 -0.4324  0.3984
  702TIP3    H126301   0.076   1.141  17.915  0.9594 -0.0773 -2.5236
  702TIP3    H226302   0.091   0.994  17.947 -1.3770  0.2436  0.4789
  703TIP3   OH226303   3.827   0.495  17.198  0.0428 -0.1024 -0.1131
  703TIP3    H126304   3.867   0.434  17.260  0.0744  0.6678  0.6445
  703TIP3    H226305   3.881   0.489  17.120 -1.1930 -2.6308 -0.8675
  704TIP3   OH226306   7.037   6.278  19.592  0.3317 -0.4679  0.2592
  704TIP3    H126307   6.977   6.350  19.571 -0.7606 -0.9379  1.5642
  704TIP3    H226308   7.106   6.284  19.527 -2.1916 -1.1688 -2.7065
  705TIP3   OH226309   7.185   5.838  16.702 -0.2528  0.2224 -0.1933
  705TIP3    H126310   7.256   5.780  16.674  0.6612  0.6052  1.2255
  705TIP3    H226311   7.141   5.790  16.772 -0.7965  0.3862 -0.4193
  706TIP3   OH226312   4.066   6.389  18.200  0.0172  0.3127 -0.7679
  706TIP3    H126313   4.123   6.326  18.157  0.8474  1.3065 -1.1550
  706TIP3    H226314   4.032   6.442  18.128 -0.5624  0.4049 -0.4294
  707TIP3   OH226315   3.982   4.396  17.564  1.2890  0.3831 -0.3418
  707TIP3    H126316   3.948   4.343  17.636  2.1724  1.9804  1.3289
  707TIP3    H226317   4.018   4.474  17.606  1.0060  1.8300 -2.5966
  708TIP3   OH226318   3.647   2.008  18.532 -0.2108 -0.2760 -0.6852
  708TIP3    H126319   3.736   1.976  18.523 -0.3968 -0.6314 -1.3749
  708TIP3    H226320   3.609   1.998  18.444 -1.1477 -0.7895 -0.2341
  709TIP3   OH226321   6.808   5.640  17.392  0.3657  0.2556 -0.0013
  709TIP3    H126322   6.735   5.609  17.338  2.1498 -0.5673 -2.0751
  709TIP3    H226323   6.814   5.576  17.462  0.2130 -0.7149 -0.8486
  710TIP3   OH226324   7.593   4.328  17.446 -0.1919 -0.1293  0.0723
  710TIP3    H126325   7.596   4.412  17.400 -1.3458  0.4963  1.0642
  710TIP3    H226326   7.623   4.264  17.382 -1.0694  0.7901 -1.3110
  711TIP3   OH226327   3.393   1.454  17.857  0.1173  0.5462  0.2506
  711TIP3    H126328   3.352   1.511  17.922  0.0262  0.9418 -0.1450
  711TIP3    H226329   3.487   1.464  17.871  0.1161  1.2982 -0.2326
  712TIP3   OH226330   6.750   0.208  18.630 -0.3691  0.4301  0.2583
  712TIP3    H126331   6.781   0.120  18.651 -2.5085 -0.3611  0.4038
  712TIP3    H226332   6.804   0.266  18.683  3.3631 -0.4264 -2.2734
  713TIP3   OH226333   5.057   5.513  17.659 -0.0348 -0.3855 -0.3102
  713TIP3    H126334   5.004   5.532  17.582  0.3080  1.6315 -0.0877
  713TIP3    H226335   4.993   5.504  17.730 -0.2520 -0.8559 -0.5578
  714TIP3   OH226336   1.600   5.079  16.933  0.4779  0.1971 -0.0676
  714TIP3    H126337   1.656   5.030  16.995  1.0622 -2.2930 -2.3564
  714TIP3    H226338   1.541   5.013  16.898  0.2049  1.4875 -2.1744
  715TIP3   OH226339   3.201   4.954  19.499 -0.7154 -0.4489  0.4453
  715TIP3    H126340   3.239   4.890  19.438  1.0508  2.0497 -1.3159
  715TIP3    H226341   3.108   4.958  19.475 -0.5349 -1.2524 -0.4425
  716TIP3   OH226342   1.127   0.602  17.440  0.3024  0.5250  0.2600
  716TIP3    H126343   1.043   0.556  17.442  0.5874 -0.1143 -1.2319
  716TIP3    H226344   1.127   0.648  17.356  0.3852  2.6291  1.3549
  717TIP3   OH226345   7.549   7.159  18.290 -0.1934  0.2988 -0.0344
  717TIP3    H126346   7.492   7.209  18.231  1.4690  2.1215 -0.2063
  717TIP3    H226347   7.635   7.162  18.249  0.5390 -0.3361  1.3727
  718TIP3   OH226348   2.086   3.556  17.566 -0.6710  0.0711  0.0940
  718TIP3    H126349   2.150   3.485  17.554  0.1148  0.5338  1.2954
  718TIP3    H226350   2.006   3.524  17.525 -0.0141 -1.0523 -0.3515
  719TIP3   OH226351   7.657   3.135  17.606 -0.5293  0.3800 -0.2936
  719TIP3    H126352   7.670   3.109  17.515  0.2538  0.5607 -0.2446
  719TIP3    H226353   7.724   3.085  17.654 -0.2511  1.0692  0.0426
  720TIP3   OH226354   4.284   1.929  18.649  0.2588 -0.1319 -0.3697
  720TIP3    H126355   4.285   1.835  18.631  0.5767  0.1224 -1.8377
  720TIP3    H226356   4.372   1.948  18.682 -0.2780 -0.5822  1.4208
  721TIP3   OH226357   3.683   6.399  17.362 -0.2780  0.3134 -0.4263
  721TIP3    H126358   3.720   6.400  17.451 -0.3535  0.0969 -0.3931
  721TIP3    H226359   3.717   6.479  17.322 -1.9883  1.5950  0.5137
  722TIP3   OH226360   6.084   3.518  17.583 -0.0337 -0.0898 -0.5096
  722TIP3    H126361   6.167   3.547  17.547  0.0699 -1.4757 -1.4442
  722TIP3    H226362   6.088   3.544  17.675  1.8758 -1.0276 -0.2753
  723TIP3   OH226363   0.285   7.573  18.910 -0.0731 -0.4698  0.6487
  723TIP3    H126364   0.299   7.565  19.004 -0.0251 -1.0402  0.5972
  723TIP3    H226365   0.364   7.616  18.878 -0.8734  1.4418  1.1129
  724TIP3   OH226366   3.425   5.889  18.237  0.4495 -0.6175  0.0806
  724TIP3    H126367   3.501   5.864  18.290  1.4604  0.4684 -0.7843
  724TIP3    H226368   3.369   5.939  18.297  1.7217  0.8516  0.1148
  725TIP3   OH226369   5.250   4.443  16.827 -0.0724  0.1040 -0.3257
  725TIP3    H126370   5.170   4.495  16.830 -1.3960 -1.8369  2.3941
  725TIP3    H226371   5.312   4.491  16.882 -0.1141  0.4526 -0.5746
  726TIP3   OH226372   2.885   1.424  19.643  0.3005  0.6960 -0.3553
  726TIP3    H126373   2.810   1.406  19.586 -0.0528  1.1138 -0.0318
  726TIP3    H226374   2.911   1.339  19.677 -0.0975  0.5640 -0.3819
  727TIP3   OH226375   1.827   2.850  17.851 -0.1027  0.1014  0.3042
  727TIP3    H126376   1.899   2.806  17.895 -0.9402 -0.4764  1.1390
  727TIP3    H226377   1.774   2.778  17.815  0.2425  0.5419 -1.1429
  728TIP3   OH226378   5.071   0.518  18.136  0.5116  0.1606 -0.4166
  728TIP3    H126379   5.036   0.565  18.212  1.1295  0.4696 -0.3160
  728TIP3    H226380   5.103   0.588  18.078  0.4067 -0.0915 -0.7815
  729TIP3   OH226381   6.032   1.616  17.208  0.3572  0.2269  0.0837
  729TIP3    H126382   6.029   1.590  17.115 -3.3831  1.2925 -0.2496
  729TIP3    H226383   6.079   1.700  17.208 -0.7517  0.8849 -1.1016
  730TIP3   OH226384   3.048   4.882  18.254 -0.2448 -0.0670 -0.7135
  730TIP3    H126385   2.973   4.828  18.279  0.4154 -1.1712 -1.0214
  730TIP3    H226386   3.013   4.946  18.192 -1.4545  1.2526  1.2188
  731TIP3   OH226387   4.526   6.745  18.126  0.2592  0.1174  0.1779
  731TIP3    H126388   4.587   6.787  18.187  1.0428 -0.4653 -0.1827
  731TIP3    H226389   4.498   6.815  18.068  2.7700 -0.0864 -1.4236
  732TIP3   OH226390   4.821   1.517  17.159 -0.5648  0.6323  0.0109
  732TIP3    H126391   4.785   1.596  17.200 -1.1687  0.5148 -0.2834
  732TIP3    H226392   4.755   1.450  17.174  0.0075  0.1430  0.3729
  733TIP3   OH226393   0.554   0.279  18.829  0.0049 -0.2466  0.1973
  733TIP3    H126394   0.561   0.184  18.839 -1.2241 -0.5020 -1.0171
  733TIP3    H226395   0.541   0.292  18.735 -0.5945  1.0651  0.4403
  734TIP3   OH226396   2.286   6.710  19.096 -0.9440  0.2969  0.6547
  734TIP3    H126397   2.346   6.755  19.156 -0.4893 -1.3621  1.5168
  734TIP3    H226398   2.217   6.674  19.153 -0.5504 -1.2253  0.2322
  735TIP3   OH226399   0.622   6.820  18.244 -0.0117  0.2197 -0.3419
  735TIP3    H126400   0.634   6.809  18.339  0.8852 -0.5437 -0.5315
  735TIP3    H226401   0.676   6.896  18.222 -1.6679  1.5705  0.0315
  736TIP3   OH226402   4.030   6.772  19.018 -0.5697 -0.2878  0.0773
  736TIP3    H126403   3.998   6.787  18.929  1.7577 -0.9202 -0.9314
  736TIP3    H226404   4.121   6.800  19.016 -0.1249 -1.4270  1.9493
  737TIP3   OH226405   4.578   6.807  19.163  0.0027  0.0781  0.0435
  737TIP3    H126406   4.611   6.717  19.158  1.9235  0.7776 -0.8839
  737TIP3    H226407   4.511   6.804  19.230 -0.8706 -2.3041 -0.8237
  738TIP3   OH226408   0.103   3.024  17.938  0.6535 -0.4946 -0.7535
  738TIP3    H126409   0.143   3.006  17.853  1.5953 -0.2791 -0.3672
  738TIP3    H226410   0.016   3.059  17.917  0.7417 -0.7841 -1.6131
  739TIP3   OH226411   0.090   6.469  18.413 -0.0469  0.2657 -0.0484
  739TIP3    H126412   0.043   6.550  18.433  1.0530  0.8118  0.4646
  739TIP3    H226413   0.107   6.473  18.319  2.0932  1.8575  0.3326
  740TIP3   OH226414   5.052   0.938  19.537  0.4161 -0.1264 -0.2106
  740TIP3    H126415   5.036   1.022  19.494  2.0834 -1.3862 -3.6232
  740TIP3    H226416   4.971   0.888  19.524  0.2953  0.1061 -0.3620
  741TIP3   OH226417   6.431   5.878  18.837 -0.1639 -0.8090 -0.3626
  741TIP3    H126418   6.486   5.801  18.822  1.1002 -0.1525  0.6845
  741TIP3    H226419   6.488   5.953  18.821 -0.4942 -0.1008  1.4461
  742TIP3   OH226420   2.262   6.004  18.289 -0.7319 -0.3441  0.2629
  742TIP3    H126421   2.180   5.989  18.241 -0.3611  0.5907 -0.7127
  742TIP3    H226422   2.330   5.966  18.233 -0.2994  0.6801  0.0669
  743TIP3   OH226423   6.291   5.697  18.591  0.2136 -0.0343  0.3980
  743TIP3    H126424   6.372   5.729  18.552  0.4970 -1.5268 -0.3332
  743TIP3    H226425   6.308   5.698  18.685  0.2937  1.6225  0.4018
  744TIP3   OH226426   5.106   2.553  18.468  0.0117 -0.0201  0.1096
  744TIP3    H126427   5.126   2.613  18.540  2.3957  0.4605 -0.8462
  744TIP3    H226428   5.152   2.472  18.490 -0.7258 -0.4805 -0.0244
  745TIP3   OH226429   2.128   3.477  19.428 -0.0851 -0.0832 -0.1170
  745TIP3    H126430   2.113   3.549  19.490  1.1127 -0.1629  0.3011
  745TIP3    H226431   2.041   3.443  19.409 -0.5270  0.3156  1.0847
  746TIP3   OH226432   6.513   0.555  18.822  0.1986  0.0342  0.0074
  746TIP3    H126433   6.435   0.591  18.865 -0.4669 -0.5496 -0.6653
  746TIP3    H226434   6.574   0.537  18.893 -0.4119  0.2155  0.5853
  747TIP3   OH226435   5.909   1.269  18.486 -0.4365 -0.1437  0.1293
  747TIP3    H126436   5.926   1.272  18.580 -1.5196 -1.7957  0.4156
  747TIP3    H226437   5.818   1.297  18.477 -0.1646  0.5866 -0.5130
  748TIP3   OH226438   1.269   1.131  18.390 -0.8124  0.1550 -0.7444
  748TIP3    H126439   1.355   1.122  18.349 -1.3822 -0.0934 -1.9270
  748TIP3    H226440   1.276   1.080  18.472 -0.1391 -0.6955 -1.3072
  749TIP3   OH226441   4.222   3.642  18.543 -0.0088  0.3774 -0.3853
  749TIP3    H126442   4.142   3.636  18.491 -0.3631  2.4021 -0.1528
  749TIP3    H226443   4.199   3.604  18.628 -0.3077 -0.2577 -0.7454
  750TIP3   OH226444   2.067   5.533  18.451 -0.1235  0.0716 -0.0179
  750TIP3    H126445   2.132   5.594  18.416  2.6860 -2.5658  0.2064
  750TIP3    H226446   2.088   5.527  18.544  0.1673 -1.7316 -0.1707
  751TIP3   OH226447   0.936   3.352  17.625 -0.4655  0.0977 -0.0136
  751TIP3    H126448   0.848   3.344  17.588 -0.8989 -0.1917  1.0329
  751TIP3    H226449   0.970   3.262  17.622 -0.8477 -0.0980  1.0750
  752TIP3   OH226450   4.703   3.632  19.474 -0.0364  0.1033  0.1805
  752TIP3    H126451   4.616   3.610  19.439 -1.0855  1.6927  1.6577
  752TIP3    H226452   4.698   3.609  19.567  1.1949  0.0797  0.2570
  753TIP3   OH226453   0.851   3.214  18.805  0.7818 -0.1576 -0.2663
  753TIP3    H126454   0.885   3.134  18.766 -0.4557 -0.3904 -0.8967
  753TIP3    H226455   0.922   3.278  18.791  1.3558 -0.8637 -0.6926
  754TIP3   OH226456   7.678   0.169  17.243  0.0765  0.3940  0.0552
  754TIP3    H126457   7.671   0.257  17.280 -0.4803  0.7412 -0.8389
  754TIP3    H226458   7.677   0.182  17.148 -0.2784 -0.5941 -0.0939
  755TIP3   OH226459   3.077   4.835  19.034  0.7167  0.1500  0.0690
  755TIP3    H126460   3.009   4.893  19.069 -0.7333 -1.4651  0.0949
  755TIP3    H226461   3.082   4.857  18.941 -0.3192 -0.1220 -0.0636
  756TIP3   OH226462   0.140   6.211  17.950 -0.3567  0.1469 -0.0154
  756TIP3    H126463   0.133   6.121  17.919 -1.2603 -0.4475  1.8034
  756TIP3    H226464   0.050   6.242  17.955 -0.1512  0.6548  0.7428
  757TIP3   OH226465   6.662   2.774  18.464  0.6958 -0.0217 -0.5258
  757TIP3    H126466   6.749   2.813  18.470  1.1856 -0.9727 -1.1180
  757TIP3    H226467   6.678   2.686  18.430 -0.4056 -0.5512  0.2465
  758TIP3   OH226468   6.381   6.851  17.024 -0.2074 -0.5679 -0.2562
  758TIP3    H126469   6.412   6.934  17.060  2.0930 -1.4625  0.0326
  758TIP3    H226470   6.320   6.817  17.089 -0.3173  0.3854  0.1487
  759TIP3   OH226471   7.138   7.340  19.566 -0.0657 -0.0497 -0.5366
  759TIP3    H126472   7.122   7.334  19.472  0.6330 -0.4635 -0.6387
  759TIP3    H226473   7.114   7.254  19.600 -1.5179  0.4791 -0.1227
  760TIP3   OH226474   7.166   4.293  18.182  0.3485  0.5852  0.1082
  760TIP3    H126475   7.246   4.326  18.141 -0.0159  1.0033 -0.2673
  760TIP3    H226476   7.197   4.229  18.247  1.0110  1.0747  0.2812
  761TIP3   OH226477   1.467   7.056  18.588 -0.1618 -0.6111  0.5675
  761TIP3    H126478   1.513   7.042  18.670  0.0186 -2.0555  0.2382
  761TIP3    H226479   1.426   6.972  18.568 -1.4141  0.1245 -0.0894
  762TIP3   OH226480   7.240   0.775  18.839 -0.1695 -0.3053  0.5153
  762TIP3    H126481   7.227   0.853  18.892 -0.5534  1.4928 -2.0364
  762TIP3    H226482   7.314   0.797  18.783 -0.3283 -1.7504 -0.2971
  763TIP3   OH226483   6.746   3.588  18.466  0.0721 -0.3644  0.9695
  763TIP3    H126484   6.793   3.608  18.385 -0.6818  0.5740  0.7523
  763TIP3    H226485   6.779   3.651  18.530  1.4973 -1.8129  1.7472
  764TIP3   OH226486   0.722   4.712  17.680 -0.0544 -0.4107  0.1413
  764TIP3    H126487   0.651   4.650  17.699 -1.0190  0.1646 -1.3580
  764TIP3    H226488   0.784   4.700  17.752 -1.7160 -0.8477  1.5821
  765TIP3   OH226489   3.380   2.552  19.651 -0.4275  0.0843 -0.9511
  765TIP3    H126490   3.386   2.644  19.625  0.4905  0.2420 -0.2485
  765TIP3    H226491   3.287   2.538  19.668 -0.5524  0.9582 -0.8478
  766TIP3   OH226492   1.054   6.100  17.754  0.4932 -0.5152 -0.3207
  766TIP3    H126493   1.102   6.088  17.672  1.5503 -3.2444  0.5944
  766TIP3    H226494   1.079   6.188  17.783  0.8608  0.1304 -2.3860
  767TIP3   OH226495   6.115   6.085  18.280 -0.0673 -0.6566 -0.0836
  767TIP3    H126496   6.131   6.035  18.360 -1.0852 -0.4870  0.2470
  767TIP3    H226497   6.106   6.176  18.309 -1.0212 -0.6681 -0.2943
  768TIP3   OH226498   1.832   6.873  18.653  0.0321  0.2151  0.3515
  768TIP3    H126499   1.859   6.786  18.622  1.0552  1.0481 -1.2562
  768TIP3    H226500   1.760   6.855  18.713 -2.1493 -1.6145 -2.4994
  769TIP3   OH226501   4.500   3.661  17.140 -0.0494 -0.0336  0.6097
  769TIP3    H126502   4.433   3.596  17.162 -0.3531  0.4190  1.0298
  769TIP3    H226503   4.480   3.687  17.050  0.1864 -0.6582  0.3724
  770TIP3   OH226504   6.261   3.945  18.700 -0.1493  0.2172 -0.1428
  770TIP3    H126505   6.340   3.898  18.725  0.2982  1.4062  0.7299
  770TIP3    H226506   6.192   3.908  18.756 -0.1166 -0.4658 -0.5494
  771TIP3   OH226507   1.467   6.060  18.662 -0.0047 -0.6608 -0.7507
  771TIP3    H126508   1.508   6.146  18.654 -1.3597 -0.0721 -2.0599
  771TIP3    H226509   1.476   6.022  18.575  0.1363 -1.6358 -0.3170
  772TIP3   OH226510   6.136   0.742  18.240  0.2944 -0.0192 -0.0211
  772TIP3    H126511   6.061   0.735  18.181 -0.9881  2.5420  1.1703
  772TIP3    H226512   6.114   0.685  18.314 -0.4176  0.5797  0.2374
  773TIP3   OH226513   3.250   1.450  19.104  0.0471  0.4901 -0.2348
  773TIP3    H126514   3.294   1.376  19.147 -1.1804 -0.5252 -0.6658
  773TIP3    H226515   3.282   1.448  19.014 -0.6044 -0.0537 -0.4645
  774TIP3   OH226516   3.780   6.508  19.276 -0.8537  0.1109  0.2818
  774TIP3    H126517   3.851   6.451  19.308 -0.6592 -0.4422 -1.0507
  774TIP3    H226518   3.707   6.448  19.261 -0.0384 -0.2281 -3.0345
  775TIP3   OH226519   6.971   3.601  18.251  0.0147 -0.0138 -0.4893
  775TIP3    H126520   7.027   3.568  18.321  0.8417 -0.2369 -1.2528
  775TIP3    H226521   7.030   3.643  18.190 -0.8436  1.3691 -0.4130
  776TIP3   OH226522   4.006   3.716  18.406 -0.1319 -0.2808  0.0515
  776TIP3    H126523   3.951   3.712  18.485  0.2384  1.6336  0.4399
  776TIP3    H226524   4.002   3.807  18.378 -0.8552 -1.0541 -2.6318
  777TIP3   OH226525   0.425   3.278  18.749  0.8902  0.0314  0.1094
  777TIP3    H126526   0.423   3.354  18.807  2.9362  0.3620 -0.1863
  777TIP3    H226527   0.498   3.225  18.781  1.4326 -0.2776 -1.5178
  778TIP3   OH226528   1.454   6.790  19.236 -0.2473 -0.0752  0.7398
  778TIP3    H126529   1.515   6.862  19.220 -0.4127 -0.0374  0.2533
  778TIP3    H226530   1.378   6.811  19.182  0.0504 -1.0537 -0.0893
  779TIP3   OH226531   4.845   4.914  18.642  0.3349 -0.9700 -0.0118
  779TIP3    H126532   4.777   4.908  18.576  0.7678 -0.8420 -0.4754
  779TIP3    H226533   4.798   4.925  18.725 -0.1925 -0.0378 -0.4202
  780TIP3   OH226534   6.692   4.525  17.516  0.0403 -0.1623 -0.0491
  780TIP3    H126535   6.652   4.506  17.601 -0.9719 -0.5232 -0.5863
  780TIP3    H226536   6.647   4.604  17.485  0.0156 -0.3502 -0.4981
  781TIP3   OH226537   1.208   0.846  19.509 -0.2395  0.0187  0.1236
  781TIP3    H126538   1.249   0.816  19.428 -2.5793  0.1504 -1.1876
  781TIP3    H226539   1.204   0.941  19.500 -1.3633 -0.0394 -0.0511
  782TIP3   OH226540   1.727   3.222  18.850 -0.1224  0.3399 -0.4236
  782TIP3    H126541   1.718   3.128  18.835  0.4309 -0.2185  2.2506
  782TIP3    H226542   1.641   3.258  18.828  0.1430 -0.4788 -3.1138
  783TIP3   OH226543   3.318   2.510  18.136 -0.5014  1.0114  0.4748
  783TIP3    H126544   3.339   2.448  18.205  3.7086  0.4369 -1.0443
  783TIP3    H226545   3.293   2.455  18.062 -2.6824  1.5280  0.7541
  784TIP3   OH226546   1.513   4.007  16.828 -0.1174 -0.1019 -0.0479
  784TIP3    H126547   1.501   4.097  16.795  0.4128 -0.0744 -0.1760
  784TIP3    H226548   1.606   4.003  16.851 -0.2322 -0.4931  0.3476
  785TIP3   OH226549   2.059   1.171  19.282 -0.2891 -0.2480 -0.1978
  785TIP3    H126550   2.012   1.163  19.199  1.5535 -0.2351 -1.3021
  785TIP3    H226551   2.065   1.265  19.297 -0.3771 -0.2412 -0.2055
  786TIP3   OH226552   7.212   2.716  17.576  0.1488 -0.4243 -0.1139
  786TIP3    H126553   7.300   2.677  17.575  0.3975  0.1134  0.0789
  786TIP3    H226554   7.222   2.798  17.528 -0.3495 -0.5658 -0.4572
  787TIP3   OH226555   6.083   6.105  17.464  0.3127  0.1366  0.3913
  787TIP3    H126556   6.116   6.157  17.391  1.1993 -0.8331  0.0732
  787TIP3    H226557   5.988   6.106  17.454  0.3597  1.1380  0.0163
  788TIP3   OH226558   0.681   3.150  18.050 -0.3056 -0.5724 -0.3522
  788TIP3    H126559   0.757   3.140  18.107 -0.1564 -0.6172 -0.5593
  788TIP3    H226560   0.691   3.237  18.012 -0.7439 -0.2798  0.1837
  789TIP3   OH226561   0.857   4.725  18.368  0.6551 -0.5239  0.4839
  789TIP3    H126562   0.924   4.661  18.341  1.9262  0.5464  1.0102
  789TIP3    H226563   0.906   4.792  18.415 -0.8550  0.1482  1.1373
  790TIP3   OH226564   2.204   2.391  17.873 -0.0809  0.4679 -0.0356
  790TIP3    H126565   2.177   2.303  17.848 -0.2303  0.6783 -0.6449
  790TIP3    H226566   2.217   2.436  17.789  2.5336  0.2731  0.1911
  791TIP3   OH226567   2.589   0.364  19.104 -0.4052  0.0925 -0.6469
  791TIP3    H126568   2.563   0.348  19.195 -0.2631  1.8199 -0.2784
  791TIP3    H226569   2.685   0.365  19.106 -0.2534 -2.7604 -1.3908
  792TIP3   OH226570   2.892   0.001  17.386 -0.5094 -0.4848 -0.1002
  792TIP3    H126571   2.839   0.067  17.430 -1.1653  0.2248 -1.8785
  792TIP3    H226572   2.839  -0.079  17.390 -0.6901 -0.3526  0.1513
  793TIP3   OH226573   5.645   7.489  18.739 -0.1491 -0.1569 -0.0978
  793TIP3    H126574   5.602   7.510  18.656 -1.1946 -0.6075  0.3104
  793TIP3    H226575   5.618   7.559  18.798  2.7744  1.7193 -0.7862
  794TIP3   OH226576   4.771   0.278  17.661 -0.0659 -0.1157 -0.6256
  794TIP3    H126577   4.862   0.282  17.629  0.1259 -2.4987 -0.5628
  794TIP3    H226578   4.718   0.282  17.581  0.1062  0.3831 -0.7238
  795TIP3   OH226579   0.568   2.733  17.021  0.4411 -0.3722 -0.5427
  795TIP3    H126580   0.537   2.679  16.948 -0.2245  0.1256 -0.6302
  795TIP3    H226581   0.494   2.737  17.082  0.0977  1.3026 -1.0266
  796TIP3   OH226582   7.549   4.085  17.871 -0.4027  0.3823 -0.6656
  796TIP3    H126583   7.486   4.021  17.904 -0.2986  0.3979 -0.4363
  796TIP3    H226584   7.497   4.143  17.815 -0.9688  1.5232  0.9775
  797TIP3   OH226585   5.138   6.194  18.832  0.2072  0.0793 -0.1105
  797TIP3    H126586   5.047   6.187  18.861  0.1524 -1.0668 -0.4863
  797TIP3    H226587   5.187   6.146  18.898  0.2620 -1.2164 -1.0584
  798TIP3   OH226588   3.415   6.741  17.902  0.0210  0.4520  0.3023
  798TIP3    H126589   3.334   6.790  17.912 -0.2259 -0.3135  2.3518
  798TIP3    H226590   3.470   6.770  17.974  1.2364  0.2605 -0.5103
  799TIP3   OH226591   4.279   0.565  19.087 -0.3844 -0.4140 -0.1147
  799TIP3    H126592   4.194   0.560  19.043 -0.6301  1.6315  0.0224
  799TIP3    H226593   4.259   0.542  19.178 -0.2695 -2.5020 -0.5674
  800TIP3   OH226594   6.017   0.476  17.803 -0.4739 -0.2232  0.0355
  800TIP3    H126595   6.079   0.406  17.786 -0.3034 -0.1400  0.3048
  800TIP3    H226596   6.053   0.553  17.758  0.6187  0.3141  1.7357
  801TIP3   OH226597   5.349   5.602  19.254 -0.2480  0.3030  0.1453
  801TIP3    H126598   5.384   5.578  19.168  0.8977 -0.0737  0.7020
  801TIP3    H226599   5.311   5.522  19.288 -0.7467  0.4646 -0.0240
  802TIP3   OH226600   6.634   2.348  17.979  0.0259  0.1325 -0.4158
  802TIP3    H126601   6.584   2.430  17.978 -1.2125 -0.5750  0.3766
  802TIP3    H226602   6.657   2.333  17.887 -2.0662  0.0266 -0.9818
  803TIP3   OH226603   0.240   2.634  16.564 -0.8217  0.1273  0.4918
  803TIP3    H126604   0.323   2.585  16.568 -1.3165 -0.8210 -0.3986
  803TIP3    H226605   0.267   2.726  16.560  0.2106 -0.1964 -0.4389
  804TIP3   OH226606   2.530   0.239  19.334 -0.1604 -0.2952 -0.0724
  804TIP3    H126607   2.515   0.201  19.421  1.0251  2.5378  1.5177
  804TIP3    H226608   2.598   0.184  19.296 -0.3721 -1.3303  0.9684
  805TIP3   OH226609   4.657   7.677  18.753 -0.0761  0.1664  0.4387
  805TIP3    H126610   4.705   7.749  18.795 -0.2125  0.1705  0.5879
  805TIP3    H226611   4.620   7.627  18.826  0.4076 -0.3273  0.3499
  806TIP3   OH226612   5.652   1.668  18.556  0.4426 -0.0667 -0.2257
  806TIP3    H126613   5.737   1.633  18.582 -0.0298 -0.4670  0.8011
  806TIP3    H226614   5.672   1.755  18.521  1.1086  0.4391  1.3603
  807TIP3   OH226615   4.076   7.438  18.885 -0.0796 -0.1935  0.3481
  807TIP3    H126616   4.131   7.424  18.807  1.0967  0.9155  0.9416
  807TIP3    H226617   3.986   7.436  18.851  0.3639 -0.6535 -0.8798
  808TIP3   OH226618   6.405   4.247  18.178 -1.2132  0.6388 -0.1911
  808TIP3    H126619   6.470   4.315  18.159 -2.4234  1.1792 -2.9032
  808TIP3    H226620   6.321   4.293  18.178 -1.9220 -0.6035 -0.4073
  809TIP3   OH226621   5.121   1.171  17.970  0.1019  0.2238  0.2222
  809TIP3    H126622   5.148   1.109  17.902  0.0694  0.4469  0.0060
  809TIP3    H226623   5.154   1.133  18.051  1.7346  0.8445 -0.1008
  810TIP3   OH226624   4.265   5.636  17.301 -0.4295 -0.0414  0.0358
  810TIP3    H126625   4.302   5.548  17.295  0.6620  0.1886  2.1946
  810TIP3    H226626   4.249   5.662  17.211  1.6480 -1.4653 -0.8124
  811TIP3   OH226627   7.637   0.628  17.898  0.4675  0.3903 -0.1974
  811TIP3    H126628   7.651   0.537  17.871  0.0232  0.6321 -1.3107
  811TIP3    H226629   7.547   0.631  17.931 -0.0940  0.7227 -1.6515
  812TIP3   OH226630   6.512   6.323  17.805 -0.3435 -0.6492  0.4629
  812TIP3    H126631   6.546   6.317  17.716 -0.5323  0.4057  0.3056
  812TIP3    H226632   6.427   6.367  17.796  0.4111  1.1088  1.3020
  813TIP3   OH226633   1.605   5.437  19.620  0.4679 -0.1610  0.4784
  813TIP3    H126634   1.593   5.454  19.713  0.1594 -0.6649  0.5352
  813TIP3    H226635   1.525   5.470  19.579  0.2569 -0.6575  0.4870
  814TIP3   OH226636   2.438   7.028  18.697 -0.0601  0.2673  0.0293
  814TIP3    H126637   2.400   6.998  18.615 -2.4455  2.3489  0.2591
  814TIP3    H226638   2.426   7.123  18.695 -1.6903  0.2681  3.4387
  815TIP3   OH226639   7.674   6.899  18.871  0.4365 -0.6689  1.0467
  815TIP3    H126640   7.659   6.846  18.949  0.0413 -1.7016  0.2886
  815TIP3    H226641   7.656   6.989  18.899 -3.3545 -1.3347  1.2790
  816TIP3   OH226642   1.890   0.870  17.909  0.1326  0.0329  0.4518
  816TIP3    H126643   1.891   0.838  17.999 -0.1312  2.2181  1.2877
  816TIP3    H226644   1.798   0.862  17.881  0.0538  0.1550  0.6784
  817TIP3   OH226645   5.706   5.880  18.895 -1.2886  0.4951 -0.5595
  817TIP3    H126646   5.696   5.839  18.981  0.2130 -1.1404 -1.1103
  817TIP3    H226647   5.637   5.840  18.842 -1.3789  0.5101 -0.4544
  818TIP3   OH226648   6.855   7.310  18.793 -0.6169  0.1973 -0.8106
  818TIP3    H126649   6.765   7.320  18.825 -0.6445 -1.1803 -0.4119
  818TIP3    H226650   6.847   7.322  18.698 -1.8154 -2.9215 -1.2398
  819TIP3   OH226651   0.937   1.608  17.449 -0.3021 -0.0258  0.3280
  819TIP3    H126652   1.014   1.617  17.392 -0.3853 -0.1001  0.2046
  819TIP3    H226653   0.867   1.654  17.402 -0.4630 -0.3995  0.1957
  820TIP3   OH226654   7.531   2.511  18.770 -0.6865 -0.1149 -0.0193
  820TIP3    H126655   7.474   2.472  18.835 -0.5826 -0.6842 -0.2691
  820TIP3    H226656   7.609   2.536  18.819 -0.0448 -1.7607 -0.1496
  821TIP3   OH226657   0.227   0.249  17.615 -0.1087 -0.2753  0.3319
  821TIP3    H126658   0.164   0.301  17.565 -0.2728 -0.3593  0.4473
  821TIP3    H226659   0.255   0.306  17.686 -0.7551 -0.5441  0.8223
  822TIP3   OH226660   4.020   4.223  19.086 -0.4783 -0.4327 -0.3068
  822TIP3    H126661   4.092   4.285  19.084 -0.6362 -0.1641 -3.6336
  822TIP3    H226662   4.061   4.138  19.071 -0.5306 -0.8177  1.5721
  823TIP3   OH226663   5.068   6.620  19.530  0.1615  0.7910 -0.2724
  823TIP3    H126664   5.058   6.712  19.552  1.1216  1.0185 -0.7243
  823TIP3    H226665   5.108   6.620  19.442 -1.5764 -0.0736 -1.1021
  824TIP3   OH226666   0.819   4.256  18.965 -0.4096 -0.5888 -0.1072
  824TIP3    H126667   0.853   4.327  19.019 -1.4266 -0.3608  0.2537
  824TIP3    H226668   0.864   4.177  18.996  1.1972 -0.0376 -0.9373
  825TIP3   OH226669   4.067   3.788  19.134 -0.2685  0.5094 -0.0107
  825TIP3    H126670   4.049   3.862  19.192  0.4922  0.7550 -0.0716
  825TIP3    H226671   3.981   3.757  19.106 -0.5791  1.9480 -0.7097
  826TIP3   OH226672   3.638   3.703  18.273  0.0203 -0.2035 -0.4364
  826TIP3    H126673   3.680   3.788  18.280  1.0752 -0.7292 -0.3047
  826TIP3    H226674   3.587   3.694  18.353  1.0831 -0.3194  0.2410
  827TIP3   OH226675   5.482   6.144  17.844  0.4119  0.9660 -0.1544
  827TIP3    H126676   5.515   6.054  17.842 -2.6377 -0.3288  1.3485
  827TIP3    H226677   5.514   6.180  17.926 -1.5844 -0.2524  1.2544
  828TIP3   OH226678   7.449   4.135  19.010 -0.0091 -0.2755  0.0427
  828TIP3    H126679   7.445   4.222  18.971 -0.6695  0.0517  0.8037
  828TIP3    H226680   7.493   4.148  19.094  0.8359 -0.8610 -0.3022
  829TIP3   OH226681   7.667   0.886  19.223 -0.0442  0.6862 -0.4984
  829TIP3    H126682   7.601   0.825  19.257  0.2340  1.9994  2.6581
  829TIP3    H226683   7.666   0.960  19.283  1.3702  2.7400 -2.7948
  830TIP3   OH226684   0.312   1.413  18.407 -0.2426  0.1497  0.4489
  830TIP3    H126685   0.311   1.357  18.330 -1.4809  1.2693 -0.3965
  830TIP3    H226686   0.227   1.458  18.405  1.3280  3.3814  0.0676
  831TIP3   OH226687   3.170   6.559  18.240 -0.2134 -0.5768  0.1241
  831TIP3    H126688   3.099   6.502  18.212 -1.3149  1.0098 -0.4333
  831TIP3    H226689   3.133   6.608  18.314  0.2394  0.3724 -0.2675
  832TIP3   OH226690   2.491   2.183  17.955 -0.4472  0.2495 -0.5705
  832TIP3    H126691   2.396   2.177  17.947 -0.5480  0.1398  0.5603
  832TIP3    H226692   2.525   2.139  17.877 -1.3191  0.5658 -1.1430
  833TIP3   OH226693   7.213   3.819  17.702  0.2095 -0.2734 -0.7854
  833TIP3    H126694   7.259   3.818  17.785 -1.1415  1.1129  0.0293
  833TIP3    H226695   7.186   3.729  17.688  2.0828 -0.8918 -0.7134
  834TIP3   OH226696   4.099   5.240  18.698  0.1843 -0.2898  0.3491
  834TIP3    H126697   4.043   5.205  18.767 -0.1034  0.2254  0.3889
  834TIP3    H226698   4.141   5.316  18.737  1.2443 -0.9146  0.4464
  835TIP3   OH226699   4.746   2.331  17.429 -0.0396 -0.1197 -0.6331
  835TIP3    H126700   4.769   2.424  17.435 -1.3860  0.1814  0.5853
  835TIP3    H226701   4.797   2.298  17.355 -0.9871  2.0492 -2.3671
  836TIP3   OH226702   5.145   5.617  17.995  0.0519 -0.3848  0.1834
  836TIP3    H126703   5.145   5.684  17.926 -0.7329 -2.5484 -2.0404
  836TIP3    H226704   5.058   5.622  18.034 -0.4785 -0.9293 -0.8830
  837TIP3   OH226705   3.697   1.849  17.605  0.7184  0.4144  0.2301
  837TIP3    H126706   3.725   1.912  17.671  2.1557  0.8092 -0.7115
  837TIP3    H226707   3.766   1.784  17.602 -0.1741 -0.5642  0.3265
  838TIP3   OH226708   1.090   4.982  17.467  0.4406 -0.0976 -0.4875
  838TIP3    H126709   1.022   4.921  17.438 -1.6065  2.6235 -1.9021
  838TIP3    H226710   1.043   5.063  17.487  3.1155  1.4527  0.0721
  839TIP3   OH226711   5.385   4.505  18.280 -0.2197 -0.1807  0.3375
  839TIP3    H126712   5.408   4.573  18.217 -0.3459 -1.7145 -1.4883
  839TIP3    H226713   5.290   4.512  18.289 -0.4484 -0.9523 -1.0029
  840TIP3   OH226714   5.624   1.248  18.069  0.0183  0.5316  0.8201
  840TIP3    H126715   5.593   1.198  17.994  0.8669  2.3683 -0.8608
  840TIP3    H226716   5.695   1.195  18.106  0.1039 -0.0532 -0.1568
  841TIP3   OH226717   6.463   7.200  18.422 -0.1106  0.1574 -0.2070
  841TIP3    H126718   6.488   7.276  18.475  0.5293 -0.6073  0.6186
  841TIP3    H226719   6.442   7.132  18.486  2.1652 -1.2848 -0.8628
  842TIP3   OH226720   3.998   1.359  18.468 -0.0478  0.0255  0.3061
  842TIP3    H126721   3.943   1.322  18.398 -2.3072  0.2375  1.8678
  842TIP3    H226722   4.030   1.283  18.516 -2.0832 -0.0824  1.5972
  843TIP3   OH226723   4.799   1.600  17.922 -0.3943  0.1689 -0.5199
  843TIP3    H126724   4.876   1.545  17.914 -0.4053  0.1482 -0.4820
  843TIP3    H226725   4.762   1.604  17.834 -0.9952 -0.7566 -0.3272
  844TIP3   OH226726   1.594   2.919  17.448  0.3793 -0.4294 -0.2462
  844TIP3    H126727   1.641   2.907  17.365  1.4422 -0.8397  0.4072
  844TIP3    H226728   1.661   2.910  17.515 -0.8790 -2.6187  0.8015
  845TIP3   OH226729   0.391   2.934  19.029  0.0071  0.1327 -0.3300
  845TIP3    H126730   0.464   2.948  18.969  0.4729  1.8984  0.5794
  845TIP3    H226731   0.346   2.857  18.995  2.8321 -1.6106 -0.3462
  846TIP3   OH226732   3.519   1.551  18.250  0.4059 -0.1870  0.7643
  846TIP3    H126733   3.452   1.591  18.196  0.8554  0.8439  0.9397
  846TIP3    H226734   3.592   1.535  18.190  0.2499 -0.6956  0.7080
  847TIP3   OH226735   5.377   2.061  18.377 -0.3891  0.5596  0.1854
  847TIP3    H126736   5.400   2.073  18.469  1.0528 -0.9635  0.0597
  847TIP3    H226737   5.284   2.038  18.379 -0.1002 -0.6476  1.3822
  848TIP3   OH226738   0.693   1.809  18.935 -1.0297 -0.3045 -0.5292
  848TIP3    H126739   0.760   1.861  18.978  0.0419 -2.7577  1.0459
  848TIP3    H226740   0.742   1.739  18.890 -2.4140 -2.6074  1.2869
  849TIP3   OH226741   7.581   3.732  18.764  0.5419  0.5232 -0.1537
  849TIP3    H126742   7.580   3.645  18.726 -0.1571  0.5906 -0.3014
  849TIP3    H226743   7.668   3.767  18.742  2.9025 -1.8794  3.9543
  850TIP3   OH226744   6.910   7.225  17.237 -0.2775 -0.1783 -0.0360
  850TIP3    H126745   6.861   7.213  17.156  1.0299 -2.0608 -0.5977
  850TIP3    H226746   6.947   7.313  17.230  0.4863 -0.6229 -1.8681
  851TIP3   OH226747   2.039   6.535  17.358 -0.7766 -0.2077  0.2333
  851TIP3    H126748   2.043   6.506  17.266 -1.5148 -2.5485  0.8701
  851TIP3    H226749   2.002   6.460  17.405 -0.3909  0.9252  2.4685
  852TIP3   OH226750   6.258   5.960  17.626  0.7105  0.3336  0.0881
  852TIP3    H126751   6.192   6.004  17.572 -0.4466  0.0202  1.2244
  852TIP3    H226752   6.239   5.987  17.715  0.4998 -1.7957  0.7360
  853TIP3   OH226753   5.097   4.914  16.814 -0.0108  0.5948  0.1127
  853TIP3    H126754   5.135   4.998  16.788  0.7049 -0.0296 -0.8982
  853TIP3    H226755   5.032   4.937  16.880 -0.0033  1.9753 -0.3335
  854TIP3   OH226756   7.327   0.283  18.782 -0.2834  0.0469 -0.1145
  854TIP3    H126757   7.343   0.367  18.826 -1.3490 -0.0467  0.4750
  854TIP3    H226758   7.317   0.305  18.690 -1.4763  0.7019  0.1580
  855TIP3   OH226759   2.870   2.830  18.374  0.0931  0.0213  0.7104
  855TIP3    H126760   2.852   2.833  18.468  1.1851 -0.2581  0.9361
  855TIP3    H226761   2.928   2.904  18.358  0.6240 -0.4539  0.4183
  856TIP3   OH226762   7.232   0.670  19.121 -0.1313 -0.3068  0.1086
  856TIP3    H126763   7.320   0.668  19.161 -0.2581  0.6951  0.4752
  856TIP3    H226764   7.227   0.756  19.079 -0.5269 -0.8044 -0.8836
  857TIP3   OH226765   3.362   0.938  18.781 -0.0859 -0.1728 -0.5182
  857TIP3    H126766   3.380   1.005  18.715  1.0361 -0.6636 -0.7397
  857TIP3    H226767   3.325   0.865  18.730 -0.0172 -0.2333 -0.4809
  858TIP3   OH226768   7.513   6.514  17.835 -0.1372 -0.4772  0.1613
  858TIP3    H126769   7.481   6.430  17.868 -0.9613 -0.4811 -0.5731
  858TIP3    H226770   7.601   6.496  17.803  0.2266 -0.7278  1.2858
  859TIP3   OH226771   3.694   7.076  18.860 -0.0849  0.1365 -0.0081
  859TIP3    H126772   3.682   6.981  18.854 -0.8265  0.1971  0.4679
  859TIP3    H226773   3.732   7.100  18.776  1.1404 -0.7299  0.2585
  860TIP3   OH226774   2.045   5.135  18.710  0.1928 -0.0130  0.3391
  860TIP3    H126775   2.084   5.118  18.796  0.8280 -0.4437 -0.0251
  860TIP3    H226776   2.120   5.149  18.653 -0.2084 -0.4239 -0.2914
  861TIP3   OH226777   4.161   6.889  18.301 -0.2054  0.3141 -0.2220
  861TIP3    H126778   4.253   6.904  18.278 -0.5136  2.7466 -0.1744
  861TIP3    H226779   4.116   6.880  18.217 -0.1418  0.7040 -0.2976
  862TIP3   OH226780   7.602   5.375  19.122 -0.5880  0.1982  0.2085
  862TIP3    H126781   7.670   5.443  19.119 -0.7346  0.3243 -0.1744
  862TIP3    H226782   7.530   5.416  19.171 -0.7449  0.3784 -0.1742
  863TIP3   OH226783   6.671   6.633  19.368 -0.1263 -0.3555  0.0469
  863TIP3    H126784   6.755   6.674  19.388  0.4712 -2.3413  1.9829
  863TIP3    H226785   6.645   6.589  19.450 -0.8337 -3.5165 -1.6942
  864TIP3   OH226786   0.322   5.133  18.904 -0.0137  0.4280 -0.6162
  864TIP3    H126787   0.236   5.097  18.880 -1.3115  2.1496  1.1718
  864TIP3    H226788   0.376   5.056  18.923 -2.1726 -0.6843  1.4756
  865TIP3   OH226789   7.492   7.446  17.780  0.5523  0.0451 -0.3818
  865TIP3    H126790   7.557   7.485  17.838  0.4848  1.7783 -1.4009
  865TIP3    H226791   7.541   7.381  17.730  0.9729 -0.3035  0.4674
  866TIP3   OH226792   1.664   7.511  19.097 -0.4797 -0.1520  0.6464
  866TIP3    H126793   1.597   7.480  19.036  0.2315 -1.4239  0.4718
  866TIP3    H226794   1.663   7.447  19.168  0.5154 -0.1668  0.6600
  867TIP3   OH226795   3.927   5.454  18.227  0.5820  0.1878  0.1562
  867TIP3    H126796   3.956   5.403  18.151  1.3002  0.8997 -0.0619
  867TIP3    H226797   4.004   5.458  18.284 -0.6027 -2.5218  2.2051
  868TIP3   OH226798   5.428   3.696  18.225  0.6345  0.0749  0.4989
  868TIP3    H126799   5.431   3.622  18.286  0.5384 -1.5053 -1.2967
  868TIP3    H226800   5.505   3.684  18.170 -1.0120 -0.5842 -1.8244
  869TIP3   OH226801   0.754   1.739  17.254 -0.4358 -0.1153 -0.1548
  869TIP3    H126802   0.829   1.781  17.213 -1.0284  0.7569 -0.3761
  869TIP3    H226803   0.678   1.774  17.207 -1.0146 -0.5181  0.4587
  870TIP3   OH226804   5.900   2.036  17.213 -0.6456  0.0097  0.2302
  870TIP3    H126805   5.859   2.043  17.127  0.3611 -0.3557 -0.3005
  870TIP3    H226806   5.939   2.123  17.228  0.5276 -0.3966 -0.4021
  871TIP3   OH226807   4.768   4.715  16.747  0.1469 -0.1599 -0.4856
  871TIP3    H126808   4.723   4.727  16.663  1.3462 -1.0349 -1.2932
  871TIP3    H226809   4.698   4.718  16.812 -0.6640  2.1477 -1.3295
  872TIP3   OH226810   4.730   3.406  17.201  0.3890  0.6309 -0.1627
  872TIP3    H126811   4.760   3.492  17.229  2.5372  0.3402 -1.2932
  872TIP3    H226812   4.778   3.389  17.119  1.5254 -2.3749  0.9740
  873TIP3   OH226813   3.057   6.411  18.629 -0.1311  0.4918 -0.1227
  873TIP3    H126814   2.982   6.467  18.608 -1.1659 -0.6244  0.4468
  873TIP3    H226815   3.027   6.323  18.608  1.0187  0.0184  0.1684
  874TIP3   OH226816   1.574   5.951  18.428 -0.5866  0.1492 -0.0572
  874TIP3    H126817   1.611   5.926  18.343  0.1213 -1.1749  0.6075
  874TIP3    H226818   1.649   5.951  18.487 -1.2195  0.1389  0.7516
  875TIP3   OH226819   2.874   0.527  18.615 -0.2942  0.2811 -0.1022
  875TIP3    H126820   2.915   0.541  18.700 -1.4807 -0.2889  0.5929
  875TIP3    H226821   2.857   0.616  18.582  0.6450  0.5071  0.0008
  876TIP3   OH226822   4.938   5.374  18.240 -0.1565 -0.8810  0.5148
  876TIP3    H126823   4.892   5.311  18.296 -0.1031 -1.0425  0.3756
  876TIP3    H226824   4.891   5.373  18.157  1.7561 -3.2053 -0.6758
  877TIP3   OH226825   2.542   3.106  19.080 -0.3770  0.0141  0.8272
  877TIP3    H126826   2.602   3.032  19.076 -0.4237 -0.0337  0.9804
  877TIP3    H226827   2.597   3.183  19.066 -0.1525  0.0265  1.7154
  878TIP3   OH226828   0.393   5.057  18.256  0.1376 -0.0749  0.2787
  878TIP3    H126829   0.428   5.140  18.224  0.7818 -0.7361 -0.7547
  878TIP3    H226830   0.447   5.036  18.332  1.0527 -0.3532 -0.4321
  879TIP3   OH226831   4.084   1.915  18.180 -0.0565  0.3624 -0.3074
  879TIP3    H126832   3.993   1.913  18.208  0.2482  0.6703  0.7420
  879TIP3    H226833   4.084   1.869  18.096 -1.0119 -0.4644  0.1274
  880TIP3   OH226834   4.022   1.903  18.793  0.2387 -0.3548  0.3981
  880TIP3    H126835   4.054   1.824  18.836  0.3607  0.1107  1.1762
  880TIP3    H226836   4.093   1.928  18.734  0.1260 -0.9203  0.0132
  881TIP3   OH226837   3.810   0.350  18.994  0.1095 -0.1254 -0.2049
  881TIP3    H126838   3.835   0.439  19.021  0.2440 -0.1351 -0.2983
  881TIP3    H226839   3.889   0.298  19.009 -0.1833 -0.3677  0.5115
  882TIP3   OH226840   6.425   5.120  16.561  0.2733  0.6487  0.6248
  882TIP3    H126841   6.425   5.211  16.592  3.0200  0.8650  0.2645
  882TIP3    H226842   6.479   5.121  16.482 -1.1325 -1.0375 -0.4324
  883TIP3   OH226843   5.129   2.688  16.886  0.0632  0.4326 -0.3244
  883TIP3    H126844   5.209   2.661  16.932  0.1227  0.4693 -0.4066
  883TIP3    H226845   5.144   2.781  16.866  0.6868  0.0468 -1.7627
  884TIP3   OH226846   6.721   2.165  19.480  0.1764  0.1431 -0.4078
  884TIP3    H126847   6.657   2.208  19.536  0.2204 -0.3631  0.0329
  884TIP3    H226848   6.684   2.172  19.392 -0.2683  0.2530 -0.2177
  885TIP3   OH226849   7.118   0.199  17.310  0.1458  0.3655 -0.1266
  885TIP3    H126850   7.084   0.284  17.284  0.7633  0.5157 -0.4706
  885TIP3    H226851   7.213   0.208  17.302  0.3480  0.2964  1.8279
  886TIP3   OH226852   1.141   0.018  19.496  0.3754 -0.2309 -0.2623
  886TIP3    H126853   1.073   0.029  19.430  0.2143  0.1959 -0.0333
  886TIP3    H226854   1.215   0.070  19.464  0.2802  0.0164 -0.0928
  887TIP3   OH226855   7.493   1.811  18.179 -0.4286  0.3216  0.7012
  887TIP3    H126856   7.525   1.768  18.099 -1.2089  0.9704  0.0231
  887TIP3    H226857   7.561   1.794  18.244 -0.3154 -1.2029  0.2211
  888TIP3   OH226858   1.275   6.471  19.212 -0.0695 -0.0452 -0.2071
  888TIP3    H126859   1.236   6.493  19.296 -0.9395 -0.2978 -0.5311
  888TIP3    H226860   1.237   6.534  19.150 -0.8642 -0.9995 -0.7309
  889TIP3   OH226861   4.113   1.029  17.013  0.3783  0.3722 -0.8392
  889TIP3    H126862   4.206   1.017  17.032  0.3734 -0.9680 -1.5078
  889TIP3    H226863   4.098   0.977  16.934 -0.9395  0.5786 -0.7482
  890TIP3   OH226864   5.837   7.308  17.392  0.1331 -0.1152 -0.2272
  890TIP3    H126865   5.900   7.288  17.323  0.5211  2.4474 -0.7211
  890TIP3    H226866   5.880   7.282  17.473  0.2455 -1.8702 -0.8094
  891TIP3   OH226867   5.928   0.237  19.451 -0.1220 -0.3454  0.0517
  891TIP3    H126868   5.868   0.162  19.456  0.3141 -0.6066  1.6813
  891TIP3    H226869   5.886   0.304  19.505 -0.8618  0.8955 -1.9410
  892TIP3   OH226870   6.805   1.616  17.461  0.1864  0.3011 -0.1975
  892TIP3    H126871   6.780   1.674  17.389 -2.0313  0.6179  0.7383
  892TIP3    H226872   6.884   1.657  17.498 -0.4955  1.9655 -0.4636
  893TIP3   OH226873   0.927   0.594  18.704 -0.5470 -0.4895  0.0501
  893TIP3    H126874   0.984   0.671  18.701 -1.3640  0.1440  0.5232
  893TIP3    H226875   0.842   0.626  18.675 -1.8826 -0.2789  3.6944
  894TIP3   OH226876   2.650   5.633  18.139 -0.1399 -0.8996 -0.0866
  894TIP3    H126877   2.717   5.701  18.143 -0.9813 -0.0886  0.8680
  894TIP3    H226878   2.638   5.617  18.045  0.2831  0.0641 -0.3187
  895TIP3   OH226879   7.470   0.688  17.264  0.3267  0.5837 -0.6381
  895TIP3    H126880   7.495   0.598  17.281 -2.3281 -0.1331 -0.0239
  895TIP3    H226881   7.443   0.688  17.172 -0.0009  0.6496 -0.5436
  896TIP3   OH226882   6.604   1.443  17.998 -0.3198 -0.0561 -0.1663
  896TIP3    H126883   6.601   1.505  18.071 -0.6678  0.8683 -0.9417
  896TIP3    H226884   6.652   1.368  18.033  1.1818  1.1201  0.4517
  897TIP3   OH226885   3.467   5.278  18.685 -0.0118  0.0901 -0.0286
  897TIP3    H126886   3.537   5.250  18.744  0.5602  2.0183  0.3030
  897TIP3    H226887   3.506   5.275  18.598 -0.0144 -0.3015 -0.0155
  898TIP3   OH226888   1.367   2.139  18.538  0.0515 -0.0773  0.7083
  898TIP3    H126889   1.372   2.180  18.452  1.2251 -4.4118 -1.5636
  898TIP3    H226890   1.445   2.170  18.584 -0.1649  1.6642 -0.0125
  899TIP3   OH226891   2.031   5.897  17.726 -0.2875 -0.3673 -0.3332
  899TIP3    H126892   2.082   5.825  17.688 -0.2621 -1.4462  1.5830
  899TIP3    H226893   2.002   5.948  17.651 -0.6376 -2.5903 -1.8355
  900TIP3   OH226894   7.621   6.340  19.044 -0.3683 -0.3606 -0.5953
  900TIP3    H126895   7.625   6.305  18.955  0.9614 -1.5989 -0.1005
  900TIP3    H226896   7.673   6.278  19.096 -0.3929  0.8069  0.8849
  901TIP3   OH226897   3.842   4.722  17.045 -0.2490 -0.7588  0.1091
  901TIP3    H126898   3.920   4.681  17.008 -0.6524 -0.5179 -1.0846
  901TIP3    H226899   3.786   4.649  17.071  0.2344 -0.9336  0.6672
  902TIP3   OH226900   1.277   1.390  17.304  0.1385  0.1000  0.0321
  902TIP3    H126901   1.252   1.349  17.388 -0.6200 -1.2367 -0.8059
  902TIP3    H226902   1.219   1.349  17.240  1.4741  0.2623 -1.3273
  903TIP3   OH226903   0.938   5.039  18.997  0.3062 -0.1411 -0.0720
  903TIP3    H126904   0.871   5.060  18.932  2.0057  1.3408 -1.4766
  903TIP3    H226905   0.962   5.124  19.035 -0.6760 -0.9662  2.6250
  904TIP3   OH226906   7.026   6.366  17.488 -0.7364 -0.0098 -0.3299
  904TIP3    H126907   6.977   6.284  17.500 -0.7260 -0.1439 -1.1725
  904TIP3    H226908   7.060   6.386  17.575 -0.3331 -1.1665 -0.2048
  905TIP3   OH226909   1.621   2.580  17.748 -0.6326  0.1783 -0.1827
  905TIP3    H126910   1.655   2.583  17.659 -0.7412 -1.3514 -0.2983
  905TIP3    H226911   1.587   2.491  17.758  0.1489  0.0369  1.6631
  906TIP3   OH226912   6.034   4.842  19.588 -0.3355 -0.3295 -0.1337
  906TIP3    H126913   6.104   4.892  19.545  0.3328  1.5666  2.8367
  906TIP3    H226914   6.079   4.771  19.634 -0.4067  0.3943  1.1003
  907TIP3   OH226915   6.118   4.266  19.116  0.1009 -0.2285 -0.2727
  907TIP3    H126916   6.157   4.345  19.078 -1.3614  2.0630  2.5962
  907TIP3    H226917   6.188   4.228  19.169 -0.3229  1.7660  1.8793
  908TIP3   OH226918   4.599   7.198  19.472  0.3378  0.5180  0.3693
  908TIP3    H126919   4.681   7.167  19.435 -0.1724 -0.4951  0.0526
  908TIP3    H226920   4.624   7.264  19.536  1.2828  2.1611 -1.5687
  909TIP3   OH226921   6.481   5.901  16.594 -0.0277  0.5160 -0.1090
  909TIP3    H126922   6.538   5.979  16.596  1.9047 -0.8277  0.5388
  909TIP3    H226923   6.527   5.841  16.535  0.1998 -1.3065  1.8340
  910TIP3   OH226924   5.380   0.158  17.216  0.6382 -0.0193  0.5955
  910TIP3    H126925   5.405   0.088  17.155 -2.3286 -0.6095 -0.0855
  910TIP3    H226926   5.337   0.112  17.288 -0.6264  1.0270  0.5365
  911TIP3   OH226927   2.545   3.459  19.506  0.0410  0.3161  0.5367
  911TIP3    H126928   2.461   3.490  19.473  0.6061 -1.0252 -2.5425
  911TIP3    H226929   2.527   3.371  19.540  0.0082  0.4795  0.9473
  912TIP3   OH226930   6.781   1.851  17.887  0.1221  0.0865  0.4967
  912TIP3    H126931   6.760   1.882  17.799 -0.1734 -1.8266 -0.1403
  912TIP3    H226932   6.847   1.913  17.919  0.7368  0.4338 -1.3298
  913TIP3   OH226933   7.218   6.056  17.462  0.3092 -0.3357  0.1065
  913TIP3    H126934   7.284   5.998  17.422  1.0178  0.5749 -0.0910
  913TIP3    H226935   7.160   6.080  17.389  0.3676 -0.3291  0.0618
  914TIP3   OH226936   6.412   0.928  19.599  0.2310  0.4388  0.9598
  914TIP3    H126937   6.324   0.890  19.607  0.1765  0.2854 -0.1871
  914TIP3    H226938   6.469   0.868  19.646 -0.1811  0.1454  1.0889
  915TIP3   OH226939   6.946   1.225  16.835  0.5106 -0.1532  0.2223
  915TIP3    H126940   6.920   1.132  16.831  0.7437 -0.1923 -0.8384
  915TIP3    H226941   7.017   1.227  16.899  0.7343 -0.7744  0.0065
  916TIP3   OH226942   4.043   4.263  18.085 -0.1949  0.1068  0.0774
  916TIP3    H126943   4.117   4.300  18.038  1.1453  1.0722  2.7546
  916TIP3    H226944   4.061   4.170  18.089  0.6801  0.2817  0.3524
  917TIP3   OH226945   7.388   3.188  17.395 -0.4674  0.3378  0.0346
  917TIP3    H126946   7.311   3.184  17.453 -0.3182 -1.5411  0.1769
  917TIP3    H226947   7.446   3.119  17.428 -0.4980 -1.0125 -2.4897
  918TIP3   OH226948   0.621   3.147  19.422  0.2034 -0.8472 -0.1636
  918TIP3    H126949   0.696   3.147  19.362  0.6612 -0.1219  0.3866
  918TIP3    H226950   0.655   3.105  19.501  0.2502  0.1233  0.3427
  919TIP3   OH226951   4.876   2.222  17.200  0.0926 -0.7607 -0.8738
  919TIP3    H126952   4.874   2.128  17.183  0.2050 -0.6086 -1.7902
  919TIP3    H226953   4.827   2.261  17.128 -1.6665 -0.2242  0.5366
  920TIP3   OH226954   0.779   6.180  19.208 -0.0048  0.1578 -0.1733
  920TIP3    H126955   0.690   6.162  19.236 -0.0415 -0.6945 -0.8211
  920TIP3    H226956   0.803   6.261  19.255  0.5086 -1.9528  3.6733
  921TIP3   OH226957   7.185   6.225  17.864  0.6059 -0.0862  0.0471
  921TIP3    H126958   7.153   6.311  17.836  2.4312  0.8342  0.6568
  921TIP3    H226959   7.168   6.222  17.958 -1.8102 -1.5102 -0.3653
  922TIP3   OH226960   1.942   3.670  18.646 -0.2772  0.3219  0.0131
  922TIP3    H126961   1.891   3.748  18.670 -1.7471 -0.1669 -1.3448
  922TIP3    H226962   1.904   3.599  18.698  1.1637  0.4708  1.3700
  923TIP3   OH226963   6.171   6.329  19.599 -0.2544  0.5109  0.6621
  923TIP3    H126964   6.202   6.328  19.508 -1.3906 -2.7021  0.2021
  923TIP3    H226965   6.103   6.397  19.600 -1.1023 -0.2517 -1.2486
  924TIP3   OH226966   2.900   1.948  18.458  0.2740 -0.6515 -0.1479
  924TIP3    H126967   2.885   1.892  18.382  0.9032 -0.2203 -0.5941
  924TIP3    H226968   2.983   1.918  18.495 -1.1228 -2.4502  1.8074
  925TIP3   OH226969   2.874   6.511  17.143 -0.3453 -0.0556 -0.1367
  925TIP3    H126970   2.948   6.457  17.116 -0.0784  0.0998  0.2721
  925TIP3    H226971   2.902   6.550  17.226 -0.7126  0.3526 -0.2023
  926TIP3   OH226972   1.619   0.840  19.040  0.2319 -0.1711 -0.4418
  926TIP3    H126973   1.661   0.913  18.995 -1.1141  1.8834  1.4020
  926TIP3    H226974   1.674   0.824  19.117 -1.0969  1.0687  0.8194
  927TIP3   OH226975   6.282   6.000  17.149 -0.0416  0.7525 -0.1684
  927TIP3    H126976   6.230   6.079  17.128  0.9125  1.1464 -1.1376
  927TIP3    H226977   6.372   6.025  17.128  0.9935  0.9116  3.7332
  928TIP3   OH226978   7.677   0.687  17.043 -0.2070 -0.4650 -0.1072
  928TIP3    H126979   7.586   0.716  17.034 -0.1582  0.1730  1.2854
  928TIP3    H226980   7.700   0.655  16.955 -1.6131 -0.2048 -0.6046
  929TIP3   OH226981   4.337   0.277  17.182 -0.2901  0.1948 -0.4652
  929TIP3    H126982   4.281   0.333  17.128 -0.5344 -1.4592 -2.0000
  929TIP3    H226983   4.276   0.236  17.244 -0.2135  1.0611  0.2022
  930TIP3   OH226984   3.050   0.883  17.227  0.2359  0.6579  0.1146
  930TIP3    H126985   2.976   0.853  17.174 -0.7896 -1.7545  2.6649
  930TIP3    H226986   3.120   0.820  17.208  0.4693  0.8649  0.2752
  931TIP3   OH226987   6.981   3.513  19.411  0.2542  0.0798  0.0535
  931TIP3    H126988   7.054   3.469  19.369 -0.3009 -1.8808  1.0230
  931TIP3    H226989   6.962   3.461  19.489  0.0436  2.5088  1.7618
  932TIP3   OH226990   6.934   4.132  17.772 -0.0952 -0.0818  0.1438
  932TIP3    H126991   7.005   4.143  17.835 -0.3807  0.9430  0.3076
  932TIP3    H226992   6.973   4.154  17.688  0.1866 -1.0887 -0.0094
  933TIP3   OH226993   3.010   3.300  17.932  0.0922 -0.5451  0.0070
  933TIP3    H126994   3.086   3.330  17.982 -0.2850  0.3207  0.0816
  933TIP3    H226995   3.048   3.260  17.853  0.6287 -0.0818  0.0224
  934TIP3   OH226996   6.730   1.476  19.316 -0.0999 -0.7007  0.0393
  934TIP3    H126997   6.667   1.453  19.385  1.5247 -0.6270  1.6398
  934TIP3    H226998   6.765   1.392  19.286 -0.6728 -0.7239 -0.5652
  935TIP3   OH226999   4.502   6.022  18.690 -0.9566  0.2149  0.8330
  935TIP3    H127000   4.559   5.948  18.671 -1.0962 -0.0160  1.3065
  935TIP3    H227001   4.425   5.984  18.732 -1.5108  0.5126  0.1067
  936TIP3   OH227002   5.213   2.120  17.542  0.0175  0.9360 -0.0339
  936TIP3    H127003   5.211   2.102  17.636 -1.0690 -2.9855 -0.6450
  936TIP3    H227004   5.121   2.119  17.515  0.3658 -2.0553 -1.6034
  937TIP3   OH227005   1.225   7.194  17.302 -0.3680  0.4135 -0.0459
  937TIP3    H127006   1.144   7.241  17.321 -0.3809  0.3528  0.0510
  937TIP3    H227007   1.198   7.120  17.249 -0.3598  0.4656 -0.1229
  938TIP3   OH227008   5.386   2.294  18.955 -0.7155 -0.0891 -0.0500
  938TIP3    H127009   5.317   2.359  18.973 -2.1043 -1.4972 -0.1091
  938TIP3    H227010   5.412   2.311  18.865 -0.7748  0.6395  0.0640
  939TIP3   OH227011   7.115   1.134  18.734 -0.1210  0.3441 -0.0723
  939TIP3    H127012   7.044   1.103  18.678  0.0164  0.2736 -0.2070
  939TIP3    H227013   7.074   1.145  18.820 -0.3177  0.3940 -0.1697
  940TIP3   OH227014   5.219   4.926  17.891 -0.6741 -0.3919 -0.1972
  940TIP3    H127015   5.205   5.012  17.932 -0.0511 -0.0200 -0.7437
  940TIP3    H227016   5.260   4.946  17.807 -0.5021 -1.2321 -0.3218
  941TIP3   OH227017   5.083   2.812  18.644 -0.0858  0.7028 -0.3069
  941TIP3    H127018   5.056   2.884  18.587 -3.8616 -0.3633 -0.1311
  941TIP3    H227019   5.018   2.811  18.714  2.3647 -0.2662  2.1168
  942TIP3   OH227020   2.566   0.269  17.882  0.2276  0.1957  0.3330
  942TIP3    H127021   2.601   0.299  17.798  0.2842 -1.8558 -0.4286
  942TIP3    H227022   2.471   0.277  17.873  0.1752 -0.9698 -0.3452
  943TIP3   OH227023   5.263   5.124  19.144  0.6100  0.1261  0.4837
  943TIP3    H127024   5.333   5.182  19.113  0.5438 -0.8236 -1.6696
  943TIP3    H227025   5.229   5.083  19.064 -0.8793 -1.1605  1.7010
  944TIP3   OH227026   3.179   7.326  19.198 -0.1607  0.6413  0.4239
  944TIP3    H127027   3.184   7.290  19.286 -0.7952  0.9460  0.5902
  944TIP3    H227028   3.101   7.382  19.199 -0.3527  0.3974 -0.4251
  945TIP3   OH227029   0.883   3.594  18.124 -0.7861 -0.1772  0.4814
  945TIP3    H127030   0.903   3.672  18.072  1.6763 -0.3938  0.9669
  945TIP3    H227031   0.884   3.624  18.215 -1.0587 -0.5408  0.6089
  946TIP3   OH227032   3.333   3.813  18.295 -0.1971  0.0685  0.0887
  946TIP3    H127033   3.354   3.827  18.203  0.2258  0.1727  0.1994
  946TIP3    H227034   3.407   3.850  18.343  0.1289 -0.9953  0.4384
  947TIP3   OH227035   5.211   0.685  17.565 -0.0283 -0.0299  0.2038
  947TIP3    H127036   5.148   0.634  17.515 -0.4063 -0.9754  1.5809
  947TIP3    H227037   5.171   0.695  17.651  1.0746  0.6019  0.6697
  948TIP3   OH227038   5.504   5.725  17.244  0.0419  0.8291 -0.2891
  948TIP3    H127039   5.498   5.727  17.148  0.8657 -1.7393 -0.4823
  948TIP3    H227040   5.506   5.632  17.265  1.1185  1.3328  2.1466
  949TIP3   OH227041   4.641   6.246  17.912  0.4518  0.2458 -0.4222
  949TIP3    H127042   4.692   6.171  17.884  1.5404  0.7253  0.2270
  949TIP3    H227043   4.592   6.215  17.989  2.2706  0.6531  0.9694
  950TIP3   OH227044   1.602   7.414  19.363  0.2853  0.3952  0.2538
  950TIP3    H127045   1.524   7.464  19.338  0.0698 -0.5430 -1.1030
  950TIP3    H227046   1.669   7.479  19.381  0.2089  1.2179 -2.0945
  951TIP3   OH227047   1.793   3.942  17.221  0.5331 -0.1805  0.1460
  951TIP3    H127048   1.770   3.849  17.211  0.2151  0.0609 -1.6693
  951TIP3    H227049   1.782   3.959  17.314  2.2001 -2.3842  0.8336
  952TIP3   OH227050   2.561   3.744  18.620 -0.6339 -0.4312  0.0111
  952TIP3    H127051   2.505   3.805  18.572 -0.8294 -0.4678  0.1909
  952TIP3    H227052   2.507   3.666  18.632 -0.4080 -0.6143 -0.1583
  953TIP3   OH227053   7.401   4.815  16.682  0.2570  0.4998 -0.2732
  953TIP3    H127054   7.357   4.899  16.696  1.0279  0.7707  0.7137
  953TIP3    H227055   7.493   4.838  16.672  0.2346 -0.0608 -2.1901
  954TIP3   OH227056   7.318   2.674  17.284  0.5063 -0.1815  0.7007
  954TIP3    H127057   7.327   2.734  17.210  0.5856 -1.7326 -0.5783
  954TIP3    H227058   7.381   2.707  17.348  1.7200  0.1655 -0.6150
  955TIP3   OH227059   2.671   6.886  17.630 -0.2262  0.0004 -0.6435
  955TIP3    H127060   2.594   6.879  17.685  0.3649  0.7260  0.3050
  955TIP3    H227061   2.685   6.797  17.596 -0.2793 -0.5780  0.8070
  956TIP3   OH227062   7.553   1.911  18.839  0.4187 -0.4133 -0.2851
  956TIP3    H127063   7.500   1.990  18.837  2.8259  1.3855  1.2193
  956TIP3    H227064   7.521   1.861  18.914  1.0448  0.8743  0.8883
  957TIP3   OH227065   6.047   5.568  18.684  0.2138  0.3071 -0.4334
  957TIP3    H127066   6.045   5.630  18.757  0.5342 -0.1332 -0.0449
  957TIP3    H227067   6.137   5.575  18.650  0.6361 -0.8245  0.3935
  958TIP3   OH227068   6.755   5.409  18.101 -0.3396  0.6178 -0.0832
  958TIP3    H127069   6.789   5.358  18.175 -1.4875 -0.7620 -0.4523
  958TIP3    H227070   6.784   5.361  18.023 -1.2084  0.6636 -0.4515
  959TIP3   OH227071   1.688   5.493  17.408  0.2140  0.7000  0.6343
  959TIP3    H127072   1.704   5.420  17.349  0.1495 -0.3774  1.9119
  959TIP3    H227073   1.593   5.508  17.402  0.1986  0.5608  0.5197
  960TIP3   OH227074   4.062   5.488  17.422  0.0666  0.2012 -0.4949
  960TIP3    H127075   4.096   5.549  17.356 -1.5195  1.2000 -0.4585
  960TIP3    H227076   3.982   5.453  17.382 -1.2220  1.2264  1.0364
  961TIP3   OH227077   6.519   1.631  17.051  0.4127  0.4464  0.2859
  961TIP3    H127078   6.442   1.684  17.032  0.2047 -0.2568 -0.9641
  961TIP3    H227079   6.492   1.541  17.031  2.0160  0.3565 -1.8181
  962TIP3   OH227080   2.378   4.883  17.486 -0.0507  0.0039 -0.0959
  962TIP3    H127081   2.317   4.879  17.559 -0.6976 -1.3506 -0.6740
  962TIP3    H227082   2.323   4.869  17.408  0.8093  0.0494 -0.7287
  963TIP3   OH227083   7.337   0.438  17.722 -0.2071  0.3278  0.4214
  963TIP3    H127084   7.383   0.506  17.771  1.0905  0.9811 -1.5756
  963TIP3    H227085   7.294   0.385  17.789 -0.9203  2.8252  2.1023
  964TIP3   OH227086   3.468   3.262  19.476  0.0552 -0.4367 -0.0558
  964TIP3    H127087   3.429   3.349  19.483  1.5696  0.3351 -0.7923
  964TIP3    H227088   3.530   3.269  19.404  0.9446 -1.8373  0.5278
  965TIP3   OH227089   1.152   5.649  18.836 -0.2546  0.2650 -0.4638
  965TIP3    H127090   1.180   5.654  18.745 -1.2649 -0.1772 -0.8116
  965TIP3    H227091   1.143   5.556  18.854 -0.0571  0.3494  0.0943
  966TIP3   OH227092   2.769   3.520  19.226 -0.1598  0.0888 -0.4663
  966TIP3    H127093   2.721   3.464  19.164  2.2851 -1.8540 -0.7453
  966TIP3    H227094   2.774   3.605  19.181 -0.6998 -0.5195 -1.7481
  967TIP3   OH227095   1.123   5.994  18.755 -0.1902 -0.1464  0.0179
  967TIP3    H127096   1.030   5.997  18.775 -0.1445 -2.4144  0.7653
  967TIP3    H227097   1.165   5.962  18.835  1.4053  1.8220  0.0683
  968TIP3   OH227098   0.360   1.353  18.684 -0.5387  0.0006 -0.3431
  968TIP3    H127099   0.359   1.378  18.591  0.4527 -0.4389 -0.4847
  968TIP3    H227100   0.370   1.435  18.731  1.7420  0.0233 -0.7625
  969TIP3   OH227101   7.030   3.009  16.851  0.1647 -0.6239 -0.1127
  969TIP3    H127102   7.016   2.951  16.776 -0.8449  0.7936 -1.1009
  969TIP3    H227103   7.113   3.052  16.834 -1.3513  1.8334 -2.0461
  970TIP3   OH227104   6.244   2.573  18.631 -0.2970  0.5231 -0.4136
  970TIP3    H127105   6.174   2.584  18.567  0.9376  1.6385 -1.6340
  970TIP3    H227106   6.299   2.503  18.596 -0.6815 -0.2453  0.4651
  971TIP3   OH227107   2.590   0.691  17.966 -0.0769  0.3173  0.5238
  971TIP3    H127108   2.647   0.614  17.955  0.7518  0.8950  0.6485
  971TIP3    H227109   2.504   0.654  17.984 -0.4050 -0.6361 -2.4606
  972TIP3   OH227110   3.627   3.321  17.461  0.0828  0.3484 -0.1280
  972TIP3    H127111   3.659   3.385  17.524 -1.3042 -0.0440  1.0333
  972TIP3    H227112   3.677   3.339  17.381  2.8285  0.0134  1.4072
  973TIP3   OH227113   7.034   4.648  17.926  0.4187  0.1166 -0.0330
  973TIP3    H127114   7.050   4.557  17.952 -0.7229 -0.5964 -1.6724
  973TIP3    H227115   6.949   4.669  17.966 -0.6760 -0.5269 -1.8875
  974TIP3   OH227116   1.920   0.838  19.296 -0.7937 -0.3979 -0.2478
  974TIP3    H127117   1.981   0.900  19.336  0.8067 -0.1257 -2.8739
  974TIP3    H227118   1.936   0.756  19.343 -0.6060  0.3903  1.1077
  975TIP3   OH227119   3.206   6.909  17.957 -0.3614 -0.1585  0.8765
  975TIP3    H127120   3.192   6.998  17.989 -2.4528  0.1057 -0.5935
  975TIP3    H227121   3.127   6.861  17.982 -0.5937 -0.7957 -0.9347
  976TIP3   OH227122   7.205   0.441  16.727 -0.3002  0.4726 -0.5130
  976TIP3    H127123   7.239   0.489  16.802 -0.8076 -1.4323  1.0067
  976TIP3    H227124   7.112   0.431  16.745 -0.1530 -1.3624 -0.5951
  977TIP3   OH227125   6.890   1.910  18.526  0.6851 -0.1946 -0.1812
  977TIP3    H127126   6.945   1.919  18.604  1.8554  1.5358 -1.1459
  977TIP3    H227127   6.842   1.993  18.521  1.5043  0.2179 -1.9147
  978TIP3   OH227128   0.598   4.442  18.175 -0.3004 -0.3466  0.7110
  978TIP3    H127129   0.567   4.388  18.247 -2.0023  1.7067  1.6507
  978TIP3    H227130   0.520   4.490  18.146  0.8988  0.8224 -0.7396
  979TIP3   OH227131   4.081   1.188  18.853 -0.3012 -0.1841 -0.1427
  979TIP3    H127132   4.155   1.133  18.826  0.3350  0.4085  0.3507
  979TIP3    H227133   4.008   1.158  18.800 -0.4644 -2.7779  1.3963
  980TIP3   OH227134   6.147   6.484  19.354 -0.2306  0.4633  0.0236
  980TIP3    H127135   6.148   6.554  19.288  0.2259  3.2148  2.7541
  980TIP3    H227136   6.075   6.507  19.412 -0.2690 -1.5761  0.8599
  981TIP3   OH227137   0.445   6.125  18.146 -0.2716  0.4478 -0.4631
  981TIP3    H127138   0.535   6.100  18.167 -0.0633  0.7801 -0.9277
  981TIP3    H227139   0.391   6.056  18.183  0.1840  0.1788 -0.2929
  982TIP3   OH227140   0.095   2.156  18.958 -0.2079  0.1968  0.4272
  982TIP3    H127141   0.061   2.067  18.945  0.3497  0.0523 -0.0856
  982TIP3    H227142   0.175   2.144  19.009  1.5907  0.0882 -2.2720
  983TIP3   OH227143   3.899   1.850  19.241  0.0788  0.0115 -0.4022
  983TIP3    H127144   3.905   1.939  19.205  0.0081 -0.1930 -0.9357
  983TIP3    H227145   3.807   1.839  19.265 -0.2552 -0.4630 -1.8092
  984TIP3   OH227146   1.421   1.578  18.209 -0.0885  0.6767  0.0956
  984TIP3    H127147   1.415   1.669  18.236 -1.9827  0.8137 -0.6366
  984TIP3    H227148   1.401   1.528  18.288 -2.2298  1.0114 -0.1636
  985TIP3   OH227149   3.119   3.285  19.363 -0.0377  0.4380  0.3171
  985TIP3    H127150   3.188   3.293  19.297 -2.0097 -1.7533 -2.2476
  985TIP3    H227151   3.101   3.375  19.390  2.4349  1.2137 -0.3717
  986TIP3   OH227152   5.273   6.341  18.336  0.2359  0.2679  0.3962
  986TIP3    H127153   5.331   6.412  18.363  0.6014 -0.7003  2.3382
  986TIP3    H227154   5.318   6.261  18.364 -0.9985 -0.6270 -0.0820
  987TIP3   OH227155   1.907   7.669  17.671  0.1625 -0.6582 -0.3550
  987TIP3    H127156   1.853   7.599  17.707  1.4851 -0.9793  1.1290
  987TIP3    H227157   1.994   7.630  17.660  0.9868  0.7453  0.7232
  988TIP3   OH227158   1.489   3.383  18.821  0.4646 -0.3233 -0.4548
  988TIP3    H127159   1.494   3.386  18.726  0.9447 -0.2258 -0.4314
  988TIP3    H227160   1.420   3.445  18.844  0.0868 -0.6328 -0.7597
  989TIP3   OH227161   6.491   3.980  17.829  0.6337  0.6505  0.4252
  989TIP3    H127162   6.575   3.975  17.784  0.3241  0.6763 -0.1627
  989TIP3    H227163   6.461   3.889  17.833  1.7946  0.3026  2.7938
  990TIP3   OH227164   1.815   1.820  18.096 -0.0012  0.0182 -0.1748
  990TIP3    H127165   1.769   1.794  18.016  2.2992 -0.1559 -1.5286
  990TIP3    H227166   1.772   1.902  18.122 -1.4137 -0.4165 -1.0449
  991TIP3   OH227167   2.039   5.397  17.771  0.4785  0.1945 -0.3731
  991TIP3    H127168   2.010   5.413  17.681  2.5082  2.0866 -0.7930
  991TIP3    H227169   1.960   5.373  17.819 -0.6254 -1.0474 -2.6768
  992TIP3   OH227170   4.448   3.126  17.565 -0.4391 -0.6588  0.5182
  992TIP3    H127171   4.479   3.188  17.632 -1.0796  0.3896 -0.1214
  992TIP3    H227172   4.468   3.169  17.482 -0.2826 -1.6367  0.0430
  993TIP3   OH227173   2.337   5.381  18.294 -0.3650  0.0057  0.3756
  993TIP3    H127174   2.393   5.371  18.372 -1.5235  1.9732  1.5541
  993TIP3    H227175   2.350   5.472  18.268 -2.6395  0.4056  0.4326
  994TIP3   OH227176   2.347   0.425  17.720 -0.6669 -0.7988 -0.0030
  994TIP3    H127177   2.288   0.377  17.662 -0.6646  1.0467 -1.6335
  994TIP3    H227178   2.422   0.447  17.664  0.4888 -1.0571  1.3887
  995TIP3   OH227179   1.299   5.701  17.920 -0.2867  0.2970  0.4562
  995TIP3    H127180   1.249   5.767  17.968 -1.2828 -0.8253  0.9957
  995TIP3    H227181   1.273   5.715  17.828 -2.4367 -0.9111  0.8161
  996TIP3   OH227182   4.914   5.337  18.997  0.5257 -0.5113  0.5605
  996TIP3    H127183   4.845   5.391  18.958 -1.2027 -0.8327  2.9270
  996TIP3    H227184   4.989   5.396  19.006 -0.5539  0.8361  0.9646
  997TIP3   OH227185   0.098   2.334  16.743 -0.0044 -0.0320  0.0502
  997TIP3    H127186   0.134   2.289  16.819  0.5278  0.4653  0.0958
  997TIP3    H227187   0.173   2.350  16.686 -0.2919  0.1926 -0.2726
  998TIP3   OH227188   0.623   3.117  17.722 -0.2390 -0.1997 -0.1734
  998TIP3    H127189   0.578   3.043  17.762  1.7428  0.4192  3.7284
  998TIP3    H227190   0.574   3.194  17.750 -0.1963  0.1890 -1.1129
  999TIP3   OH227191   0.930   3.071  17.512  0.3075  0.0126 -0.0297
  999TIP3    H127192   0.954   3.031  17.429 -0.7784 -2.6621  0.8267
  999TIP3    H227193   0.834   3.068  17.513  0.3166 -0.7576  1.6190
 1000TIP3   OH227194   6.331   5.061  18.971  0.1675  0.3705  0.0272
 1000TIP3    H127195   6.355   5.050  18.879  0.3886 -0.3769  0.1661
 1000TIP3    H227196   6.406   5.107  19.010  0.1966  0.4332 -0.1022
 1001TIP3   OH227197   5.931   1.077  17.907  0.6563 -0.0610  0.3264
 1001TIP3    H127198   5.854   1.021  17.904  1.5390 -1.4102  1.8145
 1001TIP3    H227199   6.001   1.022  17.943  1.7314  1.7978  1.2387
 1002TIP3   OH227200   0.248   0.096  18.728 -0.2826  0.2947 -0.3421
 1002TIP3    H127201   0.172   0.135  18.685 -1.1518 -0.3539  0.5414
 1002TIP3    H227202   0.213   0.059  18.810  1.4611  2.3109  1.4431
 1003TIP3   OH227203   3.471   0.537  18.909 -0.1714  0.4293 -0.2479
 1003TIP3    H127204   3.454   0.448  18.877 -0.4968 -0.1305  1.3694
 1003TIP3    H227205   3.546   0.568  18.858  0.6309 -1.1949 -0.1124
 1004TIP3   OH227206   6.021   5.194  19.035 -0.6800 -0.7739  0.0612
 1004TIP3    H127207   5.963   5.257  18.993  1.3767  1.7954  0.7472
 1004TIP3    H227208   6.082   5.167  18.966  0.1771  0.2724  0.3731
 1005TIP3   OH227209   5.979   7.313  18.532 -0.0013  0.3861  0.2978
 1005TIP3    H127210   5.929   7.345  18.607  0.1483 -2.4672  1.7177
 1005TIP3    H227211   6.061   7.280  18.570  0.6204  0.0111 -1.2916
 1006TIP3   OH227212   1.766   4.172  18.528  0.1086  0.2678  0.2065
 1006TIP3    H127213   1.850   4.126  18.521  0.0897  0.2108  0.3602
 1006TIP3    H227214   1.700   4.103  18.529  0.0563  0.3141  0.0462
 1007TIP3   OH227215   4.749   0.396  19.516  0.4329  0.0654 -0.0818
 1007TIP3    H127216   4.782   0.415  19.428  1.0609 -0.2964  0.0677
 1007TIP3    H227217   4.702   0.313  19.506  1.3109 -0.4702  0.0985
 1008TIP3   OH227218   2.244   1.167  17.529  0.5318 -0.2049  0.6942
 1008TIP3    H127219   2.169   1.196  17.478  1.6842  0.8901 -0.4150
 1008TIP3    H227220   2.274   1.087  17.485 -1.3108 -2.0380  2.4883
 1009TIP3   OH227221   5.716   7.647  19.484 -0.5043 -0.4650 -1.0836
 1009TIP3    H127222   5.647   7.641  19.417  0.2494 -0.6109 -1.8703
 1009TIP3    H227223   5.670   7.674  19.563 -1.5254 -0.9362 -1.4929
 1010TIP3   OH227224   3.387   5.853  18.983 -0.1823  0.0021 -0.5162
 1010TIP3    H127225   3.458   5.799  19.017 -0.5695  0.9702  2.0599
 1010TIP3    H227226   3.429   5.909  18.918  0.6228 -1.9190 -1.7361
 1011TIP3   OH227227   7.128   4.005  15.881 -0.0993  0.6700  0.6999
 1011TIP3    H127228   7.124   4.072  15.949 -0.3179  1.2070  0.1571
 1011TIP3    H227229   7.178   3.934  15.921  1.7978  1.8972  0.6479
 1012TIP3   OH227230   5.910   3.452  16.606 -0.8079  0.4305 -1.1332
 1012TIP3    H127231   5.839   3.511  16.580 -0.2395  0.8644 -1.7595
 1012TIP3    H227232   5.982   3.473  16.546 -0.2483 -0.2063 -0.7109
 1013TIP3   OH227233   4.290   1.084  17.635 -0.9083  0.1298  0.4175
 1013TIP3    H127234   4.319   1.079  17.726 -1.1514 -0.3336  0.4734
 1013TIP3    H227235   4.369   1.106  17.586 -0.3089 -1.6146  0.5105
 1014TIP3   OH227236   2.860   1.376  17.168  1.0507  0.3357  0.1825
 1014TIP3    H127237   2.893   1.361  17.080  0.3350  0.4021 -0.1017
 1014TIP3    H227238   2.772   1.411  17.156  1.1899  0.9771  0.9074
 1015TIP3   OH227239   4.685   6.230  19.344  0.2686  0.4619  0.0264
 1015TIP3    H127240   4.722   6.252  19.259 -0.2956  0.3887 -0.2422
 1015TIP3    H227241   4.662   6.137  19.337 -1.8066  0.9639 -0.5242
 1016TIP3   OH227242   1.719   4.113  18.919  0.0315  0.1565  0.1352
 1016TIP3    H127243   1.758   4.112  19.006  0.0934 -1.3434  0.1083
 1016TIP3    H227244   1.760   4.188  18.875 -0.6154  1.4592  1.6414
 1017TIP3   OH227245   3.943   4.279  18.338  0.1536 -0.2922 -0.2341
 1017TIP3    H127246   3.959   4.236  18.254  0.9520  1.2586 -0.9032
 1017TIP3    H227247   4.028   4.314  18.364  0.0454 -1.2114  1.5224
 1018TIP3   OH227248   1.763   1.919  18.856  0.0646  0.3765  0.1111
 1018TIP3    H127249   1.816   1.983  18.807  0.7241  0.4610  0.9053
 1018TIP3    H227250   1.791   1.931  18.947 -0.1932 -0.6838  0.3326
 1019TIP3   OH227251   5.461   7.577  17.140 -0.3094  0.1140 -0.1768
 1019TIP3    H127252   5.406   7.502  17.116 -0.2870  0.1170 -0.2380
 1019TIP3    H227253   5.551   7.542  17.138 -0.3173  0.0735  0.0550
 1020TIP3   OH227254   4.421   2.433  18.910  0.0093  0.6652 -0.1486
 1020TIP3    H127255   4.486   2.474  18.968 -1.1089  0.1099  1.5980
 1020TIP3    H227256   4.469   2.361  18.869  0.5486  0.2641  1.1020
 1021TIP3   OH227257   1.172   2.297  16.650 -1.0651 -0.4643 -0.0211
 1021TIP3    H127258   1.155   2.379  16.603 -0.4089 -0.0882  0.3836
 1021TIP3    H227259   1.120   2.232  16.604  0.0151 -0.2336 -1.6508
 1022TIP3   OH227260   4.069   1.694  18.953 -0.2631 -0.3331  0.5363
 1022TIP3    H127261   4.045   1.601  18.943 -2.1438  0.1949 -0.2016
 1022TIP3    H227262   4.066   1.709  19.047  1.2907 -1.2925  0.7822
 1023TIP3   OH227263   0.539   1.069  18.154 -0.3301  0.1655 -0.6904
 1023TIP3    H127264   0.471   1.029  18.101  0.2288 -1.7847 -0.0333
 1023TIP3    H227265   0.600   0.998  18.173  0.0373  1.0103  1.6700
 1024TIP3   OH227266   4.910   4.438  17.878  0.3882  0.1508 -0.8081
 1024TIP3    H127267   4.898   4.484  17.795 -1.4909  2.7097  0.7584
 1024TIP3    H227268   4.824   4.441  17.920  1.4164 -0.5248  1.4947
 1025TIP3   OH227269   0.690   1.864  18.321  0.3815  0.1384 -0.3117
 1025TIP3    H127270   0.622   1.815  18.275  0.1530  1.0806 -1.0003
 1025TIP3    H227271   0.692   1.825  18.409 -0.4511 -0.4657 -0.5506
 1026TIP3   OH227272   3.930   2.627  17.541 -0.1262 -0.3694  0.0124
 1026TIP3    H127273   3.881   2.666  17.614 -0.8138 -1.9731  0.4578
 1026TIP3    H227274   3.913   2.533  17.548  2.2157 -0.8834 -0.4596
 1027TIP3   OH227275   7.232   4.284  17.499  0.5261  0.5745 -0.0326
 1027TIP3    H127276   7.153   4.298  17.551  0.0102  1.8670 -1.0932
 1027TIP3    H227277   7.207   4.217  17.435  0.8266 -0.2274  0.6717
 1028TIP3   OH227278   6.735   5.101  17.925  0.0174  0.1591 -0.4521
 1028TIP3    H127279   6.774   5.187  17.912  0.7177 -0.0283  0.3322
 1028TIP3    H227280   6.784   5.043  17.866  3.0265 -0.6443  2.5137
 1029TIP3   OH227281   0.619   5.390  17.577  0.2634 -0.4567  0.2805
 1029TIP3    H127282   0.567   5.336  17.518 -0.3170 -2.6370  2.6512
 1029TIP3    H227283   0.572   5.474  17.579 -1.0478 -1.1344 -0.4672
 1030TIP3   OH227284   2.301   1.513  19.694 -0.3636 -0.4843  0.1302
 1030TIP3    H127285   2.326   1.443  19.634  0.5558 -0.7004  0.7428
 1030TIP3    H227286   2.248   1.469  19.761  1.6496 -0.9881  1.4890
 1031TIP3   OH227287   5.063   7.042  18.118 -0.0721  0.0026  0.3546
 1031TIP3    H127288   5.035   7.001  18.036  0.0574  1.2734 -0.3499
 1031TIP3    H227289   5.153   7.012  18.130 -0.4175 -0.9832  0.5721
 1032TIP3   OH227290   2.676   2.110  17.755 -0.7855  0.6337 -0.1024
 1032TIP3    H127291   2.748   2.090  17.815 -0.4839  1.0507 -0.3197
 1032TIP3    H227292   2.693   2.054  17.679 -0.1034  1.4754 -0.5895
 1033TIP3   OH227293   6.938   6.271  17.041  0.0833 -0.0454  0.0343
 1033TIP3    H127294   6.956   6.312  17.126 -1.7356  0.9695 -0.0175
 1033TIP3    H227295   6.849   6.238  17.048  0.6948 -2.0262 -0.7400
 1034TIP3   OH227296   7.540   4.793  18.626  0.1147  0.3600  0.6622
 1034TIP3    H127297   7.531   4.726  18.693  0.4296 -0.1805  0.1657
 1034TIP3    H227298   7.453   4.833  18.621 -0.2763 -0.4948  0.4554
 1035TIP3   OH227299   7.372   3.344  18.072 -0.1145  0.3357 -0.0720
 1035TIP3    H127300   7.400   3.406  18.005  0.2952 -1.5885 -1.7955
 1035TIP3    H227301   7.276   3.349  18.071 -0.0978  0.6740 -0.4778
 1036TIP3   OH227302   6.824   4.682  19.528  0.5996  0.2689  0.7250
 1036TIP3    H127303   6.877   4.656  19.604 -0.3402  1.8468  1.9950
 1036TIP3    H227304   6.792   4.599  19.491  1.3823 -0.5518  1.8176
 1037TIP3   OH227305   7.574   5.737  17.489 -0.0845 -0.2812  0.4596
 1037TIP3    H127306   7.601   5.651  17.457  0.1552  0.1564 -0.5161
 1037TIP3    H227307   7.501   5.762  17.432 -1.5276 -0.7150  2.0182
 1038TIP3   OH227308   2.791   2.311  18.042 -0.1241 -0.4559 -0.0874
 1038TIP3    H127309   2.761   2.220  18.046  0.8675 -0.7709  0.9071
 1038TIP3    H227310   2.744   2.354  18.114  1.6100 -0.9361  1.4320
 1039TIP3   OH227311   6.282   5.410  17.184  0.2577 -0.4106 -0.2976
 1039TIP3    H127312   6.191   5.418  17.157 -0.2247  0.0076  1.2992
 1039TIP3    H227313   6.323   5.359  17.115 -1.2992 -1.0339 -0.8180
 1040TIP3   OH227314   2.794   7.326  18.375 -0.4232  0.3451 -0.0691
 1040TIP3    H127315   2.762   7.344  18.463  0.6565 -2.6029  1.0426
 1040TIP3    H227316   2.887   7.349  18.377 -0.7206  1.7106 -0.9439
 1041TIP3   OH227317   1.879   3.408  19.283  0.1368  0.5244 -0.0551
 1041TIP3    H127318   1.922   3.382  19.202 -0.1188  0.4213 -0.1586
 1041TIP3    H227319   1.824   3.333  19.306 -1.1174  1.2189 -0.7040
 1042TIP3   OH227320   4.856   4.088  17.829 -0.0346  0.0742 -0.1661
 1042TIP3    H127321   4.871   4.014  17.770  0.2361 -0.1486  0.1681
 1042TIP3    H227322   4.761   4.100  17.830 -0.0025  0.4862 -1.1221
 1043TIP3   OH227323   2.130   4.524  16.902  0.3476  0.5274  0.0992
 1043TIP3    H127324   2.149   4.586  16.972 -0.1643 -0.6347  1.3092
 1043TIP3    H227325   2.040   4.543  16.876  0.0420  0.0426  0.7670
 1044TIP3   OH227326   1.212   7.668  19.755 -0.1386 -0.0588 -0.1660
 1044TIP3    H127327   1.193   7.688  19.664  0.9960 -0.7186 -0.5780
 1044TIP3    H227328   1.267   7.741  19.785 -2.0669  1.1565  0.6129
 1045TIP3   OH227329   3.189   1.362  17.647  0.2509 -0.1352 -0.3374
 1045TIP3    H127330   3.188   1.443  17.699  1.4214  1.2528 -2.3564
 1045TIP3    H227331   3.114   1.370  17.588  0.0281 -0.8241 -0.1582
 1046TIP3   OH227332   6.624   5.241  17.203 -0.5295 -0.1176  0.1196
 1046TIP3    H127333   6.626   5.334  17.227 -1.8033  0.7559 -2.6877
 1046TIP3    H227334   6.631   5.195  17.286  0.8648  2.4517  1.5661
 1047TIP3   OH227335   2.124   1.448  19.341  0.3116 -0.5690 -0.3855
 1047TIP3    H127336   2.078   1.508  19.401  0.5038 -0.5169 -0.2913
 1047TIP3    H227337   2.184   1.504  19.292  1.5123 -0.8852  0.6851
 1048TIP3   OH227338   0.931   4.392  17.670 -0.0629 -0.2347 -0.4050
 1048TIP3    H127339   0.989   4.468  17.664  1.9737 -1.6181  0.5537
 1048TIP3    H227340   0.879   4.394  17.590  0.4751  1.7310 -0.7456
 1049TIP3   OH227341   6.418   0.265  18.796  0.2850 -0.1613  0.4680
 1049TIP3    H127342   6.349   0.262  18.862 -0.1669  1.1549  0.0895
 1049TIP3    H227343   6.451   0.355  18.800 -0.6894  0.3871 -2.0019
 1050TIP3   OH227344   3.073   7.450  17.977  0.5290  0.2544 -0.1533
 1050TIP3    H127345   3.046   7.467  18.067  2.2207  0.2484  0.3999
 1050TIP3    H227346   3.109   7.534  17.946 -0.5024  0.3987 -1.0169
 1051TIP3   OH227347   4.285   3.669  17.449 -0.5739 -0.4413  0.1575
 1051TIP3    H127348   4.283   3.594  17.389  0.3016  0.3409 -0.8674
 1051TIP3    H227349   4.202   3.714  17.434 -0.6021 -0.5649 -0.0652
 1052TIP3   OH227350   6.802   1.237  18.009  0.2339  0.5266  0.0632
 1052TIP3    H127351   6.857   1.315  18.015  1.6797 -0.4130 -0.3474
 1052TIP3    H227352   6.774   1.235  17.917 -1.1714  1.4011  0.4286
 1053TIP3   OH227353   0.480   5.358  18.229 -0.2963 -0.6205 -0.5675
 1053TIP3    H127354   0.410   5.423  18.230  1.3896  1.3175  0.5822
 1053TIP3    H227355   0.517   5.364  18.140  0.2433  0.5060 -0.2848
 1054TIP3   OH227356   4.738   3.761  19.113 -0.4846 -0.2653 -0.2526
 1054TIP3    H127357   4.811   3.708  19.079  0.3896  0.7298  0.0012
 1054TIP3    H227358   4.780   3.839  19.148 -1.4748 -0.6262  1.9120
 1055TIP3   OH227359   0.948   6.194  18.183 -0.0302  0.1562 -0.2201
 1055TIP3    H127360   0.970   6.210  18.092  1.7147  1.9066  0.4104
 1055TIP3    H227361   1.026   6.152  18.220  0.1604  1.3593  0.8677
 1056TIP3   OH227362   7.430   3.957  17.599 -0.0057 -0.2366 -0.1016
 1056TIP3    H127363   7.383   3.910  17.668 -0.8021 -1.0203 -1.1404
 1056TIP3    H227364   7.427   4.048  17.626 -0.7020 -0.4770  0.6747
 1057TIP3   OH227365   4.024   4.920  17.460  0.2403 -0.0151 -0.0834
 1057TIP3    H127366   3.962   4.869  17.513 -1.3009 -0.7530 -2.4278
 1057TIP3    H227367   4.060   4.985  17.521 -1.5425 -0.6748  1.8042
 1058TIP3   OH227368   7.529   5.184  18.039 -0.1048  0.0095 -0.5227
 1058TIP3    H127369   7.587   5.214  17.969  1.0034 -0.1304  0.2969
 1058TIP3    H227370   7.551   5.240  18.114 -0.4650 -0.5735  0.0330
 1059TIP3   OH227371   3.752   5.701  16.976  0.2048  0.4257  0.0321
 1059TIP3    H127372   3.747   5.653  17.059  0.2836 -0.3964 -0.4298
 1059TIP3    H227373   3.684   5.662  16.922  1.1925 -0.1367 -0.8425
 1060TIP3   OH227374   3.328   2.351  18.343 -0.0794 -0.3533  0.0567
 1060TIP3    H127375   3.403   2.332  18.399  0.0829 -1.0699 -0.3899
 1060TIP3    H227376   3.285   2.266  18.331 -1.9758  0.2828  1.7058
 1061TIP3   OH227377   6.051   5.332  18.085 -0.5184  0.1192 -0.2869
 1061TIP3    H127378   6.101   5.253  18.105 -1.1724  0.3712  2.8673
 1061TIP3    H227379   5.973   5.300  18.040 -0.8630 -1.1368  1.0997
 1062TIP3   OH227380   6.449   2.604  19.491  0.1688  0.5114 -0.0234
 1062TIP3    H127381   6.386   2.645  19.550 -0.8178  0.1091 -0.7677
 1062TIP3    H227382   6.487   2.677  19.442  0.7018  0.8088  0.8091
 1063TIP3   OH227383   7.483   0.694  19.292  0.9831 -0.0051  1.0336
 1063TIP3    H127384   7.520   0.609  19.317 -1.1004 -1.2817  0.0973
 1063TIP3    H227385   7.432   0.721  19.369  0.9516 -0.0260  1.0206
 1064TIP3   OH227386   3.594   7.474  19.402 -0.2402  0.2644  0.0122
 1064TIP3    H127387   3.604   7.396  19.348 -1.1170 -0.2230  0.5210
 1064TIP3    H227388   3.673   7.477  19.456 -0.8138 -1.0874  0.9818
 1065TIP3   OH227389   7.354   3.915  19.711 -0.3052  0.6676 -0.4411
 1065TIP3    H127390   7.356   3.819  19.710  0.5469  0.5823  2.0884
 1065TIP3    H227391   7.446   3.940  19.723 -0.6751  1.7338  0.2264
 1066TIP3   OH227392   0.307   5.936  18.298 -0.1277  0.6178  0.1621
 1066TIP3    H127393   0.236   5.882  18.332  0.6689 -1.1668 -0.8911
 1066TIP3    H227394   0.346   5.975  18.376 -3.0122  2.7637  0.7078
 1067TIP3   OH227395   7.099   5.586  18.587  0.1304  0.0037  0.2972
 1067TIP3    H127396   7.017   5.586  18.636 -0.5958 -0.1123 -0.8709
 1067TIP3    H227397   7.086   5.652  18.519 -0.1150 -1.8955 -1.6345
 1068TIP3   OH227398   7.424   0.990  17.962 -0.0014 -0.1718 -0.2313
 1068TIP3    H127399   7.407   1.077  17.927 -2.3419 -0.6966 -0.5269
 1068TIP3    H227400   7.359   0.934  17.921  0.7894 -1.8824  0.7427
 1069TIP3   OH227401   4.992   0.518  19.582  0.1701 -0.0760 -0.3037
 1069TIP3    H127402   5.056   0.472  19.635  0.1025 -0.2855 -0.4034
 1069TIP3    H227403   4.919   0.457  19.574  0.7125 -0.5762 -1.7284
 1070TIP3   OH227404   5.163   7.225  17.649  0.1348 -0.8781 -0.1594
 1070TIP3    H127405   5.187   7.247  17.559 -0.6637 -1.8199 -0.6126
 1070TIP3    H227406   5.166   7.130  17.653  2.5409 -0.8166  1.5021
 1071TIP3   OH227407   2.938   3.981  18.477 -0.1334 -0.0855  0.0155
 1071TIP3    H127408   2.890   4.053  18.518 -1.8232  0.0494 -2.0130
 1071TIP3    H227409   2.909   3.903  18.523  0.3057  0.3308  1.0225
 1072TIP3   OH227410   3.589   0.926  17.676  0.0200  0.0559  0.6421
 1072TIP3    H127411   3.602   0.861  17.746 -2.8503  1.3791  2.5805
 1072TIP3    H227412   3.661   0.988  17.688  0.5928 -0.6892  1.2238
 1073TIP3   OH227413   5.813   0.472  19.598 -0.3470  0.2594  0.5736
 1073TIP3    H127414   5.737   0.528  19.582 -0.8549  0.5524  3.4364
 1073TIP3    H227415   5.888   0.532  19.598 -0.7243  0.7877  2.2614
 1074TIP3   OH227416   7.151   0.946  19.038 -0.4101  0.2674  0.4958
 1074TIP3    H127417   7.125   0.972  19.127  0.2677  1.5871  0.3405
 1074TIP3    H227418   7.132   1.023  18.985 -0.4449 -0.3797 -0.4410
 1075TIP3   OH227419   7.139   3.977  19.533 -0.2262  0.0239 -0.1203
 1075TIP3    H127420   7.065   3.918  19.545 -2.6025  3.2992  3.5643
 1075TIP3    H227421   7.199   3.955  19.604  0.5822 -0.2066 -0.8632
 1076TIP3   OH227422   4.125   5.271  18.099  0.2453  0.9111  0.6754
 1076TIP3    H127423   4.212   5.277  18.137  0.9145  0.4958 -0.7241
 1076TIP3    H227424   4.139   5.276  18.005 -1.2672  1.0265  0.4246
 1077TIP3   OH227425   2.367   2.945  19.232  0.1138  0.1072 -0.5952
 1077TIP3    H127426   2.417   3.006  19.178 -1.8689  2.3064 -0.0921
 1077TIP3    H227427   2.431   2.880  19.261  2.2587  1.7527 -1.4188
 1078TIP3   OH227428   6.608   2.979  16.817  0.0691  0.0219 -0.0558
 1078TIP3    H127429   6.648   3.062  16.789  1.4408  0.5532  3.0573
 1078TIP3    H227430   6.534   3.006  16.872  0.1773 -0.8064  0.5129
 1079TIP3   OH227431   4.858   5.709  19.142  0.7766 -0.0017 -0.9057
 1079TIP3    H127432   4.952   5.722  19.134  1.0309 -1.0101  0.1661
 1079TIP3    H227433   4.832   5.669  19.059  0.8073  2.5201 -2.2444
 1080TIP3   OH227434   7.155   3.104  18.834  0.4081 -0.7210 -0.3412
 1080TIP3    H127435   7.074   3.072  18.874  1.8065  0.7640  4.3801
 1080TIP3    H227436   7.128   3.179  18.781 -1.3255  0.4040  1.9539
 1081TIP3   OH227437   0.928   4.651  18.910 -0.1292 -0.0951  0.9502
 1081TIP3    H127438   0.977   4.646  18.828  0.0025  0.4363  0.9910
 1081TIP3    H227439   0.874   4.572  18.911  0.4475 -0.4996  0.7232
 1082TIP3   OH227440   1.624   3.330  19.069 -0.2241 -0.4971  0.4873
 1082TIP3    H127441   1.692   3.263  19.075  0.8879  0.5038 -0.3392
 1082TIP3    H227442   1.611   3.343  18.975  0.5306  1.3118  0.5803
 1083TIP3   OH227443   3.809   4.675  18.168  0.3442  0.0527 -0.1251
 1083TIP3    H127444   3.801   4.588  18.128  0.2661 -0.6818  1.4178
 1083TIP3    H227445   3.898   4.677  18.205 -0.0066  0.2188  0.7373
 1084TIP3   OH227446   2.038   6.084  18.149  0.1143  0.1498 -0.2836
 1084TIP3    H127447   2.074   6.172  18.135 -0.4300  0.4639  0.2098
 1084TIP3    H227448   2.059   6.036  18.069  0.1150  0.8394 -0.7092
 1085TIP3   OH227449   6.241   1.735  18.024 -0.0204  0.0383 -0.7374
 1085TIP3    H127450   6.294   1.656  18.016  0.6039  0.6008 -2.8544
 1085TIP3    H227451   6.297   1.805  17.989 -0.7186  1.3628  0.6517
 1086TIP3   OH227452   7.004   6.564  18.808  0.7649 -0.3175  0.0979
 1086TIP3    H127453   6.932   6.504  18.826 -0.4777  0.6212 -1.5034
 1086TIP3    H227454   6.978   6.647  18.849  0.5155  0.2528 -1.1633
 1087TIP3   OH227455   5.747   3.507  19.458  0.7906  0.3415 -0.3883
 1087TIP3    H127456   5.670   3.478  19.506  0.0444  1.9978 -0.5412
 1087TIP3    H227457   5.802   3.428  19.452 -0.7945 -0.8333 -0.1493
 1088TIP3   OH227458   0.827   6.597  18.520 -0.0861 -0.0619 -0.1929
 1088TIP3    H127459   0.867   6.518  18.482  0.3734  0.2084 -0.2796
 1088TIP3    H227460   0.735   6.573  18.533 -0.1607 -0.3056 -1.0839
 1089TIP3   OH227461   7.570   4.934  18.950 -0.0046 -0.0480  0.1518
 1089TIP3    H127462   7.550   4.856  19.003 -1.0607  1.0021  1.3530
 1089TIP3    H227463   7.662   4.924  18.927  0.5469 -0.5082  2.3134
 1090TIP3   OH227464   0.736   5.371  18.355  0.2722  0.0908 -0.3539
 1090TIP3    H127465   0.761   5.379  18.263  0.3631 -0.3761 -0.3730
 1090TIP3    H227466   0.640   5.368  18.354  0.1772  1.9679 -0.2726
 1091TIP3   OH227467   6.993   4.162  17.317 -0.3594  0.1306  0.7693
 1091TIP3    H127468   7.014   4.088  17.373 -1.8969 -1.3576 -0.5183
 1091TIP3    H227469   6.906   4.190  17.345 -1.6670 -1.3610 -1.4555
 1092TIP3   OH227470   6.545   0.335  16.526  0.4195  0.5035 -0.2951
 1092TIP3    H127471   6.598   0.325  16.605  0.3171  2.6370  0.1272
 1092TIP3    H227472   6.606   0.325  16.454  0.7117 -0.4423  0.0689
 1093TIP3   OH227473   5.162   7.482  18.791  0.3370  0.1706 -0.5345
 1093TIP3    H127474   5.142   7.394  18.759 -0.3626 -0.5342  1.6620
 1093TIP3    H227475   5.097   7.498  18.859  0.7922  2.1793 -0.5289
 1094TIP3   OH227476   4.407   4.072  18.839 -0.2353  0.4854  0.0586
 1094TIP3    H127477   4.377   4.108  18.756  1.1195  1.1081 -0.1962
 1094TIP3    H227478   4.482   4.127  18.863 -0.0432 -0.2502  1.2401
 1095TIP3   OH227479   7.048   2.435  16.968  0.6147  0.3173  0.3967
 1095TIP3    H127480   7.087   2.411  16.885 -0.4458 -0.9399  0.2287
 1095TIP3    H227481   7.100   2.508  17.000  2.5299 -0.7331 -0.2111
 1096TIP3   OH227482   6.420   0.633  17.379 -0.2844 -0.1876 -0.6565
 1096TIP3    H127483   6.498   0.592  17.416  0.9649  1.2077 -1.6381
 1096TIP3    H227484   6.351   0.615  17.443  1.2655  0.2175  1.2415
 1097TIP3   OH227485   0.452   7.328  17.258  0.0673  0.2866 -0.0481
 1097TIP3    H127486   0.514   7.326  17.185  1.4357 -3.0232  1.0044
 1097TIP3    H227487   0.507   7.334  17.336 -1.1878  0.8054  0.8269
 1098TIP3   OH227488   1.794   5.074  17.317  0.8295 -0.1412  0.0747
 1098TIP3    H127489   1.753   5.021  17.249  0.1179  1.1293 -0.5324
 1098TIP3    H227490   1.881   5.037  17.327  1.3205  0.2319 -2.2583
 1099TIP3   OH227491   3.830   0.642  17.646 -0.8047 -0.5580  0.9851
 1099TIP3    H127492   3.871   0.572  17.595 -1.9127 -2.2682  2.3213
 1099TIP3    H227493   3.902   0.701  17.668 -0.2294  0.0640 -2.1538
 1100TIP3   OH227494   0.278   5.613  17.161 -0.4492  0.7209  0.1559
 1100TIP3    H127495   0.311   5.703  17.166 -0.6444  0.8122 -0.1359
 1100TIP3    H227496   0.212   5.616  17.092 -0.1598  0.2618 -0.1526
 1101TIP3   OH227497   1.982   6.281  17.474 -0.0369 -0.0549  0.6455
 1101TIP3    H127498   1.923   6.232  17.417  0.1189 -1.3458  1.5361
 1101TIP3    H227499   1.933   6.293  17.555  0.1287  0.8190  0.6233
 1102TIP3   OH227500   7.034   6.565  19.085  0.0011 -0.8244 -0.2316
 1102TIP3    H127501   6.941   6.542  19.081 -0.2125  0.2034 -2.0254
 1102TIP3    H227502   7.064   6.564  18.994  1.4661 -0.0511  0.2007
 1103TIP3   OH227503   5.730   6.125  18.074 -0.5596 -0.2643  0.5517
 1103TIP3    H127504   5.739   6.127  17.978 -2.8412 -1.8007  0.2402
 1103TIP3    H227505   5.675   6.201  18.094 -2.0522 -1.2457  0.3267
 1104TIP3   OH227506   2.362   1.204  17.769 -0.0460  0.7446  0.3052
 1104TIP3    H127507   2.444   1.244  17.740  0.0849 -0.2002 -0.6860
 1104TIP3    H227508   2.306   1.205  17.691 -0.0433 -0.9512  0.2442
 1105TIP3   OH227509   0.386   0.882  19.327 -0.2318  0.2084  0.4065
 1105TIP3    H127510   0.398   0.935  19.248 -1.1941  0.5317  0.4628
 1105TIP3    H227511   0.375   0.793  19.294 -1.1024  0.4083  0.1355
 1106TIP3   OH227512   5.542   1.695  18.299 -0.2739 -0.1441  0.2479
 1106TIP3    H127513   5.585   1.779  18.310 -1.7951  0.4456  2.1129
 1106TIP3    H227514   5.519   1.667  18.387 -2.2936 -1.1610 -0.5291
 1107TIP3   OH227515   4.277   5.883  18.801 -0.2995  0.1644 -0.3345
 1107TIP3    H127516   4.241   5.939  18.871 -1.4977  0.0748 -0.8584
 1107TIP3    H227517   4.202   5.865  18.744  0.6972  0.3826 -1.7518
 1108TIP3   OH227518   5.447   6.940  17.731  0.1889  0.0035  0.2593
 1108TIP3    H127519   5.357   6.917  17.753 -0.0076 -1.0701 -1.5385
 1108TIP3    H227520   5.440   7.009  17.666  0.5655 -1.5069 -1.4660
 1109TIP3   OH227521   6.044   0.392  18.793 -0.1212  0.2688  0.1761
 1109TIP3    H127522   6.126   0.400  18.743  0.0428 -0.6719  0.2742
 1109TIP3    H227523   6.065   0.331  18.863 -1.4312 -1.5844 -0.9618
 1110TIP3   OH227524   4.700   6.700  17.890  0.0859 -0.3849  0.6881
 1110TIP3    H127525   4.669   6.624  17.840 -0.8144 -0.5818  1.5296
 1110TIP3    H227526   4.646   6.701  17.969  0.2744  0.9668  0.8276
 1111TIP3   OH227527   6.316   3.123  17.966  0.2130 -0.8805 -0.4011
 1111TIP3    H127528   6.375   3.061  18.009  2.5518  1.1592 -0.3846
 1111TIP3    H227529   6.298   3.189  18.033 -2.5863 -1.6475 -0.2709
 1112TIP3   OH227530   3.260   5.441  18.621  0.4464 -0.0558 -0.9687
 1112TIP3    H127531   3.348   5.403  18.621  0.0817 -1.1744  2.0120
 1112TIP3    H227532   3.248   5.474  18.710 -1.9434  0.5923 -1.4546
 1113TIP3   OH227533   3.300   7.005  18.912 -0.6854 -0.0539  0.5621
 1113TIP3    H127534   3.339   6.926  18.873  0.5255  0.4199  0.7899
 1113TIP3    H227535   3.236   6.971  18.975 -0.7674 -0.8426  0.0762
 1114TIP3   OH227536   5.767   1.457  19.347 -0.2235  0.2164  0.2061
 1114TIP3    H127537   5.675   1.483  19.334 -0.5745 -0.8286  0.4693
 1114TIP3    H227538   5.802   1.522  19.408 -1.5474 -0.8328  2.1858
 1115TIP3   OH227539   4.867   6.105  18.915 -0.1564  0.2927 -0.3510
 1115TIP3    H127540   4.876   6.083  18.822  1.9173 -2.3874  0.3671
 1115TIP3    H227541   4.773   6.093  18.932 -0.1422 -2.1570 -1.5059
 1116TIP3   OH227542   6.691   4.252  18.812  0.2565  0.3814  0.5806
 1116TIP3    H127543   6.781   4.283  18.804  0.2467  0.0691 -0.8679
 1116TIP3    H227544   6.645   4.290  18.737 -0.9894  1.0420  1.6301
 1117TIP3   OH227545   0.960   1.701  19.473  0.4818 -0.3753 -0.1917
 1117TIP3    H127546   0.899   1.629  19.488  0.2288 -0.4116 -1.3178
 1117TIP3    H227547   1.041   1.659  19.444  1.0437 -0.3212  1.2143
 1118TIP3   OH227548   6.043   1.679  18.624  0.0836  0.1484  0.2828
 1118TIP3    H127549   5.993   1.612  18.670  2.9215 -1.0903  1.8426
 1118TIP3    H227550   6.099   1.630  18.563  2.2725  0.9689  1.5066
 1119TIP3   OH227551   0.759   2.143  17.669 -0.2644  0.0307  0.4993
 1119TIP3    H127552   0.822   2.203  17.630 -2.1909  1.6493 -0.2820
 1119TIP3    H227553   0.720   2.097  17.595 -3.9694  3.1446  0.1621
 1120TIP3   OH227554   5.088   4.558  18.365 -0.5836  0.2659 -0.4788
 1120TIP3    H127555   5.055   4.622  18.427  0.0530  1.4568 -1.3298
 1120TIP3    H227556   5.055   4.587  18.280  0.4411 -0.0116 -0.9968
 1121TIP3   OH227557   1.201   1.758  18.766 -0.0368 -0.3348  0.0086
 1121TIP3    H127558   1.269   1.718  18.713 -0.3344 -1.1003  0.1797
 1121TIP3    H227559   1.172   1.834  18.716  0.7080 -0.1955 -0.2159
 1122TIP3   OH227560   4.423   5.298  18.162 -0.2464  0.0427 -0.7621
 1122TIP3    H127561   4.449   5.390  18.155  0.8475 -0.2936 -1.5145
 1122TIP3    H227562   4.455   5.258  18.081 -1.5891 -0.8032 -0.8978
 1123TIP3   OH227563   6.033   1.274  17.632  0.2296  0.2090 -0.4360
 1123TIP3    H127564   5.952   1.319  17.608 -0.3741 -0.0819  0.9937
 1123TIP3    H227565   6.101   1.341  17.622 -0.2201  0.5541 -1.2953
 1124TIP3   OH227566   4.218   1.033  18.314 -0.2635  0.0838 -0.0188
 1124TIP3    H127567   4.219   0.943  18.346 -0.6743  0.6992  1.8120
 1124TIP3    H227568   4.210   1.025  18.219 -0.9553 -1.7939  0.1731
 1125TIP3   OH227569   1.294   1.066  19.231 -0.1999  0.2133 -0.4588
 1125TIP3    H127570   1.323   0.979  19.202  1.9361  0.9032 -0.5130
 1125TIP3    H227571   1.353   1.088  19.303 -0.7028  1.6475 -0.4655
 1126TIP3   OH227572   6.604   1.962  18.135 -0.4969  0.0351 -0.2345
 1126TIP3    H127573   6.679   1.970  18.076 -0.5629  1.7487 -0.1420
 1126TIP3    H227574   6.528   1.982  18.081 -0.7996 -0.7789 -0.1154
 1127TIP3   OH227575   1.593   4.350  18.928 -0.3841 -0.4544  0.0422
 1127TIP3    H127576   1.591   4.254  18.929  1.5971 -0.5342 -0.2454
 1127TIP3    H227577   1.646   4.374  19.003  0.5591  0.3400 -0.8451
 1128TIP3   OH227578   5.918   2.901  17.443  0.0724  0.3366 -0.1629
 1128TIP3    H127579   5.865   2.833  17.484 -0.4347 -0.1904 -1.6345
 1128TIP3    H227580   5.988   2.853  17.399 -0.8277  0.6410 -2.0173
 1129TIP3   OH227581   7.320   4.002  19.328 -0.0845  0.1012  0.4607
 1129TIP3    H127582   7.348   3.930  19.272  1.7679  0.0962  1.3133
 1129TIP3    H227583   7.244   3.968  19.375 -1.2878 -0.1026 -1.5293
 1130TIP3   OH227584   6.888   3.206  16.718  0.2236 -0.2976 -0.0217
 1130TIP3    H127585   6.920   3.175  16.802 -1.6494 -2.0757  0.1386
 1130TIP3    H227586   6.940   3.158  16.653 -0.9775 -2.0711  0.2278
 1131TIP3   OH227587   4.867   2.883  18.797  0.1006 -0.0885 -0.3402
 1131TIP3    H127588   4.813   2.844  18.729  0.4734 -0.5648 -0.3753
 1131TIP3    H227589   4.819   2.960  18.826  0.6562  1.0203 -2.2137
 1132TIP3   OH227590   3.222   4.951  18.477 -0.0151 -0.2329 -0.4201
 1132TIP3    H127591   3.174   4.920  18.400 -1.1720  1.5842 -0.5063
 1132TIP3    H227592   3.300   4.994  18.441  1.1440 -2.1517 -0.3432
 1133TIP3   OH227593   2.842   3.233  19.283 -0.4454  0.4574  0.1667
 1133TIP3    H127594   2.911   3.262  19.342 -0.1546 -0.1360  0.1280
 1133TIP3    H227595   2.780   3.306  19.280 -0.4074  0.5421  1.1126
 1134TIP3   OH227596   4.531   3.129  17.130 -0.3185  0.1546 -0.9986
 1134TIP3    H127597   4.469   3.114  17.059 -0.9197 -0.9292 -0.2599
 1134TIP3    H227598   4.478   3.162  17.202  0.0370 -0.2590 -0.5387
 1135TIP3   OH227599   5.500   0.416  18.233  0.1180 -0.0165  0.3891
 1135TIP3    H127600   5.452   0.422  18.315 -2.4103 -0.7140 -0.9302
 1135TIP3    H227601   5.471   0.493  18.183  0.0475 -0.6572 -0.5857
 1136TIP3   OH227602   2.711   3.488  18.593  0.6378 -0.2186  0.0342
 1136TIP3    H127603   2.710   3.463  18.501  1.7087 -0.0135 -0.0477
 1136TIP3    H227604   2.649   3.561  18.599 -0.6921 -1.2904 -0.1838
 1137TIP3   OH227605   2.222   3.489  19.040  0.0716 -0.1111  0.9828
 1137TIP3    H127606   2.260   3.443  19.114  2.1879 -1.1479 -0.6342
 1137TIP3    H227607   2.297   3.529  18.996 -1.2494  1.4055  0.0008
 1138TIP3   OH227608   1.786   5.849  18.834  0.3400  0.0297 -0.4067
 1138TIP3    H127609   1.743   5.890  18.908  0.3666 -0.1160 -0.3094
 1138TIP3    H227610   1.815   5.764  18.867 -0.5062 -0.4460 -0.8503
 1139TIP3   OH227611   1.688   4.858  18.720 -0.1910 -0.6846  0.0372
 1139TIP3    H127612   1.703   4.881  18.812 -0.8823  0.7775 -0.1878
 1139TIP3    H227613   1.684   4.762  18.720  1.2158 -0.7838  1.2938
 1140TIP3   OH227614   7.560   3.340  17.154  0.1501 -0.6316 -0.7531
 1140TIP3    H127615   7.648   3.329  17.189 -0.5108 -1.9464  0.6626
 1140TIP3    H227616   7.502   3.324  17.229 -1.2939 -0.1295 -1.7079
 1141TIP3   OH227617   2.044   4.897  17.923  0.0155 -0.1076 -0.4085
 1141TIP3    H127618   2.003   4.861  18.002 -0.8270 -0.4757 -1.0072
 1141TIP3    H227619   1.985   4.873  17.852  0.6600  0.4078 -1.1316
 1142TIP3   OH227620   2.044   1.968  18.250 -0.3145 -0.7990 -0.4812
 1142TIP3    H127621   1.953   1.989  18.271 -0.2283 -0.5889 -0.3164
 1142TIP3    H227622   2.080   2.048  18.214  0.7331  0.1922  2.4507
 1143TIP3   OH227623   2.444   0.772  19.159  0.2845 -0.0758 -0.5131
 1143TIP3    H127624   2.467   0.865  19.165  1.7048 -0.4367  0.2254
 1143TIP3    H227625   2.380   0.767  19.089 -0.6704  1.6127  0.1980
 1144TIP3   OH227626   5.691   1.812  19.080  0.7234  0.2324  0.0709
 1144TIP3    H127627   5.782   1.793  19.060  0.3157 -0.8996 -0.8450
 1144TIP3    H227628   5.687   1.811  19.176  1.7536  0.7907  0.1312
 1145TIP3   OH227629   1.703   4.896  17.111 -0.0362 -0.0235 -0.0859
 1145TIP3    H127630   1.775   4.867  17.054 -0.0199  0.5090 -0.3336
 1145TIP3    H227631   1.678   4.816  17.159  0.7893 -0.1960  0.0842
 1146TIP3   OH227632   3.611   3.100  17.273  0.4283 -0.4721  0.0944
 1146TIP3    H127633   3.566   3.102  17.189  0.3480 -0.6222  0.1342
 1146TIP3    H227634   3.696   3.143  17.256 -0.4452  1.5112  0.4357
 1147TIP3   OH227635   7.673   2.374  18.040 -0.1820  0.1434 -0.2216
 1147TIP3    H127636   7.640   2.362  18.129 -0.2421 -1.6971 -0.4625
 1147TIP3    H227637   7.605   2.337  17.984  0.4390  0.1285 -0.9727
 1148TIP3   OH227638   3.494   0.007  17.590  0.3822 -0.6323  0.3435
 1148TIP3    H127639   3.455   0.092  17.612 -0.8817 -0.7036 -1.4166
 1148TIP3    H227640   3.437  -0.057  17.632  0.2701 -0.6497  0.1678
 1149TIP3   OH227641   1.332   6.504  18.228 -0.2403 -0.0724 -0.3994
 1149TIP3    H127642   1.263   6.445  18.199 -0.9792  1.0314 -0.9911
 1149TIP3    H227643   1.361   6.469  18.312 -0.6346 -1.2711 -0.7432
 1150TIP3   OH227644   1.606   7.364  17.941  0.6405 -0.6904  0.0337
 1150TIP3    H127645   1.521   7.380  17.983  0.6983 -1.7027  0.5615
 1150TIP3    H227646   1.632   7.277  17.971  0.9442 -1.2253 -1.6670
 1151TIP3   OH227647   6.557   1.081  19.364 -0.4395  0.3558 -0.3583
 1151TIP3    H127648   6.503   1.104  19.289 -0.3006  1.0126 -0.2692
 1151TIP3    H227649   6.498   1.037  19.424 -0.9073  1.1230 -0.2351
 1152TIP3   OH227650   5.164   0.043  16.998 -0.1125 -0.2653  0.2068
 1152TIP3    H127651   5.211   0.045  16.914 -0.8828 -2.0632 -0.2986
 1152TIP3    H227652   5.148  -0.049  17.015  0.4049  0.0316  2.5886
 1153TIP3   OH227653   1.363   3.791  17.287 -0.3884  0.4653  0.3295
 1153TIP3    H127654   1.422   3.859  17.254  0.6205  0.0558  1.2115
 1153TIP3    H227655   1.414   3.711  17.283 -0.3417  0.3306  2.4532
 1154TIP3   OH227656   6.021   4.330  17.169  0.4282 -0.0036  0.2132
 1154TIP3    H127657   6.082   4.330  17.095  1.1565  1.5467  0.7659
 1154TIP3    H227658   6.020   4.421  17.198 -0.9391 -0.3232  1.2292
 1155TIP3   OH227659   0.374   1.876  18.123  0.4569  0.1796  0.4147
 1155TIP3    H127660   0.326   1.857  18.042  0.0573  0.0504  0.6754
 1155TIP3    H227661   0.433   1.801  18.134  0.0216 -0.1367  0.6052
 1156TIP3   OH227662   5.551   3.862  16.767 -0.0006  0.0061 -0.1490
 1156TIP3    H127663   5.644   3.850  16.745 -0.5185 -1.4436 -1.8162
 1156TIP3    H227664   5.511   3.892  16.685 -1.0553  0.3127  0.4637
 1157TIP3   OH227665   0.213   4.693  17.244  0.1304 -0.8815 -0.2975
 1157TIP3    H127666   0.205   4.767  17.184 -1.2665  1.2892  2.3696
 1157TIP3    H227667   0.133   4.642  17.230  0.0303 -0.6495 -0.5764
 1158TIP3   OH227668   6.966   5.618  18.099 -0.1174  0.9671 -0.4614
 1158TIP3    H127669   6.921   5.677  18.039  0.3311  1.0213 -0.7474
 1158TIP3    H227670   6.900   5.554  18.124 -0.5756  1.5212 -0.2425
 1159TIP3   OH227671   4.581   5.701  16.813 -0.0932 -0.3050  0.2199
 1159TIP3    H127672   4.570   5.759  16.738 -2.2458 -1.2578 -0.2721
 1159TIP3    H227673   4.627   5.754  16.878  0.6634  0.9505 -1.2829
 1160TIP3   OH227674   3.292   1.737  18.370  0.6753 -0.1670  0.5146
 1160TIP3    H127675   3.212   1.791  18.370  1.2914  0.7812  0.1827
 1160TIP3    H227676   3.304   1.712  18.279  0.7980 -0.2395  0.5498
 1161TIP3   OH227677   5.794   2.547  18.139  0.1220  0.3995 -0.1860
 1161TIP3    H127678   5.824   2.508  18.057 -0.4884 -1.1026  0.2846
 1161TIP3    H227679   5.699   2.543  18.134  0.0839 -0.6489  1.0151
 1162TIP3   OH227680   4.248   3.280  17.953 -0.0263 -0.0065 -0.3981
 1162TIP3    H127681   4.168   3.290  18.003  0.2348 -1.0146  0.2283
 1162TIP3    H227682   4.300   3.357  17.976 -0.5969  0.3987 -0.4355
 1163TIP3   OH227683   2.681   1.121  18.038  0.2969 -0.2912 -0.0272
 1163TIP3    H127684   2.614   1.190  18.034  0.2216 -0.4030 -1.1159
 1163TIP3    H227685   2.687   1.089  17.948 -1.4273 -3.3973  0.7940
 1164TIP3   OH227686   3.278   0.589  17.508  0.5813 -0.0843 -0.1801
 1164TIP3    H127687   3.358   0.618  17.551  1.1561 -0.2399 -1.1135
 1164TIP3    H227688   3.291   0.611  17.416 -0.4937 -0.0339 -0.3336
 1165TIP3   OH227689   5.057   1.341  18.571 -0.6292  0.0980  0.7666
 1165TIP3    H127690   5.098   1.301  18.494 -0.9150 -0.1507  0.7412
 1165TIP3    H227691   5.036   1.267  18.629  1.7291  0.4554  2.1710
 1166TIP3   OH227692   0.038   4.232  17.157  0.7990 -0.3844 -0.8183
 1166TIP3    H127693   0.123   4.187  17.162  0.1407 -1.7542 -1.3430
 1166TIP3    H227694   0.007   4.213  17.068 -0.0933  0.0422 -0.6061
 1167TIP3   OH227695   5.977   7.572  17.243  0.3080 -0.4418 -0.3676
 1167TIP3    H127696   6.054   7.524  17.212  2.4508  0.6825  2.6126
 1167TIP3    H227697   6.002   7.602  17.331 -2.7537  1.8818 -0.1073
 1168TIP3   OH227698   0.662   0.395  17.647  0.0547 -0.3500 -0.4478
 1168TIP3    H127699   0.614   0.477  17.637  1.5169  0.5228 -0.5417
 1168TIP3    H227700   0.628   0.357  17.729  0.8586  1.4006  0.7488
 1169TIP3   OH227701   5.730   3.981  17.810  0.7511  0.0291  0.0045
 1169TIP3    H127702   5.738   3.969  17.905  2.1485  0.2150 -0.0690
 1169TIP3    H227703   5.809   4.030  17.785 -1.1149  2.8697 -0.8128
 1170TIP3   OH227704   4.579   1.357  18.982 -0.4922  0.3567  0.3659
 1170TIP3    H127705   4.569   1.442  18.939 -0.5841  0.4319  0.5347
 1170TIP3    H227706   4.490   1.328  19.000 -0.5011 -0.2311 -0.5633
 1171TIP3   OH227707   5.215   2.526  18.967 -0.2984  0.4983  0.3697
 1171TIP3    H127708   5.213   2.619  18.991  1.5210  0.3822  1.1092
 1171TIP3    H227709   5.221   2.526  18.872  1.0774  1.1978  0.4368
 1172TIP3   OH227710   1.050   7.372  18.142 -0.2084  0.3864 -0.1382
 1172TIP3    H127711   1.070   7.415  18.059  1.1581  1.0460  0.5038
 1172TIP3    H227712   1.068   7.279  18.126 -0.4098  0.4443 -0.7128
 1173TIP3   OH227713   5.359   6.840  19.238  0.3771 -0.2845 -0.6666
 1173TIP3    H127714   5.272   6.865  19.207  0.6222  1.1529 -0.2883
 1173TIP3    H227715   5.419   6.889  19.182  0.8906 -0.1111  0.0188
 1174TIP3   OH227716   7.131   3.730  19.097  0.4030  0.2658  0.5738
 1174TIP3    H127717   7.093   3.810  19.133  1.5386  1.5728 -0.9921
 1174TIP3    H227718   7.216   3.722  19.140  1.7863  1.8596 -1.6672
 1175TIP3   OH227719   0.517   7.047  17.612 -0.8710  0.2255  0.1252
 1175TIP3    H127720   0.455   7.047  17.539  0.6422  1.1416 -1.2248
 1175TIP3    H227721   0.519   7.138  17.642  1.5869  0.8032 -1.5020
 1176TIP3   OH227722   7.381   0.621  17.952  0.2305 -0.2682  0.1771
 1176TIP3    H127723   7.335   0.542  17.979 -1.7896  1.0830  0.8468
 1176TIP3    H227724   7.320   0.692  17.968  1.9557  1.4612 -0.4733
 1177TIP3   OH227725   5.917   2.082  17.810 -0.0157 -0.0386 -0.3499
 1177TIP3    H127726   5.976   2.065  17.884 -1.9935 -1.1403  1.0835
 1177TIP3    H227727   5.832   2.101  17.851 -0.2134  4.1123 -2.2104
 1178TIP3   OH227728   0.429   0.282  19.190  0.1085  0.2446  0.3420
 1178TIP3    H127729   0.507   0.313  19.234  1.3487  0.5891 -1.9467
 1178TIP3    H227730   0.397   0.210  19.245  1.3475  0.8364  1.9003
 1179TIP3   OH227731   4.459   5.078  18.565 -0.9584  0.4491  0.3049
 1179TIP3    H127732   4.520   5.006  18.552  0.1239  0.4886  3.9296
 1179TIP3    H227733   4.474   5.137  18.491  1.1611 -1.0377 -0.5318
 1180TIP3   OH227734   0.473   7.525  19.132  0.0286 -0.8681  0.1200
 1180TIP3    H127735   0.486   7.435  19.101  0.1362 -0.4913 -0.9852
 1180TIP3    H227736   0.543   7.575  19.088 -1.8669  0.2798 -1.7759
 1181TIP3   OH227737   1.993   4.360  18.985 -0.2337  0.5178 -0.2509
 1181TIP3    H127738   1.998   4.351  18.890  2.4010  1.9021 -0.3370
 1181TIP3    H227739   1.998   4.270  19.018  2.7988  0.1437 -1.4217
 1182TIP3   OH227740   6.545   1.113  19.044  0.0016  0.3366 -0.0662
 1182TIP3    H127741   6.550   1.174  18.971 -1.3970  0.1545 -0.3415
 1182TIP3    H227742   6.533   1.027  19.003 -0.8103  0.2360  0.3681
 1183TIP3   OH227743   3.802   6.843  17.941 -0.6145 -0.1871  0.0883
 1183TIP3    H127744   3.746   6.776  17.980  0.1599  0.2723  2.0693
 1183TIP3    H227745   3.762   6.926  17.966 -0.8927  0.1367 -1.3357
 1184TIP3   OH227746   7.363   1.268  17.889 -0.2279  0.4375  0.4319
 1184TIP3    H127747   7.338   1.302  17.803 -0.4019 -0.4181  0.1391
 1184TIP3    H227748   7.456   1.291  17.897 -0.4982  1.5819  0.5416
 1185TIP3   OH227749   0.407   4.819  19.155  0.3121  0.3346  0.7391
 1185TIP3    H127750   0.320   4.778  19.153 -0.2651  1.5381  0.2894
 1185TIP3    H227751   0.392   4.908  19.124  1.6937  0.6087  0.8084
 1186TIP3   OH227752   3.709   0.737  17.334 -0.9249 -0.2903 -0.0778
 1186TIP3    H127753   3.630   0.764  17.287 -0.2887 -0.0676 -1.0428
 1186TIP3    H227754   3.736   0.656  17.291  0.5875  0.7728 -1.2248
 1187TIP3   OH227755   5.315   6.736  18.295  0.3882  0.3069 -0.5893
 1187TIP3    H127756   5.325   6.828  18.271 -2.6897  0.1993 -2.9209
 1187TIP3    H227757   5.291   6.738  18.388 -1.5450  2.0870 -1.0520
 1188TIP3   OH227758   5.172   1.799  18.560  0.4246 -0.0915  0.1356
 1188TIP3    H127759   5.261   1.763  18.564  1.6279  2.0705 -2.8221
 1188TIP3    H227760   5.133   1.756  18.484 -0.9298 -0.6352  1.1052
 1189TIP3   OH227761   1.442   2.835  17.769 -0.0576  0.6020  0.2818
 1189TIP3    H127762   1.504   2.785  17.822 -0.5710  0.7914  1.0754
 1189TIP3    H227763   1.402   2.770  17.711  0.1165  0.2973  0.5035
 1190TIP3   OH227764   6.036   2.478  18.399 -0.4674 -0.0511 -0.1054
 1190TIP3    H127765   6.015   2.387  18.377 -0.1103  0.1049 -1.0874
 1190TIP3    H227766   6.081   2.513  18.323 -0.9340  1.0726  0.1080
 1191TIP3   OH227767   5.766   4.246  17.328  0.3064 -0.1885 -0.0259
 1191TIP3    H127768   5.732   4.182  17.265 -2.1941  2.1636 -1.2525
 1191TIP3    H227769   5.843   4.284  17.285  1.2007 -1.5822  0.2817
 1192TIP3   OH227770   5.534   2.410  19.176 -0.3656 -0.4000  0.4061
 1192TIP3    H127771   5.471   2.364  19.120 -0.8739 -0.9133  1.3706
 1192TIP3    H227772   5.564   2.484  19.123 -1.0539 -0.6955 -0.4248
 1193TIP3   OH227773   1.321   1.039  18.063 -0.0611  0.3110 -0.2861
 1193TIP3    H127774   1.393   0.976  18.065  0.8979  1.1667 -2.9600
 1193TIP3    H227775   1.245   0.990  18.093  1.0138 -1.5513 -0.4541
 1194TIP3   OH227776   6.183   2.439  19.005  0.2961 -0.1255  0.0176
 1194TIP3    H127777   6.209   2.377  18.936 -0.2716  1.2540 -1.4915
 1194TIP3    H227778   6.262   2.490  19.023  0.2927 -0.1119 -0.0068
 1195TIP3   OH227779   2.358   6.489  19.619  0.2989 -0.0091 -0.5022
 1195TIP3    H127780   2.430   6.541  19.582  0.2925  1.7330  1.6953
 1195TIP3    H227781   2.292   6.554  19.643 -0.4202 -1.2137  0.8826
 1196TIP3   OH227782   5.958   6.919  19.095  0.1520 -0.0766 -0.2904
 1196TIP3    H127783   5.907   6.980  19.041  1.4355  1.6806  0.3917
 1196TIP3    H227784   5.949   6.835  19.051  0.4330  1.1141 -2.7828
 1197TIP3   OH227785   2.872   5.333  19.216 -0.4100  0.2882  0.5447
 1197TIP3    H127786   2.961   5.356  19.191 -0.3818 -1.0346 -0.7320
 1197TIP3    H227787   2.879   5.300  19.305  0.3179  0.5349  0.5851
 1198TIP3   OH227788   2.555   3.903  17.720 -0.0911 -1.4464  0.5886
 1198TIP3    H127789   2.621   3.836  17.704  0.9166 -0.3852  0.1169
 1198TIP3    H227790   2.472   3.858  17.709  0.5531 -2.6598  0.4943
 1199TIP3   OH227791   6.555   3.837  18.392  0.1265 -0.2080  0.0099
 1199TIP3    H127792   6.474   3.865  18.436  0.8693 -1.2414  2.1815
 1199TIP3    H227793   6.574   3.750  18.429  2.6706  0.3603  0.2439
 1200TIP3   OH227794   7.049   7.470  18.910 -0.2562  0.4324 -0.2362
 1200TIP3    H127795   6.982   7.408  18.881 -0.3541 -0.2165  1.2929
 1200TIP3    H227796   7.124   7.453  18.853 -0.5946 -0.4778 -0.4278
 1201TIP3   OH227797   4.254   3.300  18.621  1.2452 -0.2320  0.1127
 1201TIP3    H127798   4.278   3.215  18.658  1.1718  1.0786  3.5579
 1201TIP3    H227799   4.331   3.355  18.636  1.4414  0.3004 -2.4083
 1202TIP3   OH227800   6.101   2.236  19.219 -0.1394 -0.0019  0.5684
 1202TIP3    H127801   6.095   2.309  19.157  1.4993 -1.9367 -2.0777
 1202TIP3    H227802   6.010   2.218  19.245 -1.1512 -0.1249 -2.6396
 1203TIP3   OH227803   2.431   6.655  17.793 -0.1903 -0.2328 -0.1842
 1203TIP3    H127804   2.354   6.706  17.818 -0.5435 -1.0040  0.3157
 1203TIP3    H227805   2.444   6.677  17.701 -1.9639 -1.2645 -0.7396
 1204TIP3   OH227806   7.359   0.192  19.307  0.2401  0.0453  0.7251
 1204TIP3    H127807   7.355   0.264  19.244  1.0096  0.0016  0.6256
 1204TIP3    H227808   7.439   0.145  19.286 -0.1595 -0.7450  0.9027
 1205TIP3   OH227809   1.177   3.131  18.463 -0.1517  0.1199 -0.2281
 1205TIP3    H127810   1.209   3.140  18.553 -1.3575  1.0135  0.1352
 1205TIP3    H227811   1.230   3.060  18.426  0.8378  0.1928  0.9600
 1206TIP3   OH227812   4.823   2.977  17.564 -0.1342 -0.0656 -0.5218
 1206TIP3    H127813   4.912   2.957  17.538 -0.2770  0.4513 -1.4514
 1206TIP3    H227814   4.768   2.920  17.510 -0.3718 -0.8323  0.4768
 1207TIP3   OH227815   1.050   3.862  16.966  0.2853 -0.3132  0.1835
 1207TIP3    H127816   1.142   3.885  16.974  0.1598  1.0557 -1.7016
 1207TIP3    H227817   1.049   3.768  16.953  1.3227 -0.4980  1.3402
 1208TIP3   OH227818   0.715   3.046  19.149  0.0563  0.3968 -0.1236
 1208TIP3    H127819   0.716   2.950  19.142 -1.7560  0.2634  0.9887
 1208TIP3    H227820   0.805   3.068  19.176  1.0737 -0.7644 -2.2690
 1209TIP3   OH227821   6.546   6.947  19.418 -0.3780  0.0391  0.0828
 1209TIP3    H127822   6.558   6.852  19.413 -1.3452 -0.0829 -0.1668
 1209TIP3    H227823   6.451   6.959  19.411 -0.2402  1.0420 -0.1469
 1210TIP3   OH227824   7.272   0.335  17.973 -0.0578  0.2968  0.1072
 1210TIP3    H127825   7.289   0.281  18.050  1.6517  1.6457  0.7333
 1210TIP3    H227826   7.186   0.374  17.990 -0.1539 -0.2152  0.8581
 1211TIP3   OH227827   4.109   2.018  17.808 -0.0376  0.7630  0.2311
 1211TIP3    H127828   4.088   2.037  17.717 -0.9730  1.0760  0.4997
 1211TIP3    H227829   4.117   2.103  17.850 -2.5261  0.6559  1.0591
 1212TIP3   OH227830   2.767   0.208  17.578 -0.1852  0.5568 -0.0670
 1212TIP3    H127831   2.860   0.209  17.601  0.6329  1.2348 -3.0253
 1212TIP3    H227832   2.733   0.292  17.611 -0.0648 -0.1364  1.9449
 1213TIP3   OH227833   4.657   0.391  17.885 -0.4648 -0.5261 -0.1887
 1213TIP3    H127834   4.720   0.349  17.827  1.4958  0.4482  1.0944
 1213TIP3    H227835   4.609   0.451  17.828  1.0473  0.0367 -0.9553
 1214TIP3   OH227836   1.682   0.697  17.881 -0.1507  0.2345 -0.0419
 1214TIP3    H127837   1.775   0.677  17.891  0.2873  0.0225 -3.2728
 1214TIP3    H227838   1.646   0.620  17.838 -1.2366  1.2781 -1.0705
 1215TIP3   OH227839   0.284   5.297  18.649 -0.5329  0.3887 -0.2338
 1215TIP3    H127840   0.242   5.271  18.567  1.3566 -0.1697 -1.0672
 1215TIP3    H227841   0.212   5.301  18.712 -1.8074 -0.7739 -1.5385
 1216TIP3   OH227842   6.491   6.591  17.362 -0.3343  0.4165  0.7036
 1216TIP3    H127843   6.461   6.579  17.271  2.9545  1.1167 -0.6212
 1216TIP3    H227844   6.532   6.507  17.384 -0.0755  0.6470  1.0930
 1217TIP3   OH227845   5.541   3.818  17.388  0.1924  0.3247 -0.4276
 1217TIP3    H127846   5.491   3.883  17.338  0.1400  1.2526  0.7812
 1217TIP3    H227847   5.498   3.815  17.473  0.7054 -0.7045 -0.1878
 1218TIP3   OH227848   1.510   1.688  18.935  0.1692  0.0222  0.4219
 1218TIP3    H127849   1.601   1.690  18.904  1.2248  1.9890  3.1595
 1218TIP3    H227850   1.518   1.693  19.031 -2.8427  0.0195  0.7642
 1219TIP3   OH227851   5.693   2.358  18.307  0.0127  0.1093 -0.0469
 1219TIP3    H127852   5.725   2.417  18.240 -1.1233  0.8575  0.0430
 1219TIP3    H227853   5.772   2.323  18.348  0.7387 -0.3775 -1.7573
 1220TIP3   OH227854   2.113   6.362  18.109  0.3428 -0.1875  0.3850
 1220TIP3    H127855   2.173   6.341  18.037  1.8270  0.3089  1.4273
 1220TIP3    H227856   2.065   6.438  18.077  1.2473  0.2584  0.0312
 1221TIP3   OH227857   3.226   5.960  19.414 -0.0556  0.2213  0.1000
 1221TIP3    H127858   3.210   5.989  19.325  0.7901  0.3524 -0.0217
 1221TIP3    H227859   3.223   6.040  19.467  2.2899  0.5994 -0.2360
 1222TIP3   OH227860   6.488   0.725  18.535  0.0625  0.1068  0.4633
 1222TIP3    H127861   6.508   0.746  18.444  0.5629 -2.3294 -0.0624
 1222TIP3    H227862   6.559   0.667  18.563 -0.3404  0.4227  2.2653
 1223TIP3   OH227863   4.772   5.334  18.569 -0.0365 -0.0916 -0.3852
 1223TIP3    H127864   4.768   5.266  18.637 -0.0632  1.1066  0.8578
 1223TIP3    H227865   4.764   5.286  18.486  0.2293 -1.6207  0.4391
 1224TIP3   OH227866   6.763   3.127  18.606 -0.0945  0.2799  0.0440
 1224TIP3    H127867   6.825   3.178  18.657 -1.7316  0.2410  2.2224
 1224TIP3    H227868   6.745   3.050  18.661 -0.9159 -0.4599 -1.2208
 1225TIP3   OH227869   6.797   5.674  19.197 -0.4054 -0.1504  0.3694
 1225TIP3    H127870   6.853   5.638  19.265 -0.7359 -0.1035  0.6713
 1225TIP3    H227871   6.856   5.724  19.141 -0.0636 -0.5570  0.3647
 1226TIP3   OH227872   4.974   2.111  18.929  0.2018  0.0125 -0.1260
 1226TIP3    H127873   4.929   2.174  18.872 -1.9366 -1.4172 -0.1218
 1226TIP3    H227874   4.924   2.112  19.010 -0.2295 -2.0482 -0.3105
 1227TIP3   OH227875   6.406   0.485  17.129  0.2445 -0.3359  0.0565
 1227TIP3    H127876   6.384   0.518  17.216  0.3063  0.2994 -0.1646
 1227TIP3    H227877   6.343   0.414  17.114  1.3789 -1.6959  1.3449
 1228TIP3   OH227878   7.190   3.648  19.639  0.2663 -0.1646 -0.1001
 1228TIP3    H127879   7.098   3.647  19.614  0.1149 -0.3289  0.4411
 1228TIP3    H227880   7.199   3.573  19.698  0.9947 -0.7977 -0.9893
 1229TIP3   OH227881   4.493   0.862  17.847  0.3858  0.8769  0.2621
 1229TIP3    H127882   4.428   0.930  17.868 -1.0092  0.4741 -2.3061
 1229TIP3    H227883   4.450   0.780  17.871  1.3152  0.7665  1.6098
 1230TIP3   OH227884   2.501   3.153  17.176 -0.0900  0.6695  0.1656
 1230TIP3    H127885   2.466   3.081  17.124 -0.8473  1.3476 -0.2796
 1230TIP3    H227886   2.510   3.226  17.114  1.3760  0.7580  0.4364
 1231TIP3   OH227887   0.843   1.635  18.789 -0.4732  0.4627  0.0432
 1231TIP3    H127888   0.927   1.590  18.795 -0.3339  0.5510 -1.0396
 1231TIP3    H227889   0.779   1.566  18.769 -0.4822  0.5412 -0.2061
 1232TIP3   OH227890   2.428   1.713  17.947 -0.4149 -0.4353  0.7123
 1232TIP3    H127891   2.429   1.688  17.855 -1.6474  1.4980  0.1378
 1232TIP3    H227892   2.347   1.675  17.982 -0.3946 -0.4075  0.7916
 1233TIP3   OH227893   7.423   4.482  19.803  0.3857  0.3220 -0.0722
 1233TIP3    H127894   7.382   4.451  19.884  1.4641 -0.3317  0.2475
 1233TIP3    H227895   7.433   4.404  19.749 -2.0542  1.0371 -1.6861
 1234TIP3   OH227896   7.661   2.395  18.531 -0.3834 -0.3987  0.5393
 1234TIP3    H127897   7.720   2.329  18.567 -0.5779  0.0109  1.6385
 1234TIP3    H227898   7.615   2.430  18.607 -0.1284  1.1651  0.0031
 1235TIP3   OH227899   3.303   1.494  17.236 -0.0799  0.3479  0.4996
 1235TIP3    H127900   3.285   1.563  17.173  0.2906  0.8978  0.9876
 1235TIP3    H227901   3.296   1.537  17.322 -0.9459 -0.4689  0.8574
 1236TIP3   OH227902   1.696   1.173  17.791 -0.6735  0.1762  0.1659
 1236TIP3    H127903   1.618   1.176  17.847  0.3619 -0.1621  1.6869
 1236TIP3    H227904   1.722   1.265  17.781 -0.7265  0.2254  0.4637
 1237TIP3   OH227905   1.122   4.872  19.389 -1.2502 -0.5105 -0.0188
 1237TIP3    H127906   1.107   4.842  19.299  0.6958  1.5006 -1.0975
 1237TIP3    H227907   1.127   4.967  19.383  1.7810 -0.4228  1.6766
 1238TIP3   OH227908   7.244   6.247  19.251 -0.1619  0.0366  0.2755
 1238TIP3    H127909   7.154   6.271  19.271  0.4295  1.2464  1.7615
 1238TIP3    H227910   7.287   6.330  19.229  0.5342 -0.5541 -0.6715
 1239TIP3   OH227911   2.629   2.267  18.572 -0.6147  0.3519  0.1189
 1239TIP3    H127912   2.655   2.209  18.643 -0.8809 -0.0862 -0.1397
 1239TIP3    H227913   2.704   2.270  18.513 -0.6719  0.1232  0.0365
 1240TIP3   OH227914   2.787   2.891  19.793 -0.4093  0.4457  0.2410
 1240TIP3    H127915   2.819   2.947  19.864  1.6182 -0.2958 -0.0440
 1240TIP3    H227916   2.824   2.805  19.811 -2.8546 -0.7023  0.2491
 1241TIP3   OH227917   4.427   6.737  17.627 -0.0394 -0.6240 -0.0229
 1241TIP3    H127918   4.478   6.657  17.638 -2.0313 -1.8721  0.5376
 1241TIP3    H227919   4.367   6.718  17.555 -1.0807  0.0742  0.6371
 1242TIP3   OH227920   4.806   4.697  19.286  0.9554 -0.1398 -0.0189
 1242TIP3    H127921   4.823   4.714  19.379  2.1228  1.7816 -0.5390
 1242TIP3    H227922   4.884   4.728  19.241 -0.2861  0.5482 -1.8120
 1243TIP3   OH227923   5.384   0.506  17.810  0.0618  0.3023 -0.2457
 1243TIP3    H127924   5.419   0.533  17.725 -1.3352  1.4533 -0.4962
 1243TIP3    H227925   5.389   0.585  17.864 -0.9621  0.1546  0.0893
 1244TIP3   OH227926   2.365   1.515  18.619  0.2067  0.1563 -0.0668
 1244TIP3    H127927   2.315   1.434  18.608  0.9122 -0.5785  1.6276
 1244TIP3    H227928   2.299   1.583  18.633 -0.3736 -0.3253 -0.4376
 1245TIP3   OH227929   6.479   3.451  19.066  0.2314  0.1316 -0.4648
 1245TIP3    H127930   6.418   3.436  18.993  0.2720 -1.9038 -0.1258
 1245TIP3    H227931   6.453   3.537  19.101 -1.3524  0.0617 -1.3603
 1246TIP3   OH227932   7.459   1.085  17.033  0.1476  0.2247 -0.0770
 1246TIP3    H127933   7.466   1.014  16.969 -0.1256 -0.8571  1.0766
 1246TIP3    H227934   7.435   1.162  16.980  1.7639 -0.2049 -1.5209
 1247TIP3   OH227935   5.304   6.817  18.568 -0.0238 -0.4070  0.1971
 1247TIP3    H127936   5.269   6.778  18.648 -0.0291 -0.4380  0.1805
 1247TIP3    H227937   5.396   6.789  18.567  0.1814  0.2351  0.5920
 1248TIP3   OH227938   2.482   2.973  16.966  0.3084 -0.6418  0.1206
 1248TIP3    H127939   2.543   3.026  16.914 -0.8393 -0.6277 -1.2588
 1248TIP3    H227940   2.484   2.886  16.924  2.0335 -1.7151  2.2403
 1249TIP3   OH227941   3.045   6.190  16.934 -0.0662 -0.3883  0.6851
 1249TIP3    H127942   3.088   6.242  16.865  0.2967 -1.0062  0.4316
 1249TIP3    H227943   3.060   6.240  17.014 -2.2962  1.4421  0.0680
 1250TIP3   OH227944   5.787   2.047  18.641  0.2326  0.1627  0.4221
 1250TIP3    H127945   5.776   2.141  18.627  0.5161  0.7828  3.6933
 1250TIP3    H227946   5.872   2.027  18.602 -0.5302  0.8546 -1.7236
 1251TIP3   OH227947   3.808   5.823  17.287  0.2219  0.2986 -0.0802
 1251TIP3    H127948   3.843   5.745  17.244  0.9482  1.1771 -1.1150
 1251TIP3    H227949   3.884   5.863  17.330 -0.4240 -0.3822  1.8077
 1252TIP3   OH227950   7.586   0.885  16.866 -0.0945 -0.1887 -0.1765
 1252TIP3    H127951   7.510   0.855  16.916 -0.3201 -0.2853 -0.5729
 1252TIP3    H227952   7.619   0.807  16.823  0.1617 -0.1236 -0.0999
 1253TIP3   OH227953   1.007   5.875  18.074  0.1777  0.7736  0.5390
 1253TIP3    H127954   0.983   5.883  18.166 -2.4651  0.4871 -0.0442
 1253TIP3    H227955   0.928   5.900  18.026  0.3691 -2.1737 -1.6154
 1254TIP3   OH227956   4.074   2.363  18.170 -0.2134  0.3425  0.4536
 1254TIP3    H127957   4.089   2.359  18.264 -0.0777 -0.1002  0.4121
 1254TIP3    H227958   4.142   2.307  18.132 -1.0364 -0.4897  0.1771
 1255TIP3   OH227959   5.067   4.776  19.221  0.4043 -0.3989 -0.4277
 1255TIP3    H127960   5.110   4.742  19.300 -0.8277  0.4344  0.6468
 1255TIP3    H227961   5.128   4.755  19.150  1.1289 -1.9954  0.6050
 1256TIP3   OH227962   3.754   5.795  18.018  0.7531  0.2441 -0.1266
 1256TIP3    H127963   3.783   5.876  17.977 -0.2784 -0.3453 -2.1658
 1256TIP3    H227964   3.682   5.821  18.075 -0.5012  0.6598 -1.8220
 1257TIP3   OH227965   5.574   3.657  19.633  0.0357 -0.0438  0.1240
 1257TIP3    H127966   5.646   3.720  19.628 -0.2958  0.3081 -0.2201
 1257TIP3    H227967   5.497   3.705  19.603 -0.3282 -0.4493  0.3880
 1258TIP3   OH227968   0.578   0.244  17.873 -0.1198  0.3350 -0.5986
 1258TIP3    H127969   0.568   0.188  17.796 -0.6271 -0.9272  0.3527
 1258TIP3    H227970   0.512   0.212  17.935  1.3165  0.2575  0.9657
 1259TIP3   OH227971   1.899   2.438  17.192  0.6493 -0.0722  0.1737
 1259TIP3    H127972   1.858   2.359  17.158  0.3623  0.1557 -0.0150
 1259TIP3    H227973   1.934   2.482  17.114  0.2057  0.3265  0.1915
 1260TIP3   OH227974   2.764   5.825  17.827  0.4723 -0.0611  0.3665
 1260TIP3    H127975   2.735   5.883  17.897 -0.9789  0.2389 -0.4503
 1260TIP3    H227976   2.812   5.882  17.767 -1.0815  0.3925 -0.5135
 1261TIP3   OH227977   4.854   4.204  18.475  0.0544  0.2773  0.3942
 1261TIP3    H127978   4.915   4.138  18.507  0.5266 -0.6291 -2.1687
 1261TIP3    H227979   4.843   4.264  18.549  1.9743 -0.9729  1.7896
 1262TIP3   OH227980   1.359   2.363  18.319  0.2448  0.4669 -0.7882
 1262TIP3    H127981   1.406   2.435  18.361 -0.8107 -0.3379  2.0458
 1262TIP3    H227982   1.300   2.405  18.257  1.5520  1.7979 -1.1937
 1263TIP3   OH227983   3.759   2.300  16.638  0.8714  0.7584 -0.1510
 1263TIP3    H127984   3.827   2.347  16.687 -0.4079  1.6751  0.8151
 1263TIP3    H227985   3.796   2.214  16.622  1.5282  0.5433  2.1266
 1264TIP3   OH227986   7.413   5.648  17.701  0.2974  0.0850 -0.3551
 1264TIP3    H127987   7.457   5.676  17.620  0.2082  0.0315 -0.4218
 1264TIP3    H227988   7.402   5.730  17.750  0.2335  0.1364 -0.4554
 1265TIP3   OH227989   4.072   1.794  17.944 -0.1872 -0.4700 -0.0379
 1265TIP3    H127990   4.128   1.845  17.885  0.3620 -2.0623 -0.9701
 1265TIP3    H227991   4.020   1.738  17.885 -3.0826  1.1682  0.7637
 1266TIP3   OH227992   3.494   1.408  19.611 -0.0052 -0.5189  0.6499
 1266TIP3    H127993   3.414   1.359  19.593  0.1017 -0.7451  0.7889
 1266TIP3    H227994   3.544   1.352  19.670 -0.5997  0.4607  2.1210
 1267TIP3   OH227995   5.760   5.994  16.620  0.7639 -0.2343 -0.1217
 1267TIP3    H127996   5.698   6.062  16.648 -0.3044 -0.2167 -2.3266
 1267TIP3    H227997   5.725   5.913  16.657  0.2126 -0.0349 -0.2025
 1268TIP3   OH227998   2.403   7.621  17.235 -0.0160 -0.2032 -0.1355
 1268TIP3    H127999   2.475   7.645  17.176 -0.2387  1.3673  0.2033
 1268TIP3    H228000   2.373   7.703  17.273 -0.2030 -1.1205  1.8431
 1269TIP3   OH228001   5.613   4.618  17.366 -0.1972  0.3708  0.2761
 1269TIP3    H128002   5.624   4.692  17.306 -1.1924 -0.5521 -1.1241
 1269TIP3    H228003   5.526   4.630  17.404 -0.6514 -0.4167 -0.4840
 1270TIP3   OH228004   5.451   2.096  18.637  0.6403 -0.4757 -0.1097
 1270TIP3    H128005   5.394   2.061  18.705 -0.1324  0.7982 -0.0706
 1270TIP3    H228006   5.504   2.162  18.682  1.4601 -0.9464 -0.3596
 1271TIP3   OH228007   3.728   0.081  18.376  0.0897 -0.3002  0.5489
 1271TIP3    H128008   3.704   0.142  18.445 -0.0701  0.7234 -0.4005
 1271TIP3    H228009   3.796   0.126  18.326 -0.2799 -0.7455 -0.3758
 1272TIP3   OH228010   2.872   6.167  18.572  0.6759  0.4909  0.5158
 1272TIP3    H128011   2.788   6.204  18.543  0.3415 -1.3936 -1.2145
 1272TIP3    H228012   2.928   6.171  18.494  1.2506 -0.7802  0.8341
 1273TIP3   OH228013   1.802   4.274  17.864  0.0976  0.0276  0.2010
 1273TIP3    H128014   1.888   4.317  17.862 -0.6852  1.6345 -0.1367
 1273TIP3    H228015   1.815   4.200  17.923  1.1581  1.5246  1.9723
 1274TIP3   OH228016   0.720   1.513  19.475 -0.1167  0.5870 -0.2724
 1274TIP3    H128017   0.728   1.472  19.389 -0.1769 -1.6055  0.7212
 1274TIP3    H228018   0.774   1.461  19.533 -0.3749  1.7922  1.1264
 1275TIP3   OH228019   7.116   2.963  17.453 -0.2993 -0.1691 -0.0411
 1275TIP3    H128020   7.106   3.057  17.463 -0.6615 -0.0920 -1.0284
 1275TIP3    H228021   7.037   2.926  17.493 -0.0888 -0.0759  0.4756
 1276TIP3   OH228022   0.029   5.571  19.377 -0.4447 -0.2397 -0.0277
 1276TIP3    H128023  -0.039   5.555  19.312 -1.0095 -1.9282  0.9158
 1276TIP3    H228024   0.053   5.663  19.365  0.4310 -0.7674 -3.5211
 1277TIP3   OH228025   1.677   3.309  17.957 -0.3866 -0.7193  0.4746
 1277TIP3    H128026   1.635   3.241  17.904 -0.6121  0.1408 -0.4903
 1277TIP3    H228027   1.610   3.335  18.020 -0.6898 -0.6137  0.1134
 1278TIP3   OH228028   5.540   6.165  19.341 -0.2648  0.2966 -1.0399
 1278TIP3    H128029   5.576   6.076  19.335  0.1194  0.4399 -0.9431
 1278TIP3    H228030   5.448   6.155  19.319 -0.3009 -0.1806 -0.7027
 1279TIP3   OH228031   0.378   4.045  17.711  0.2212 -0.4215  0.0926
 1279TIP3    H128032   0.374   4.131  17.752  0.7020  0.0989 -0.9346
 1279TIP3    H228033   0.306   3.996  17.751 -1.9917  1.4022 -1.4831
 1280TIP3   OH228034   2.314   2.637  18.333 -0.0405  0.1196  0.0255
 1280TIP3    H128035   2.409   2.641  18.322 -0.2648  0.2683 -2.4397
 1280TIP3    H228036   2.295   2.544  18.341  0.3616  0.1424  1.5765
 1281TIP3   OH228037   0.912   5.764  18.985  0.0097 -0.3905  0.3963
 1281TIP3    H128038   0.965   5.805  19.053  0.4952 -1.4790  0.6954
 1281TIP3    H228039   0.975   5.724  18.926 -0.4436 -1.7316  0.7728
 1282TIP3   OH228040   7.126   1.921  18.714  0.1312 -0.1913  0.5320
 1282TIP3    H128041   7.114   2.004  18.761  1.9840  2.0332 -2.5680
 1282TIP3    H228042   7.206   1.884  18.752  0.5568  0.6148  0.4467
 1283TIP3   OH228043   3.829   6.393  16.810  0.0100  0.1304  0.3965
 1283TIP3    H128044   3.765   6.461  16.834  1.0010  0.7040  1.5014
 1283TIP3    H228045   3.783   6.340  16.745 -1.8556  0.1056  1.6327
 1284TIP3   OH228046   1.525   2.173  18.233  0.1349  0.4036  0.5564
 1284TIP3    H128047   1.485   2.253  18.266  0.7823  1.2569 -0.6435
 1284TIP3    H228048   1.466   2.143  18.163  0.7466  0.8047 -0.1552
 1285TIP3   OH228049   0.409   2.061  17.721 -0.1228  0.7353  0.3667
 1285TIP3    H128050   0.360   2.045  17.801 -2.1271 -0.0320 -0.9414
 1285TIP3    H228051   0.436   1.973  17.692  0.8628  1.0317  0.3297
 1286TIP3   OH228052   6.515   6.671  16.856 -0.2699 -0.0186 -0.1991
 1286TIP3    H128053   6.457   6.705  16.787  0.1395 -0.0351 -0.5528
 1286TIP3    H228054   6.474   6.701  16.937 -0.8075 -0.0717 -0.4398
 1287TIP3   OH228055   6.046   0.215  18.005  0.3535  0.3187  0.4051
 1287TIP3    H128056   6.114   0.281  17.990 -1.0076  1.5131 -0.8815
 1287TIP3    H228057   6.082   0.158  18.073  3.0541  0.2771 -0.9096
 1288TIP3   OH228058   5.073   6.520  17.692 -0.2137  0.4929 -0.3873
 1288TIP3    H128059   5.024   6.505  17.612  0.2397  1.4977 -0.8775
 1288TIP3    H228060   5.144   6.579  17.666  1.6663 -1.4100  0.1594
 1289TIP3   OH228061   5.089   2.963  18.313 -0.1328 -0.0879 -0.2197
 1289TIP3    H128062   5.178   2.969  18.279 -0.0756 -1.6365 -0.3924
 1289TIP3    H228063   5.091   3.012  18.396  1.6590 -2.4725  1.2551
 1290TIP3   OH228064   3.534   2.603  18.390  0.3187  0.0403  0.5200
 1290TIP3    H128065   3.480   2.524  18.384 -2.3488  1.7054  0.7754
 1290TIP3    H228066   3.519   2.636  18.479  2.0445  0.4094  0.7047
 1291TIP3   OH228067   0.390   0.923  18.844 -0.1532 -0.8673 -0.0998
 1291TIP3    H128068   0.305   0.880  18.835 -0.6582  0.2349 -0.8720
 1291TIP3    H228069   0.405   0.930  18.938 -1.9660  0.8614  0.1245
 1292TIP3   OH228070   3.453   4.273  18.678 -0.1766  0.6680 -0.1065
 1292TIP3    H128071   3.420   4.311  18.760  0.1643  0.2801  0.2155
 1292TIP3    H228072   3.410   4.323  18.609 -2.5935 -0.7606  0.2614
 1293TIP3   OH228073   2.996   7.013  17.226 -0.9387 -0.3350  0.4084
 1293TIP3    H128074   2.993   7.023  17.131  1.5310  2.2693  0.4706
 1293TIP3    H228075   3.089   7.020  17.248 -1.6563  2.7374  3.2728
 1294TIP3   OH228076   0.975   5.090  17.791 -0.3677 -0.3959 -0.0296
 1294TIP3    H128077   0.940   5.135  17.713 -1.8019  0.3580  1.0049
 1294TIP3    H228078   0.927   5.129  17.864  1.1433 -0.8952  1.2785
 1295TIP3   OH228079   7.476   0.814  17.584 -0.3775  0.1648 -0.4973
 1295TIP3    H128080   7.389   0.842  17.613  0.2804  0.6183  1.2017
 1295TIP3    H228081   7.461   0.774  17.498 -1.8909  2.4935 -1.4198
 1296TIP3   OH228082   7.346   6.649  17.673  0.3229 -0.1255 -0.1639
 1296TIP3    H128083   7.385   6.616  17.755 -0.7050 -0.8569  0.0453
 1296TIP3    H228084   7.261   6.685  17.699  0.5523  0.8686 -0.7203
 1297TIP3   OH228085   7.353   5.187  17.362  0.2660 -0.1148 -0.3385
 1297TIP3    H128086   7.362   5.196  17.267 -2.1787  1.1811 -0.5154
 1297TIP3    H228087   7.339   5.093  17.375  0.3937 -0.2771 -1.2725
 1298TIP3   OH228088   1.722   6.612  19.085 -0.5124 -0.1043  0.3585
 1298TIP3    H128089   1.748   6.653  19.167  0.8880 -2.8027  1.4072
 1298TIP3    H228090   1.676   6.532  19.111 -3.1133  0.6405 -1.5443
 1299TIP3   OH228091   1.747   1.076  18.952  0.1663  0.3521  0.0289
 1299TIP3    H128092   1.787   1.157  18.981 -0.0905  0.6185 -0.3482
 1299TIP3    H228093   1.819   1.025  18.915  0.0462  1.1799 -1.4318
 1300TIP3   OH228094   5.517   0.333  17.050  0.2300  0.1838 -0.8343
 1300TIP3    H128095   5.510   0.426  17.071 -0.1772 -0.0938  0.3235
 1300TIP3    H228096   5.453   0.291  17.106  1.6634 -0.9922 -0.0088
 1301TIP3   OH228097   0.985   3.346  18.368  0.0355  0.0996  0.1304
 1301TIP3    H128098   1.048   3.284  18.404  2.1380  0.8367 -1.9854
 1301TIP3    H228099   1.013   3.358  18.277 -1.3708  2.7671 -0.0431
 1302TIP3   OH228100   7.300   4.824  17.317  0.7459 -0.5867 -0.1226
 1302TIP3    H128101   7.302   4.729  17.333 -0.1303 -0.4705  0.7976
 1302TIP3    H228102   7.361   4.859  17.382 -1.8948 -0.2160  2.3262
 1303TIP3   OH228103   6.667   4.494  19.414 -0.2229 -0.5601 -0.4989
 1303TIP3    H128104   6.729   4.446  19.358  1.4551  0.0939  0.7158
 1303TIP3    H228105   6.596   4.432  19.429  1.5580 -2.4914  0.4797
 1304TIP3   OH228106   5.452   1.581  17.757  0.5869 -0.3861 -0.4210
 1304TIP3    H128107   5.461   1.502  17.703 -0.6573 -2.1311  1.7295
 1304TIP3    H228108   5.534   1.587  17.804  0.4159 -0.8685 -0.0474
 1305TIP3   OH228109   0.096   3.301  17.303 -0.1196 -0.3297  0.1701
 1305TIP3    H128110   0.048   3.366  17.354  1.2133  0.3611  0.5961
 1305TIP3    H228111   0.182   3.297  17.344  0.2393 -1.4493 -0.6339
 1306TIP3   OH228112   0.156   7.314  18.888  0.6123 -0.0467 -0.5469
 1306TIP3    H128113   0.229   7.263  18.922  0.4609  0.1823  0.1258
 1306TIP3    H228114   0.182   7.405  18.899  0.0261  0.0427  0.1477
 1307TIP3   OH228115   7.423   0.979  18.286  0.6089  0.3890  0.2984
 1307TIP3    H128116   7.468   0.946  18.207  1.6544  0.4314  0.8627
 1307TIP3    H228117   7.380   1.060  18.257 -0.5738 -0.5398 -0.6809
 1308TIP3   OH228118   5.289   6.509  18.129  0.3970 -0.1884  0.0114
 1308TIP3    H128119   5.285   6.587  18.185  1.6748  0.6186 -0.9797
 1308TIP3    H228120   5.264   6.437  18.187  1.9864  0.5632  1.7448
 1309TIP3   OH228121   4.651   7.016  17.086 -0.2021  0.1260 -0.3683
 1309TIP3    H128122   4.729   6.988  17.037 -1.5583 -2.2698 -1.3355
 1309TIP3    H228123   4.614   7.087  17.034  1.7337  1.8668  0.5383
 1310TIP3   OH228124   6.618   0.062  18.887 -0.7094  0.0468 -0.1276
 1310TIP3    H128125   6.543   0.119  18.867 -1.3972 -0.4022  1.0391
 1310TIP3    H228126   6.693   0.107  18.849 -1.2786  1.5725  0.4823
 1311TIP3   OH228127   4.562   3.584  17.497  0.0175 -0.1884  0.2011
 1311TIP3    H128128   4.630   3.638  17.457  0.1626 -0.0423  0.6339
 1311TIP3    H228129   4.575   3.497  17.460  0.1616 -0.0594 -0.0532
 1312TIP3   OH228130   7.123   5.893  19.393  0.4683 -0.2972 -0.0697
 1312TIP3    H128131   7.044   5.916  19.344  0.4921 -0.8477 -0.3765
 1312TIP3    H228132   7.094   5.891  19.485  0.9319  2.9797  0.2558
 1313TIP3   OH228133   2.852   5.805  18.138  0.5611 -0.4878  0.7029
 1313TIP3    H128134   2.926   5.791  18.197  0.5678 -1.0657  0.5550
 1313TIP3    H228135   2.889   5.798  18.050  0.4340 -0.2192  0.6230
 1314TIP3   OH228136   4.882   3.928  17.372 -0.0062 -0.3049 -0.4542
 1314TIP3    H128137   4.835   3.892  17.296 -0.3990 -0.1122 -0.3042
 1314TIP3    H228138   4.923   4.008  17.338  0.4835 -0.6332 -0.6661
 1315TIP3   OH228139   4.826   5.031  16.921  0.2863 -0.6052 -0.2332
 1315TIP3    H128140   4.799   4.986  16.841 -0.6544  0.6322 -0.6443
 1315TIP3    H228141   4.791   4.977  16.992 -2.9085  0.6019 -0.7413
 1316TIP3   OH228142   3.361   5.665  18.491 -0.0208 -0.3132  0.0909
 1316TIP3    H128143   3.325   5.583  18.524 -1.4979 -0.0876 -0.8926
 1316TIP3    H228144   3.316   5.733  18.542  0.9791 -0.0854  0.6953
 1317TIP3   OH228145   3.775   0.099  17.851  0.2729 -0.4081  0.1457
 1317TIP3    H128146   3.783   0.041  17.926  0.1441 -1.2891 -0.5052
 1317TIP3    H228147   3.750   0.042  17.779  2.6189 -0.0037 -1.1190
 1318TIP3   OH228148   3.764   7.164  19.554 -0.7377 -0.2155 -0.0385
 1318TIP3    H128149   3.711   7.107  19.499  0.6249 -0.9675 -0.6140
 1318TIP3    H228150   3.855   7.141  19.533 -0.1608  1.3320  0.5915
 1319TIP3   OH228151   3.686   0.830  18.552 -0.2371  0.2443 -0.2936
 1319TIP3    H128152   3.780   0.810  18.545 -0.5822 -2.0718  0.7569
 1319TIP3    H228153   3.683   0.917  18.592  1.4457  0.4162 -0.4347
 1320TIP3   OH228154   6.568   1.116  17.685  0.6754  0.0041  0.2107
 1320TIP3    H128155   6.567   1.072  17.770 -0.3317 -0.4400 -0.0137
 1320TIP3    H228156   6.618   1.196  17.700 -0.2507  0.3928  1.4596
 1321TIP3   OH228157   5.005   5.073  19.243  0.4719  0.3187 -0.3261
 1321TIP3    H128158   5.099   5.088  19.248  0.2762  1.4854  0.0322
 1321TIP3    H228159   4.997   4.978  19.234  1.6027 -0.1062  2.2637
 1322TIP3   OH228160   6.357   6.125  18.133 -0.2349 -0.2281 -0.0342
 1322TIP3    H128161   6.272   6.091  18.105  0.4744 -0.3534 -2.2264
 1322TIP3    H228162   6.389   6.175  18.058  1.6063 -0.1397  0.7524
 1323TIP3   OH228163   6.997   3.415  17.907 -0.0537  0.1496  0.2349
 1323TIP3    H128164   6.919   3.376  17.868 -1.0952  1.7685  0.6184
 1323TIP3    H228165   7.010   3.366  17.988 -0.9184  0.1214  0.3635
 1324TIP3   OH228166   0.270   6.182  18.983 -0.0119  0.3752  0.1395
 1324TIP3    H128167   0.233   6.180  19.071  2.3904  0.2019  1.2108
 1324TIP3    H228168   0.303   6.271  18.972 -0.2055  0.3703 -0.5498
 1325TIP3   OH228169   2.160   3.013  18.529 -0.6073 -0.3506  0.3044
 1325TIP3    H128170   2.175   3.048  18.616 -0.8389  0.0611  0.1817
 1325TIP3    H228171   2.066   2.992  18.528 -0.1223 -2.9142  1.0719
 1326TIP3   OH228172   3.060   6.239  19.042 -0.0762  0.3373  0.0780
 1326TIP3    H128173   3.099   6.326  19.053 -2.5141  1.5931 -0.4441
 1326TIP3    H228174   2.997   6.232  19.114 -0.1829 -0.8747 -0.1076
 1327TIP3   OH228175   3.693   6.765  19.349 -0.0432  0.1356  0.3057
 1327TIP3    H128176   3.747   6.694  19.314  0.9362  0.8716  0.2767
 1327TIP3    H228177   3.649   6.801  19.273  0.8725  0.7218  0.0397
 1328TIP3   OH228178   4.876   5.709  19.579  0.4865 -0.0324 -0.0037
 1328TIP3    H128179   4.949   5.692  19.520  0.0374 -1.7643 -0.1145
 1328TIP3    H228180   4.904   5.674  19.663  0.1163  0.0850  0.1707
 1329TIP3   OH228181   4.554   6.000  19.358 -0.1512 -0.0806 -0.7668
 1329TIP3    H128182   4.479   5.958  19.400 -0.3969 -0.3941 -1.5090
 1329TIP3    H228183   4.611   5.927  19.334  1.4734  0.2335  1.7252
 1330TIP3   OH228184   5.086   6.288  16.998  0.0702  0.0060 -0.0167
 1330TIP3    H128185   5.156   6.315  17.058  0.5298  0.2186 -0.6400
 1330TIP3    H228186   5.129   6.231  16.935 -0.8690 -2.1666  1.2212
 1331TIP3   OH228187   0.123   3.937  18.701  0.7298 -0.4512 -0.2047
 1331TIP3    H128188   0.092   4.012  18.751 -0.3853 -0.1371 -1.2975
 1331TIP3    H228189   0.091   3.953  18.612 -0.0391 -2.4999 -0.3552
 1332TIP3   OH228190   5.280   3.402  19.243  0.0009 -0.1633 -0.3044
 1332TIP3    H128191   5.319   3.487  19.222 -0.1676 -0.0684 -0.2281
 1332TIP3    H228192   5.250   3.368  19.158 -0.4515  0.1084 -0.2517
 1333TIP3   OH228193   0.355   4.323  18.797 -0.3179 -0.2561  0.5358
 1333TIP3    H128194   0.279   4.289  18.844 -1.4561  2.3593  0.7845
 1333TIP3    H228195   0.318   4.361  18.717  1.0998 -1.1944 -0.6117
 1334TIP3   OH228196   4.270   3.128  17.025  0.1852 -0.0011 -0.0434
 1334TIP3    H128197   4.225   3.160  17.103 -0.2909  1.7290 -0.9817
 1334TIP3    H228198   4.231   3.177  16.953  0.9086 -1.2531 -1.3360
 1335TIP3   OH228199   3.551   2.199  18.827 -0.8762  0.1543 -0.2699
 1335TIP3    H128200   3.579   2.283  18.863  0.0133  0.2634 -1.1551
 1335TIP3    H228201   3.586   2.199  18.738  0.2152 -1.6655  0.1019
 1336TIP3   OH228202   6.597   6.106  18.824 -0.3874  0.7549  0.0701
 1336TIP3    H128203   6.531   6.161  18.868 -0.4532  0.5163  0.2789
 1336TIP3    H228204   6.634   6.162  18.756 -1.2569  0.6958 -0.4694
 1337TIP3   OH228205   0.197   2.093  17.925  0.2337  0.2553  0.5454
 1337TIP3    H128206   0.103   2.096  17.905  0.3437  0.9346  0.0901
 1337TIP3    H228207   0.214   2.174  17.974  0.7371  0.5673 -0.1212
 1338TIP3   OH228208   6.478   1.596  18.854  0.4596  0.0704 -0.0630
 1338TIP3    H128209   6.449   1.683  18.883  1.1587 -0.0625  1.0964
 1338TIP3    H228210   6.513   1.555  18.933  0.9594 -0.9330 -0.7842
 1339TIP3   OH228211   6.904   2.308  18.096 -0.0822 -0.1485 -0.1272
 1339TIP3    H128212   6.951   2.387  18.069  0.1189 -0.9848 -2.4305
 1339TIP3    H228213   6.816   2.318  18.058  0.9383 -2.4645 -3.5551
 1340TIP3   OH228214   2.884   4.598  19.258  0.5607  0.2542  0.2572
 1340TIP3    H128215   2.886   4.607  19.353  1.4584 -1.7389  0.4789
 1340TIP3    H228216   2.906   4.506  19.242 -0.5981  0.2816 -1.8476
 1341TIP3   OH228217   2.456   1.491  16.937 -0.3059 -0.1040  0.3259
 1341TIP3    H128218   2.407   1.415  16.906 -0.7700  0.0185  0.7523
 1341TIP3    H228219   2.390   1.559  16.950  0.3404  1.1554 -2.2716
 1342TIP3   OH228220   6.327   6.910  19.052 -0.6429  0.0582 -0.3393
 1342TIP3    H128221   6.394   6.841  19.054  0.4609  0.9531 -2.8708
 1342TIP3    H228222   6.252   6.869  19.008  0.0593  0.4376 -1.9612
 1343TIP3   OH228223   6.525   7.601  19.218  0.1233  0.3692 -0.1194
 1343TIP3    H128224   6.534   7.684  19.265 -0.1245  0.5645 -0.4121
 1343TIP3    H228225   6.460   7.620  19.150  0.4028  0.0604 -0.4709
 1344TIP3   OH228226   4.602   4.874  18.495 -0.6908 -0.1856  0.0835
 1344TIP3    H128227   4.572   4.801  18.549  1.2051 -1.2677 -0.2150
 1344TIP3    H228228   4.540   4.877  18.422 -1.5197 -0.6820  0.7570
 1345TIP3   OH228229   4.375   1.738  18.096 -0.4282 -0.4758  0.5445
 1345TIP3    H128230   4.363   1.825  18.135  1.2240 -0.1878  0.4822
 1345TIP3    H228231   4.457   1.706  18.134 -0.4141 -1.5099 -0.3281
 1346TIP3   OH228232   2.667   3.559  17.881 -0.3075  0.0699  0.0664
 1346TIP3    H128233   2.740   3.594  17.830 -0.2944 -0.0550 -0.0012
 1346TIP3    H228234   2.709   3.524  17.960 -0.2875 -0.0428  0.0062
 1347TIP3   OH228235   2.310   1.298  19.492 -0.2647  0.3864  0.0019
 1347TIP3    H128236   2.328   1.205  19.479  2.5618  1.2456 -3.6353
 1347TIP3    H228237   2.232   1.314  19.439  0.1380  0.3438 -0.6133
 1348TIP3   OH228238   1.188   4.069  17.394  0.3008  0.0723 -0.4350
 1348TIP3    H128239   1.212   3.984  17.356  0.7698 -0.5402  1.1436
 1348TIP3    H228240   1.166   4.049  17.485  2.6953  1.9260  0.6703
 1349TIP3   OH228241   1.982   2.629  19.222  0.2712 -0.3208 -0.0217
 1349TIP3    H128242   2.005   2.539  19.201 -2.0536 -0.9532 -0.1763
 1349TIP3    H228243   1.938   2.662  19.144  0.8056  0.8544  0.1498
 1350TIP3   OH228244   2.383   4.378  19.141 -0.2992  0.1529 -0.4817
 1350TIP3    H128245   2.423   4.291  19.134 -1.0914 -0.3167  0.5647
 1350TIP3    H228246   2.294   4.361  19.170  0.1569  1.4071  1.9070
 1351TIP3   OH228247   0.262   1.795  17.562 -0.0248  0.1466 -0.0582
 1351TIP3    H128248   0.276   1.754  17.477  2.1410 -1.4991  0.9889
 1351TIP3    H228249   0.270   1.723  17.625  0.9067  1.6860  1.6869
 1352TIP3   OH228250   2.664   5.827  19.386  0.5185 -0.4529  0.1073
 1352TIP3    H128251   2.670   5.734  19.411  1.6410 -0.4673 -0.1584
 1352TIP3    H228252   2.747   5.864  19.415  1.1570 -0.0819 -2.0358
 1353TIP3   OH228253   4.463   4.236  19.596 -0.1554 -0.3104  0.4199
 1353TIP3    H128254   4.434   4.206  19.682  1.3776  0.2009  1.1356
 1353TIP3    H228255   4.451   4.159  19.539  0.8283 -1.3338  1.5547
 1354TIP3   OH228256   0.522   4.919  17.630 -0.7756  0.1972  0.6228
 1354TIP3    H128257   0.559   4.982  17.569 -3.5978  1.2556 -0.1810
 1354TIP3    H228258   0.585   4.848  17.633  0.0755  0.6518 -2.6321
 1355TIP3   OH228259   6.061   7.651  17.770 -0.2214 -0.2626  0.3366
 1355TIP3    H128260   6.066   7.571  17.821  1.1187 -0.3697  0.0933
 1355TIP3    H228261   6.011   7.712  17.824 -0.8215 -1.1076  0.7352
 1356TIP3   OH228262   7.082   6.998  19.083  0.2319 -0.2804  0.1377
 1356TIP3    H128263   7.139   7.008  19.007  0.8717 -0.5060  0.5798
 1356TIP3    H228264   7.076   7.086  19.120 -1.2229  0.1178 -0.9623
 1357TIP3   OH228265   6.876   6.148  17.603 -0.2546  0.5164  0.0024
 1357TIP3    H128266   6.918   6.114  17.682 -1.3512  0.4722  0.5948
 1357TIP3    H228267   6.895   6.084  17.535 -0.7252 -0.3363  0.6559
 1358TIP3   OH228268   5.003   5.481  18.686 -0.2307 -0.3537 -0.7497
 1358TIP3    H128269   4.949   5.407  18.659 -0.7407  0.0617 -0.8637
 1358TIP3    H228270   4.941   5.548  18.715  0.2760 -0.6944  1.2729
 1359TIP3   OH228271   1.534   5.575  18.106  0.3663  0.5974 -0.2963
 1359TIP3    H128272   1.538   5.480  18.116  1.1628  0.6395 -0.2156
 1359TIP3    H228273   1.467   5.589  18.039  0.2096 -0.0176 -0.2680
 1360TIP3   OH228274   5.659   3.717  18.090  0.0038 -0.1524 -0.1468
 1360TIP3    H128275   5.686   3.795  18.043  1.7599 -1.1239 -0.8649
 1360TIP3    H228276   5.679   3.645  18.031  1.5553 -1.3669  1.7105
 1361TIP3   OH228277   2.136   0.770  17.847  0.4020  0.3527 -0.2706
 1361TIP3    H128278   2.060   0.826  17.864 -0.3201 -0.7808  0.3934
 1361TIP3    H228279   2.120   0.735  17.759  1.3349  1.8802 -1.0925
 1362TIP3   OH228280   1.736   7.667  16.942 -0.2297 -0.0360  0.3201
 1362TIP3    H128281   1.696   7.742  16.897 -0.6432 -0.8571 -0.7026
 1362TIP3    H228282   1.722   7.686  17.035  0.1358  1.4126  0.1183
 1363TIP3   OH228283   1.265   0.375  18.645 -0.3894  0.1595  0.2793
 1363TIP3    H128284   1.288   0.356  18.736  2.6572 -0.8859 -0.5725
 1363TIP3    H228285   1.178   0.337  18.634 -0.2637 -0.8869  2.4029
 1364TIP3   OH228286   3.859   4.937  16.586  0.1090 -0.0875  0.2120
 1364TIP3    H128287   3.856   4.949  16.680 -0.7662 -1.4134  0.3782
 1364TIP3    H228288   3.946   4.901  16.569  0.4895  0.7115  0.4254
 1365TIP3   OH228289   6.934   4.630  17.584 -0.0790 -0.0151 -0.0279
 1365TIP3    H128290   6.982   4.575  17.646 -1.5666 -1.1330  0.1611
 1365TIP3    H228291   6.869   4.572  17.545 -1.0638  1.3805 -0.5295
 1366TIP3   OH228292   1.898   4.701  19.006 -0.1175  0.3143  0.0177
 1366TIP3    H128293   1.845   4.629  18.970  0.4657  0.3396 -0.9434
 1366TIP3    H228294   1.836   4.773  19.018 -0.7697 -0.4265  1.2874
 1367TIP3   OH228295   1.257   6.996  19.447 -0.2492 -0.0017  0.1497
 1367TIP3    H128296   1.290   6.910  19.473  2.0530  0.1385 -1.9537
 1367TIP3    H228297   1.302   7.057  19.506 -0.5252 -0.1303  0.4930
 1368TIP3   OH228298   5.062   2.890  17.466  0.5434 -0.0405 -0.2077
 1368TIP3    H128299   5.051   2.828  17.394 -0.5042 -0.6353  0.4334
 1368TIP3    H228300   5.153   2.879  17.493  0.5549 -0.8372 -0.5334
 1369TIP3   OH228301   3.815   2.723  18.159  0.4788 -0.3524  0.1780
 1369TIP3    H128302   3.788   2.654  18.219  0.3539  0.5610  1.2234
 1369TIP3    H228303   3.865   2.679  18.091 -1.2750 -1.7174 -0.2786
 1370TIP3   OH228304   2.957   0.059  18.648 -0.1890 -0.2177 -0.3291
 1370TIP3    H128305   2.985   0.149  18.629  0.1567 -0.4720 -1.1175
 1370TIP3    H228306   3.039   0.010  18.655 -0.3111 -0.2217  1.5780
 1371TIP3   OH228307   6.906   0.678  18.627 -0.2336  0.5291  0.7126
 1371TIP3    H128308   6.844   0.609  18.602 -0.3842  0.1097  2.1674
 1371TIP3    H228309   6.894   0.688  18.721  0.9581  1.4005  0.7909
 1372TIP3   OH228310   5.856   0.430  18.045  0.3081 -0.2867 -0.0133
 1372TIP3    H128311   5.922   0.404  17.981 -0.0479  0.4684 -0.6962
 1372TIP3    H228312   5.853   0.357  18.107 -0.6460 -1.8909 -1.8418
 1373TIP3   OH228313   1.965   3.340  18.570  0.5484  0.0911 -0.3391
 1373TIP3    H128314   1.988   3.432  18.582  1.2749 -0.2072  0.7766
 1373TIP3    H228315   2.004   3.296  18.645 -1.7052 -0.8239  0.3789
 1374TIP3   OH228316   6.594   6.339  18.707  0.0644  0.1004 -0.2098
 1374TIP3    H128317   6.530   6.410  18.695 -1.5666 -1.0951  0.8923
 1374TIP3    H228318   6.648   6.342  18.628 -0.0385  2.4424 -0.2663
 1375TIP3   OH228319   1.333   7.354  18.044  0.3111  0.1529  0.4518
 1375TIP3    H128320   1.321   7.267  18.004  2.9167  0.0848 -0.3576
 1375TIP3    H228321   1.305   7.342  18.135  0.0847 -1.3884  0.2177
 1376TIP3   OH228322   4.014   2.871  17.921  0.1461  0.1074 -0.0269
 1376TIP3    H128323   4.056   2.799  17.874  0.2370 -0.7427  1.2912
 1376TIP3    H228324   3.964   2.828  17.990  0.1011  1.3078  0.7132
 1377TIP3   OH228325   4.914   0.682  17.605  0.3354 -0.1850  0.0077
 1377TIP3    H128326   4.888   0.688  17.513 -0.1909 -0.1959  0.1545
 1377TIP3    H228327   4.903   0.771  17.639 -0.6677 -0.4395  0.3735
 1378TIP3   OH228328   1.306   5.802  18.427 -0.4510  0.5708  0.2755
 1378TIP3    H128329   1.383   5.849  18.393 -1.2246  2.6378  1.2532
 1378TIP3    H228330   1.338   5.761  18.507  0.1674 -0.4439 -0.4574
 1379TIP3   OH228331   6.835   7.246  17.921  0.3419 -0.4390  0.5987
 1379TIP3    H128332   6.763   7.189  17.949 -0.1040 -1.8493 -2.9070
 1379TIP3    H228333   6.910   7.217  17.973 -1.0026 -0.6406  2.5507
 1380TIP3   OH228334   7.545   0.962  17.279  0.0595  0.7356  0.2621
 1380TIP3    H128335   7.502   0.877  17.291  0.0458  0.8317  0.9741
 1380TIP3    H228336   7.538   0.980  17.185  0.4248 -0.2377  0.0401
 1381TIP3   OH228337   1.067   5.428  18.172  0.0265  0.0460  0.0394
 1381TIP3    H128338   0.975   5.448  18.156  0.1067  0.2929 -0.1336
 1381TIP3    H228339   1.103   5.509  18.210  0.4007  0.3179 -0.8538
 1382TIP3   OH228340   3.742   1.593  16.887  0.5745  0.6547  0.3474
 1382TIP3    H128341   3.744   1.515  16.942  0.5961  0.6202  0.2984
 1382TIP3    H228342   3.710   1.562  16.802  2.6537  0.2521 -0.3678
 1383TIP3   OH228343   0.834   2.317  17.975  0.5528 -0.2458  0.4177
 1383TIP3    H128344   0.894   2.267  17.921  0.8098 -1.7342  2.0112
 1383TIP3    H228345   0.771   2.253  18.008 -0.1357  0.7649  1.1473
 1384TIP3   OH228346   5.466   7.173  18.024 -0.2663  0.0193 -0.1000
 1384TIP3    H128347   5.410   7.220  17.962  1.0765  1.7921 -0.0543
 1384TIP3    H228348   5.527   7.239  18.055  0.7708 -1.4588  1.1385
 1385TIP3   OH228349   7.655   3.347  18.221  0.4260 -0.9574  0.4070
 1385TIP3    H128350   7.673   3.256  18.242 -1.3720 -1.5340 -0.3207
 1385TIP3    H228351   7.661   3.351  18.125  1.4460 -0.0629  0.4841
 1386TIP3   OH228352   3.428   4.222  18.215  0.3097 -0.3510  0.1853
 1386TIP3    H128353   3.446   4.280  18.142 -2.0484 -0.2295 -0.3874
 1386TIP3    H228354   3.335   4.235  18.234  0.0867 -2.7298  1.1050
 1387TIP3   OH228355   0.305   1.282  18.948 -0.3792 -0.1876  0.1158
 1387TIP3    H128356   0.353   1.268  18.867 -0.6526  0.7282 -0.2114
 1387TIP3    H228357   0.370   1.271  19.017 -0.1975 -1.2170 -0.2064
 1388TIP3   OH228358   6.289   2.978  18.794 -0.1928  0.1145 -0.6160
 1388TIP3    H128359   6.272   2.887  18.819 -0.1948 -0.3731 -2.2481
 1388TIP3    H228360   6.203   3.015  18.776 -0.0843 -0.1886 -1.8835
 1389TIP3   OH228361   4.363   1.228  19.114  0.4853 -0.0236  0.1109
 1389TIP3    H128362   4.329   1.253  19.200 -0.7169  0.6780 -0.5388
 1389TIP3    H228363   4.358   1.132  19.114 -1.0440  0.0251  0.2559
 1390TIP3   OH228364   4.777   4.080  18.250 -0.1911  0.2280 -0.1433
 1390TIP3    H128365   4.865   4.044  18.252  0.0299  0.6204 -1.7279
 1390TIP3    H228366   4.769   4.129  18.332  1.1297  0.3507 -0.0704
 1391TIP3   OH228367   7.475   0.043  18.300  0.4511 -0.1817 -0.2901
 1391TIP3    H128368   7.475   0.063  18.394  1.9644  0.7238 -0.4501
 1391TIP3    H228369   7.410   0.102  18.263  0.1608 -0.2352  0.1235
 1392TIP3   OH228370   7.355   0.421  19.637 -0.2395  0.3047  0.1814
 1392TIP3    H128371   7.295   0.495  19.644  0.3530  0.9136 -0.9708
 1392TIP3    H228372   7.299   0.346  19.619 -0.8131  0.5289  0.9754
 1393TIP3   OH228373   3.087   4.359  17.752  0.2904 -0.0134 -0.1580
 1393TIP3    H128374   3.109   4.293  17.817 -2.8130  0.1588  1.2276
 1393TIP3    H228375   3.058   4.309  17.676 -0.4441 -0.2455  0.2729
 1394TIP3   OH228376   7.140   2.311  18.737 -0.1887 -0.1531  0.1096
 1394TIP3    H128377   7.172   2.357  18.814  0.8963  1.3452 -1.1784
 1394TIP3    H228378   7.045   2.321  18.740 -0.1388  0.1023  1.0929
 1395TIP3   OH228379   6.459   4.515  17.024 -0.2143 -0.5715  0.2234
 1395TIP3    H128380   6.465   4.444  16.960 -0.0637  0.2789 -0.7304
 1395TIP3    H228381   6.537   4.505  17.078 -0.3420 -1.3020  0.2802
 1396TIP3   OH228382   2.780   6.261  18.918  0.4185  0.1151  0.3666
 1396TIP3    H128383   2.865   6.304  18.915 -0.6173  2.4009  1.4897
 1396TIP3    H228384   2.756   6.248  18.827  2.0941 -0.9245  0.0326
 1397TIP3   OH228385   5.309   1.716  19.211 -0.0816 -0.2068 -0.4520
 1397TIP3    H128386   5.222   1.748  19.234  0.1279  0.2968 -0.3494
 1397TIP3    H228387   5.306   1.706  19.116 -0.2109 -0.0637 -0.4647
 1398TIP3   OH228388   6.353   0.527  19.611  0.1382  0.0648 -0.2084
 1398TIP3    H128389   6.435   0.479  19.596  0.0006 -0.2690  0.0754
 1398TIP3    H228390   6.302   0.512  19.531 -0.0313 -0.5380  0.0007
 1399TIP3   OH228391   1.769   4.622  18.145 -0.5782  0.0246 -0.4325
 1399TIP3    H128392   1.805   4.630  18.057 -1.3820 -0.5866 -0.8225
 1399TIP3    H228393   1.697   4.560  18.136  0.4934 -1.5295  1.0043
 1400TIP3   OH228394   2.644   1.002  19.600  0.4009 -0.3953  0.6265
 1400TIP3    H128395   2.656   1.027  19.509  0.6057 -0.9587  0.4969
 1400TIP3    H228396   2.722   1.036  19.645 -0.7490  1.8863  1.0303
 1401TIP3   OH228397   6.328   7.214  19.063 -0.1041  0.1986 -0.1374
 1401TIP3    H128398   6.310   7.131  19.107  0.0550 -0.1856 -0.7964
 1401TIP3    H228399   6.283   7.279  19.117  0.8769 -0.1317  1.1477
 1402TIP3   OH228400   2.788   7.029  17.939  0.8851 -0.5501  0.0448
 1402TIP3    H128401   2.701   6.998  17.914  0.6324 -0.8145  1.1629
 1402TIP3    H228402   2.843   7.015  17.862  0.1544 -1.2655 -0.3522
 1403TIP3   OH228403   0.244   6.154  17.249  0.4359 -0.0275 -1.2460
 1403TIP3    H128404   0.263   6.238  17.206 -0.7925 -0.1969 -2.1702
 1403TIP3    H228405   0.149   6.154  17.260  0.3052 -1.6817 -2.1045
 1404TIP3   OH228406   5.132   6.378  17.422  0.2820 -0.1578 -0.0186
 1404TIP3    H128407   5.165   6.464  17.397 -0.6491  0.1057 -0.4021
 1404TIP3    H228408   5.154   6.320  17.349 -0.2203  0.0498 -0.3389
 1405TIP3   OH228409   0.376   3.005  18.721 -0.5566 -0.2552  0.1803
 1405TIP3    H128410   0.396   3.098  18.713  1.1242 -0.7066 -1.8471
 1405TIP3    H228411   0.283   2.998  18.702 -0.6514  0.9815  0.1347
 1406TIP3   OH228412   6.414   6.285  18.951  0.1017  0.3524 -0.2278
 1406TIP3    H128413   6.349   6.251  19.012 -0.0014  1.6272  0.4103
 1406TIP3    H228414   6.368   6.290  18.867 -0.2681  0.1576 -0.0371
 1407TIP3   OH228415   1.905   4.191  17.480 -0.0021  0.8174  0.5161
 1407TIP3    H128416   1.940   4.233  17.401  0.7602 -0.8709 -0.1009
 1407TIP3    H228417   1.983   4.173  17.534 -0.2062 -0.4545  0.4101
 1408TIP3   OH228418   0.675   6.896  19.121 -0.0490  0.3176 -0.5347
 1408TIP3    H128419   0.665   6.942  19.038 -2.5410 -0.7420 -0.9345
 1408TIP3    H228420   0.586   6.893  19.157  1.1093  1.8891  2.8753
 1409TIP3   OH228421   7.510   4.237  19.683  0.4675  0.3965  0.0386
 1409TIP3    H128422   7.512   4.215  19.590 -0.4251  1.1094 -0.1646
 1409TIP3    H228423   7.601   4.252  19.707  0.5761  1.5758 -1.0569
 1410TIP3   OH228424   3.806   1.272  18.268 -0.4930  0.0820 -0.0565
 1410TIP3    H128425   3.729   1.221  18.243 -1.3209  1.9455 -1.5474
 1410TIP3    H228426   3.851   1.290  18.186  0.9758 -0.0455  0.6832
 1411TIP3   OH228427   4.545   0.100  17.290  0.6910 -0.3301  1.1402
 1411TIP3    H128428   4.491   0.150  17.229  0.7213 -0.7033  0.8050
 1411TIP3    H228429   4.483   0.064  17.353  0.7091  0.4667  1.6362
 1412TIP3   OH228430   5.635   6.260  18.994  0.8758 -0.1541  0.2281
 1412TIP3    H128431   5.568   6.286  18.931  0.9271  0.1712  0.3072
 1412TIP3    H228432   5.589   6.200  19.054  1.1202 -1.3996 -0.7966
 1413TIP3   OH228433   6.536   4.526  17.741 -0.1214 -0.7364 -0.3375
 1413TIP3    H128434   6.511   4.611  17.780  0.1579 -0.5261 -0.6125
 1413TIP3    H228435   6.585   4.482  17.810  0.2508 -0.4210 -0.3977
 1414TIP3   OH228436   0.110   6.135  19.499  0.2756 -0.3666  0.0755
 1414TIP3    H128437   0.033   6.191  19.503  0.3889 -0.1776 -0.3653
 1414TIP3    H228438   0.181   6.190  19.533  0.4543 -0.1157 -0.6758
 1415TIP3   OH228439   5.975   1.337  17.943  0.0889  0.3664  0.1516
 1415TIP3    H128440   6.016   1.381  17.868 -1.7123 -0.2459 -1.2551
 1415TIP3    H228441   5.979   1.244  17.922 -0.5909  0.1937  0.7425
 1416TIP3   OH228442   1.592   5.295  19.025 -0.0435 -0.0666 -0.0585
 1416TIP3    H128443   1.528   5.227  19.046 -0.6472  0.6626  0.5121
 1416TIP3    H228444   1.604   5.288  18.930  0.1479 -1.1686  0.0309
 1417TIP3   OH228445   7.032   6.589  19.487 -0.2000 -0.0583 -0.3767
 1417TIP3    H128446   6.937   6.597  19.476 -0.2920 -0.7677 -0.1698
 1417TIP3    H228447   7.069   6.649  19.422 -0.7696 -1.1086 -1.7315
 1418TIP3   OH228448   4.804   0.223  18.845 -0.1930  0.1132  0.0282
 1418TIP3    H128449   4.767   0.307  18.817 -0.5011 -0.1608 -0.4016
 1418TIP3    H228450   4.893   0.244  18.874 -1.0141  0.9689  2.0926
 1419TIP3   OH228451   4.143   4.613  17.594  0.6716 -0.3438 -0.1162
 1419TIP3    H128452   4.137   4.620  17.499 -0.6088 -0.6168 -0.0696
 1419TIP3    H228453   4.080   4.677  17.627  1.0728 -0.2845  0.5565
 1420TIP3   OH228454   4.495   1.362  17.689  0.2375  0.8730 -0.4396
 1420TIP3    H128455   4.448   1.443  17.669 -0.3971  0.3030 -1.3410
 1420TIP3    H228456   4.512   1.323  17.604  0.9034  0.2590 -0.0329
 1421TIP3   OH228457   2.126   1.405  18.877  0.1537  0.0528 -0.4899
 1421TIP3    H128458   2.206   1.369  18.916  0.5340  2.1987  0.8887
 1421TIP3    H228459   2.136   1.390  18.783  2.8299  1.3513 -0.5077
 1422TIP3   OH228460   1.018   2.280  18.265  0.1805 -0.0830  0.0174
 1422TIP3    H128461   1.016   2.369  18.227  2.0237 -0.0442 -0.0697
 1422TIP3    H228462   1.033   2.294  18.358 -0.5023 -0.3029  0.1701
 1423TIP3   OH228463   4.268   4.204  19.256 -0.1768  0.1773  0.1408
 1423TIP3    H128464   4.269   4.227  19.163  0.1873  0.4205  0.2047
 1423TIP3    H228465   4.343   4.147  19.268  1.0675  1.8414  0.7082
 1424TIP3   OH228466   5.013   1.393  17.832  0.2309  0.3316  0.3128
 1424TIP3    H128467   5.058   1.320  17.874  0.2927 -0.3261 -0.8741
 1424TIP3    H228468   4.969   1.355  17.756 -2.2175  0.9628  1.2869
 1425TIP3   OH228469   7.180   7.208  19.219  0.0801 -0.2702 -0.2041
 1425TIP3    H128470   7.098   7.236  19.260 -0.6718 -1.9978 -0.4477
 1425TIP3    H228471   7.238   7.190  19.293 -0.7134 -1.7290  0.1081
 1426TIP3   OH228472   4.975   2.406  19.115  0.5146  0.5606 -0.3142
 1426TIP3    H128473   5.056   2.428  19.070  0.1279  0.6025 -1.0037
 1426TIP3    H228474   4.991   2.318  19.150  1.5401  1.3239  1.2159
 1427TIP3   OH228475   1.349   2.949  18.358  0.1284 -0.1964 -0.0052
 1427TIP3    H128476   1.302   2.876  18.317  0.3408  0.3560 -1.2674
 1427TIP3    H228477   1.375   3.005  18.285 -2.1365  2.4717  1.0633
 1428TIP3   OH228478   3.573   7.345  17.334  0.1895  0.3582 -0.2129
 1428TIP3    H128479   3.490   7.325  17.292  0.8233 -1.9853 -0.5013
 1428TIP3    H228480   3.638   7.336  17.265  0.8842  0.1096  0.4563
 1429TIP3   OH228481   4.927   6.927  17.425  0.4718  0.7806  0.3236
 1429TIP3    H128482   4.966   6.902  17.341  0.3554  2.7194 -0.3540
 1429TIP3    H228483   4.863   6.858  17.443  0.7586  0.1296 -0.9957
 1430TIP3   OH228484   6.255   5.389  18.923  0.1899  0.7326  0.9028
 1430TIP3    H128485   6.199   5.341  18.862  0.9881  2.0333 -0.9276
 1430TIP3    H228486   6.280   5.324  18.989 -1.1877 -0.5695  0.2003
 1431TIP3   OH228487   4.627   7.380  19.676 -0.1435  0.4974 -0.3074
 1431TIP3    H128488   4.677   7.392  19.757 -1.4223 -1.1697  0.7809
 1431TIP3    H228489   4.536   7.381  19.704 -0.6452  0.7740 -1.8758
 1432TIP3   OH228490   6.493   2.301  19.570 -0.2534  0.0208  0.5891
 1432TIP3    H128491   6.404   2.307  19.536  0.3255 -0.4763 -1.1651
 1432TIP3    H228492   6.513   2.389  19.600 -0.8326  0.5211 -0.4247
 1433TIP3   OH228493   2.417   2.518  16.997  0.2701 -0.4183 -0.0977
 1433TIP3    H128494   2.407   2.465  17.076 -0.8740 -0.9676 -0.6002
 1433TIP3    H228495   2.429   2.455  16.926 -3.2831 -0.2546 -1.0548
 1434TIP3   OH228496   5.141   0.473  19.125 -0.1756  0.2875  0.0990
 1434TIP3    H128497   5.091   0.435  19.052  0.6258 -0.8186  0.0965
 1434TIP3    H228498   5.076   0.521  19.176 -0.8063  0.8474 -1.1792
 1435TIP3   OH228499   0.927   3.874  17.395  0.3645 -0.1414  0.9002
 1435TIP3    H128500   0.919   3.938  17.324  2.7128  0.4508  1.0874
 1435TIP3    H228501   0.838   3.863  17.427 -0.8242 -0.4660 -2.1340
 1436TIP3   OH228502   3.089   5.680  17.975 -0.1577  0.3097  0.1820
 1436TIP3    H128503   3.154   5.692  18.045 -2.4749 -1.2688  2.8030
 1436TIP3    H228504   3.113   5.746  17.909  2.1946  1.9131  2.4298
 1437TIP3   OH228505   7.140   3.723  18.051 -0.0602 -0.6453 -0.4211
 1437TIP3    H128506   7.065   3.775  18.024  1.0382  0.9479 -0.5262
 1437TIP3    H228507   7.146   3.654  17.985 -0.1243  0.5277 -1.6986
 1438TIP3   OH228508   5.297   5.345  19.345 -0.4060 -0.4652  0.1746
 1438TIP3    H128509   5.202   5.340  19.355 -0.5229 -1.2280 -1.1064
 1438TIP3    H228510   5.321   5.265  19.300  0.6791  0.2937 -0.6532
 1439TIP3   OH228511   1.701   4.354  17.618  0.1410 -0.0224 -0.0032
 1439TIP3    H128512   1.771   4.314  17.566  0.7132  0.8658  0.0686
 1439TIP3    H228513   1.731   4.345  17.709 -0.9966 -1.8573  0.2672
 1440TIP3   OH228514   6.034   6.650  17.778 -0.5964 -0.4825  0.3373
 1440TIP3    H128515   6.096   6.718  17.750  0.5876 -1.2196  1.0763
 1440TIP3    H228516   5.994   6.686  17.857 -2.1042  0.5353 -0.8241
 1441TIP3   OH228517   4.829   1.550  19.006 -0.0156  0.1550 -0.2582
 1441TIP3    H128518   4.864   1.583  18.923 -0.1903  0.9813 -0.0113
 1441TIP3    H228519   4.735   1.563  18.999 -0.2249 -1.3740 -0.6156
 1442TIP3   OH228520   2.952   5.687  19.170 -0.3360  0.1401 -0.7333
 1442TIP3    H128521   3.046   5.698  19.159 -0.4477  1.3926 -0.6062
 1442TIP3    H228522   2.928   5.623  19.103  0.6215 -0.3097 -0.6653
 1443TIP3   OH228523   2.008   1.671  18.253  0.4437 -0.3517 -0.5031
 1443TIP3    H128524   1.922   1.668  18.211 -0.6174 -1.5914  1.6044
 1443TIP3    H228525   2.032   1.763  18.252 -1.2827  0.1266 -0.4281
 1444TIP3   OH228526   2.974   1.134  19.023 -0.2167 -0.3715 -0.2681
 1444TIP3    H128527   2.968   1.227  19.046  0.2318 -0.6719  1.1589
 1444TIP3    H228528   2.904   1.092  19.074  1.3067 -1.1662  1.2650
 1445TIP3   OH228529   5.705   3.760  18.347 -0.8295 -0.5300 -0.2139
 1445TIP3    H128530   5.645   3.699  18.389 -0.8904 -0.2406  0.1216
 1445TIP3    H228531   5.708   3.731  18.256 -0.3356 -1.4508  0.0735
 1446TIP3   OH228532   5.188   6.417  19.381 -0.0278 -0.2362 -0.2047
 1446TIP3    H128533   5.241   6.421  19.460 -0.7120 -1.5059  0.3526
 1446TIP3    H228534   5.110   6.367  19.407 -1.1607  0.9305 -1.1821
 1447TIP3   OH228535   0.125   5.866  19.494  0.3731  0.0343 -0.6180
 1447TIP3    H128536   0.052   5.843  19.552  1.2676 -2.0537 -0.2700
 1447TIP3    H228537   0.136   5.961  19.507 -0.7619 -0.0249  1.0767
 1448TIP3   OH228538   3.789   4.367  17.367 -0.0743  0.9437  0.1004
 1448TIP3    H128539   3.746   4.299  17.417 -0.0767  0.6940 -0.2347
 1448TIP3    H228540   3.880   4.366  17.397  0.0910  0.3175 -0.3864
 1449TIP3   OH228541   1.000   2.941  18.958  0.5283  0.5788  0.1072
 1449TIP3    H128542   1.052   2.861  18.966 -3.2891 -2.0261  1.9500
 1449TIP3    H228543   0.985   2.951  18.864  0.3721 -1.4704 -0.1377
 1450TIP3   OH228544   2.693   6.320  17.320  0.3495  0.0077 -0.0709
 1450TIP3    H128545   2.758   6.366  17.268  0.9836  0.6407  1.2381
 1450TIP3    H228546   2.620   6.382  17.328  0.2190 -0.1194 -0.2602
 1451TIP3   OH228547   1.199   2.486  18.132  0.4018  0.0061 -0.4543
 1451TIP3    H128548   1.285   2.524  18.116  0.2922 -0.0345 -1.1759
 1451TIP3    H228549   1.146   2.513  18.057  0.0476 -0.7511 -0.4915
 1452TIP3   OH228550   0.080   0.589  18.616  0.4558 -0.0474 -0.1749
 1452TIP3    H128551   0.136   0.666  18.609 -0.1169  0.4962  1.0256
 1452TIP3    H228552  -0.005   0.618  18.584  0.4244 -0.4082 -0.4336
 1453TIP3   OH228553   7.287   2.398  18.948  0.2965 -0.0666  0.0038
 1453TIP3    H128554   7.311   2.369  19.036  1.4016  0.0337 -0.2423
 1453TIP3    H228555   7.255   2.487  18.959 -1.7166 -0.8057  0.5784
 1454TIP3   OH228556   6.317   3.567  18.747 -0.5806  0.0274  0.1447
 1454TIP3    H128557   6.273   3.541  18.829  2.0936 -2.7160  0.8850
 1454TIP3    H228558   6.359   3.651  18.768 -0.5469 -0.2766  1.3667
 1455TIP3   OH228559   5.169   0.132  17.648  0.6786 -0.4800 -0.1729
 1455TIP3    H128560   5.245   0.110  17.702  1.7937  0.3583 -1.3329
 1455TIP3    H228561   5.093   0.102  17.699  1.8474 -3.5226 -0.0124
 1456TIP3   OH228562   6.167   5.362  19.211 -0.1505 -0.2682 -0.3003
 1456TIP3    H128563   6.098   5.316  19.163  0.9488 -1.6537 -0.6334
 1456TIP3    H228564   6.133   5.371  19.300 -1.2006  0.1107 -0.7160
 1457TIP3   OH228565   1.824   3.564  17.921 -0.5477  0.3196 -0.7402
 1457TIP3    H128566   1.794   3.473  17.923  0.7828 -0.1321 -0.5265
 1457TIP3    H228567   1.874   3.574  18.001 -0.2000  1.0772 -1.0491
 1458TIP3   OH228568   5.648   5.196  18.544 -0.0223 -0.2207 -0.1478
 1458TIP3    H128569   5.578   5.256  18.571 -0.3875 -1.0172  0.7192
 1458TIP3    H228570   5.678   5.231  18.460 -0.3613  1.0657  0.2314
 1459TIP3   OH228571   4.655   2.914  18.106  0.1811 -0.0974  0.1011
 1459TIP3    H128572   4.671   2.934  18.013  0.9696  0.7709  0.4124
 1459TIP3    H228573   4.576   2.965  18.127  1.0556  1.2087  0.3707
 1460TIP3   OH228574   7.341   5.870  17.829  0.3051  0.6533 -0.9629
 1460TIP3    H128575   7.306   5.823  17.904  1.0337  0.5990 -0.6531
 1460TIP3    H228576   7.264   5.904  17.784 -0.1453  0.5193 -0.3034
 1461TIP3   OH228577   3.270   0.699  18.696 -0.0832  0.4253 -0.4194
 1461TIP3    H128578   3.337   0.632  18.678  0.8103  1.3081 -0.4369
 1461TIP3    H228579   3.250   0.689  18.789 -0.1961 -0.0852 -0.4949
 1462TIP3   OH228580   0.211   4.085  19.306 -0.2028 -0.5808  0.2932
 1462TIP3    H128581   0.248   4.172  19.289 -2.7347  0.4587 -0.4049
 1462TIP3    H228582   0.147   4.100  19.376  0.3345 -2.2062  1.1925
 1463TIP3   OH228583   1.552   0.873  18.056 -0.3603  0.1550 -0.5000
 1463TIP3    H128584   1.618   0.942  18.062  0.4076 -0.4991 -1.2534
 1463TIP3    H228585   1.595   0.802  18.010 -1.2947 -0.6592 -0.1596
 1464TIP3   OH228586   7.656   0.887  18.066  0.1383 -0.3685  0.2188
 1464TIP3    H128587   7.583   0.932  18.024  0.9484 -1.5754 -2.8251
 1464TIP3    H228588   7.642   0.795  18.046  1.3213 -0.8819  1.5720
 1465TIP3   OH228589   7.673   1.095  19.396  0.6032 -0.6092  0.3051
 1465TIP3    H128590   7.684   1.190  19.405 -0.7333 -0.5155  1.1940
 1465TIP3    H228591   7.752   1.058  19.434  0.5217  0.1293  1.2288
 1466TIP3   OH228592   3.967   3.952  17.161  0.0777 -0.5786  0.2274
 1466TIP3    H128593   3.987   3.863  17.132  2.1509  0.0214 -0.3047
 1466TIP3    H228594   4.027   3.968  17.233  0.8443  0.9224 -0.6940
 1467TIP3   OH228595   1.678   0.322  18.961  0.4753  0.0808 -0.2949
 1467TIP3    H128596   1.705   0.232  18.977 -0.0179  0.3018  2.3169
 1467TIP3    H228597   1.587   0.315  18.932  0.1530 -0.2867  0.7285
 1468TIP3   OH228598   7.211   1.497  18.533 -0.3473 -0.3281  0.3644
 1468TIP3    H128599   7.149   1.498  18.460 -1.2785  0.2529  1.1399
 1468TIP3    H228600   7.287   1.546  18.501 -1.0751  0.6207  0.0516
 1469TIP3   OH228601   1.398   0.565  18.050  0.0251  0.2542  0.2849
 1469TIP3    H128602   1.477   0.559  18.105 -0.7157 -0.1514  1.3511
 1469TIP3    H228603   1.330   0.595  18.111 -0.8826 -0.4578 -0.3663
 1470TIP3   OH228604   3.729   3.291  18.621  0.0848 -1.0084 -0.0577
 1470TIP3    H128605   3.819   3.294  18.587 -0.6567 -1.4290 -2.1907
 1470TIP3    H228606   3.693   3.377  18.602 -0.2961 -1.1988 -0.2069
 1471TIP3   OH228607   4.917   0.859  18.307  0.6264 -0.0096  0.4264
 1471TIP3    H128608   4.887   0.931  18.251  1.8537 -0.5809 -1.0730
 1471TIP3    H228609   4.942   0.901  18.389  1.3828  1.3302 -0.4324
 1472TIP3   OH228610   6.860   3.350  18.841  0.4372 -0.4721 -0.0344
 1472TIP3    H128611   6.925   3.405  18.885  1.0138 -0.3690 -0.9794
 1472TIP3    H228612   6.820   3.299  18.911  0.7446  0.2830  0.7088
 1473TIP3   OH228613   5.222   6.704  17.535  0.9417  0.2908 -0.6395
 1473TIP3    H128614   5.185   6.678  17.451 -0.2438 -1.7069  0.4209
 1473TIP3    H228615   5.208   6.798  17.539  0.2147  0.2911 -2.2879
 1474TIP3   OH228616   4.978   3.331  18.459  0.1022 -0.4327 -0.3880
 1474TIP3    H128617   4.942   3.306  18.374  1.0017 -0.3548 -0.8103
 1474TIP3    H228618   4.904   3.364  18.509 -0.3811 -0.2158 -1.2501
 1475TIP3   OH228619   0.415   1.768  17.208 -0.2895  0.0411  0.2918
 1475TIP3    H128620   0.441   1.794  17.120 -0.5841 -0.7019 -0.0198
 1475TIP3    H228621   0.348   1.701  17.195 -0.1506 -0.2630  1.0822
 1476TIP3   OH228622   3.214   0.327  18.345 -0.2042  0.4316  0.4421
 1476TIP3    H128623   3.237   0.303  18.255 -1.9303  0.8753 -0.1716
 1476TIP3    H228624   3.251   0.414  18.357  0.1700  0.3048  0.2163
 1477TIP3   OH228625   3.996   5.657  18.046 -0.6036  0.5666  0.4172
 1477TIP3    H128626   3.995   5.590  18.114 -2.7886  1.3947  1.3004
 1477TIP3    H228627   3.904   5.675  18.028 -0.1385  0.3192 -2.9068
 1478TIP3   OH228628   1.157   0.396  16.902 -0.5708  0.5637  0.0948
 1478TIP3    H128629   1.062   0.408  16.907 -0.6265  0.2579 -0.1731
 1478TIP3    H228630   1.192   0.483  16.882 -0.7541  0.7718  0.6414
 1479TIP3   OH228631   0.607   4.200  18.679 -0.3819 -0.0937  0.2083
 1479TIP3    H128632   0.541   4.131  18.671 -0.0154 -0.4273  0.0516
 1479TIP3    H228633   0.671   4.180  18.611  0.3722 -0.3208  0.9601
 1480TIP3   OH228634   4.739   2.769  18.590 -0.7565 -0.0682  0.2708
 1480TIP3    H128635   4.803   2.789  18.522 -1.8827  1.0547 -0.5231
 1480TIP3    H228636   4.718   2.676  18.577 -2.1152  0.4599 -2.0465
 1481TIP3   OH228637   0.317   7.016  19.433 -0.2127  0.6465  0.5018
 1481TIP3    H128638   0.389   7.077  19.452 -0.3414  1.1513 -0.5194
 1481TIP3    H228639   0.297   6.975  19.516 -0.6433  2.5852  1.4096
 1482TIP3   OH228640   1.113   3.342  17.221  0.0646  0.2823 -0.1695
 1482TIP3    H128641   1.162   3.316  17.143 -0.0073  1.1038 -0.4947
 1482TIP3    H228642   1.128   3.436  17.229 -0.1431  0.2547  0.6615
 1483TIP3   OH228643   2.234   1.557  18.099 -0.2211  0.0643  0.0636
 1483TIP3    H128644   2.242   1.463  18.115 -1.5071 -0.2216 -0.8684
 1483TIP3    H228645   2.165   1.585  18.160 -0.6141  0.1900 -0.4399
 1484TIP3   OH228646   4.564   1.359  17.165 -0.1117  0.4156 -0.1135
 1484TIP3    H128647   4.576   1.269  17.197 -1.0391 -0.5916 -2.3995
 1484TIP3    H228648   4.596   1.358  17.075 -0.1531  2.4019 -0.2008
 1485TIP3   OH228649   2.283   5.599  19.150  0.1445 -0.1208  0.2653
 1485TIP3    H128650   2.280   5.523  19.091 -1.7998 -0.2611  0.4576
 1485TIP3    H228651   2.300   5.562  19.236  1.1224 -0.1201  0.0777
 1486TIP3   OH228652   4.397   4.720  18.926  0.2541 -0.2817 -0.1172
 1486TIP3    H128653   4.314   4.674  18.914  1.3735 -1.9145 -2.1736
 1486TIP3    H228654   4.371   4.806  18.961 -2.1792 -1.1089  0.3700
 1487TIP3   OH228655   3.835   2.208  18.266 -0.1471  0.5590 -0.0483
 1487TIP3    H128656   3.926   2.205  18.295  0.0998  0.8553 -0.7517
 1487TIP3    H228657   3.821   2.123  18.224 -0.9632 -0.4816  2.1765
 1488TIP3   OH228658   6.256   3.727  18.364  0.0550 -0.2346  0.5456
 1488TIP3    H128659   6.194   3.743  18.435 -1.2704 -0.6532 -0.4588
 1488TIP3    H228660   6.326   3.675  18.404  0.6716  1.6646  2.1053
 1489TIP3   OH228661   6.718   0.229  18.097 -0.5266  0.7191  0.4733
 1489TIP3    H128662   6.769   0.238  18.017  1.5645 -1.1509  1.4916
 1489TIP3    H228663   6.639   0.183  18.070  0.4260 -0.4217 -0.4527
 1490TIP3   OH228664   2.011   4.880  17.309 -0.0139  0.3633  0.3517
 1490TIP3    H128665   1.998   4.788  17.332 -2.0703  1.2724  3.3504
 1490TIP3    H228666   2.100   4.884  17.274  0.4185 -2.6148  0.8930
 1491TIP3   OH228667   0.710   4.107  17.371  0.2480  0.0426  0.2617
 1491TIP3    H128668   0.731   4.083  17.281  2.3703  0.5909  0.5666
 1491TIP3    H228669   0.614   4.114  17.372  0.1261 -0.7144 -1.7377
 1492TIP3   OH228670   6.977   2.061  17.953  0.5640 -0.0820  0.0294
 1492TIP3    H128671   7.037   2.003  18.000  0.0490 -1.1160 -0.5587
 1492TIP3    H228672   6.983   2.144  17.999 -1.6753 -1.5922  3.4953
 1493TIP3   OH228673   4.593   2.197  17.602 -0.3742  0.2943  0.2554
 1493TIP3    H128674   4.517   2.248  17.576 -0.4181  0.2919  0.3795
 1493TIP3    H228675   4.662   2.223  17.541 -0.3688  0.5732  0.3803
 1494TIP3   OH228676   3.061   3.941  18.243  0.1811 -0.3225 -0.0878
 1494TIP3    H128677   3.036   3.972  18.331  1.2778  0.8848 -0.1704
 1494TIP3    H228678   3.143   3.895  18.257 -0.6125 -1.8333 -0.2265
 1495TIP3   OH228679   5.432   4.309  19.390  0.1502 -0.1995  0.1016
 1495TIP3    H128680   5.500   4.253  19.428  0.1202 -1.0123 -0.9905
 1495TIP3    H228681   5.466   4.398  19.399  0.5149 -0.4386  1.2366
 1496TIP3   OH228682   7.391   7.117  17.788 -0.5968 -0.5037  0.1373
 1496TIP3    H128683   7.339   7.197  17.791 -1.9348 -1.2951 -0.5680
 1496TIP3    H228684   7.454   7.132  17.718  0.7405  0.7840  1.5404
 1497TIP3   OH228685   7.315   4.947  18.658 -0.1414 -0.3976  0.4716
 1497TIP3    H128686   7.283   4.928  18.569 -1.2720  0.7443  0.6033
 1497TIP3    H228687   7.236   4.949  18.712  0.5780 -1.5471  1.6257
 1498TIP3   OH228688   5.162   2.295  18.583 -0.4003 -0.8672  0.5986
 1498TIP3    H128689   5.134   2.208  18.610 -1.6843 -0.3929  0.9065
 1498TIP3    H228690   5.207   2.282  18.499  0.5768 -1.9559  1.2728
 1499TIP3   OH228691   7.632   6.926  17.491  0.6360 -0.0835  0.3397
 1499TIP3    H128692   7.547   6.882  17.489  1.1697 -1.1870  0.9191
 1499TIP3    H228693   7.644   6.950  17.583  0.2335  1.5595 -0.0173
 1500TIP3   OH228694   6.811   1.029  17.586 -0.5691  0.0407 -0.1903
 1500TIP3    H128695   6.727   1.060  17.618 -0.8656 -1.1246  0.2156
 1500TIP3    H228696   6.876   1.088  17.625 -1.1435  0.5301  0.0357
 1501TIP3   OH228697   4.310   7.432  17.612 -0.2618 -0.0385  0.3532
 1501TIP3    H128698   4.221   7.458  17.589 -0.2968 -1.0751 -0.7976
 1501TIP3    H228699   4.345   7.507  17.659 -1.2144  1.0293 -0.5752
 1502TIP3   OH228700   6.632   3.113  17.394 -0.4072  0.0479 -0.0507
 1502TIP3    H128701   6.543   3.139  17.417 -0.4107 -1.2606  1.5749
 1502TIP3    H228702   6.653   3.042  17.454  1.6373  0.1153 -0.6060
 1503TIP3   OH228703   7.050   3.626  18.795 -0.3387 -0.4810  0.4150
 1503TIP3    H128704   7.142   3.651  18.784 -0.2246 -1.1072 -0.1854
 1503TIP3    H228705   7.047   3.580  18.879 -0.5646  1.5017  1.5588
 1504TIP3   OH228706   2.110   7.571  17.514 -0.3180 -0.0621 -0.4254
 1504TIP3    H128707   2.071   7.654  17.486  1.4317  1.0696  0.2679
 1504TIP3    H228708   2.118   7.520  17.433 -1.8962  0.2204 -0.7824
 1505TIP3   OH228709   4.721   0.711  17.908 -0.7565 -0.0366 -0.1304
 1505TIP3    H128710   4.650   0.746  17.854 -1.0062 -0.2653  0.0487
 1505TIP3    H228711   4.746   0.784  17.964 -0.7062  0.1086 -0.3402
 1506TIP3   OH228712   2.974   0.591  17.540  0.3762  0.0145 -0.3059
 1506TIP3    H128713   2.918   0.663  17.567  0.1282 -0.3243  0.0916
 1506TIP3    H228714   3.063   0.628  17.538 -0.0392  1.0724 -2.7499
 1507TIP3   OH228715   0.490   4.940  17.093 -0.3391 -0.0052  0.3448
 1507TIP3    H128716   0.483   5.035  17.097 -0.3815  0.0120 -0.0745
 1507TIP3    H228717   0.421   4.908  17.152 -0.4620  0.2220  0.3249
 1508TIP3   OH228718   3.454   0.315  18.734  0.0732 -0.2343 -0.2983
 1508TIP3    H128719   3.364   0.297  18.762  0.2299  0.4207  0.6743
 1508TIP3    H228720   3.500   0.233  18.751 -0.3362 -0.5836 -0.8240
 1509TIP3   OH228721   5.695   2.981  17.716  0.1874 -0.5474 -0.4411
 1509TIP3    H128722   5.717   2.892  17.688  0.8820 -0.1508 -1.1866
 1509TIP3    H228723   5.642   3.017  17.645 -3.3712 -1.5993  1.4531
 1510TIP3   OH228724   2.276   0.899  18.344  0.1311 -0.1853 -0.0298
 1510TIP3    H128725   2.322   0.859  18.270  0.1995 -1.1468  0.5144
 1510TIP3    H228726   2.332   0.972  18.371  0.8072 -0.6918 -0.0450
 1511TIP3   OH228727   2.237   2.312  17.039  0.3550 -0.3187  0.0842
 1511TIP3    H128728   2.177   2.248  17.078 -0.2047 -0.6985 -1.3433
 1511TIP3    H228729   2.183   2.361  16.977  1.2249  0.2414 -0.2488
 1512TIP3   OH228730   0.714   3.946  18.253  0.0174  0.0412  0.2532
 1512TIP3    H128731   0.761   3.863  18.257 -0.3738 -0.5103 -3.2474
 1512TIP3    H228732   0.621   3.920  18.251 -0.1250  0.5803 -0.3752
 1513TIP3   OH228733   0.443   7.128  18.661 -0.3666 -0.3366 -0.3267
 1513TIP3    H128734   0.405   7.103  18.745  0.1750 -2.2816 -0.5949
 1513TIP3    H228735   0.536   7.136  18.678 -0.3923  0.3693 -0.5115
 1514TIP3   OH228736   3.770   2.648  19.455  0.0197 -0.3633 -0.0371
 1514TIP3    H128737   3.716   2.726  19.465  2.4425  1.9162 -2.7736
 1514TIP3    H228738   3.756   2.620  19.365  1.5327 -1.1570 -0.0613
 1515TIP3   OH228739   7.673   2.423  18.982  0.7663  0.1103  0.4244
 1515TIP3    H128740   7.699   2.345  18.932 -0.9567  1.3192 -2.6676
 1515TIP3    H228741   7.614   2.390  19.049 -0.4721 -1.2748 -1.2419
 1516TIP3   OH228742   6.453   3.396  16.892 -0.4082 -0.3294 -0.6002
 1516TIP3    H128743   6.375   3.341  16.886 -0.1498 -0.5703 -2.1216
 1516TIP3    H228744   6.510   3.365  16.821  0.6595  0.4915 -0.1319
 1517TIP3   OH228745   2.851   5.049  17.742 -0.2646  0.4009  0.0519
 1517TIP3    H128746   2.864   4.988  17.669  0.9974  2.6228 -1.7131
 1517TIP3    H228747   2.775   5.100  17.717 -1.3524 -0.4219  1.5460
 1518TIP3   OH228748   7.075   4.398  17.680  0.1568  0.1285  0.0331
 1518TIP3    H128749   7.007   4.370  17.741 -1.7317 -0.3056 -2.1499
 1518TIP3    H228750   7.154   4.404  17.734 -0.9096 -2.3288  2.0803
 1519TIP3   OH228751   1.213   5.221  19.540  0.1936  0.3727 -0.0144
 1519TIP3    H128752   1.196   5.221  19.446  0.6303 -0.2869 -0.1007
 1519TIP3    H228753   1.305   5.198  19.548 -0.1831 -1.0565  0.6105
 1520TIP3   OH228754   3.974   0.036  18.789 -0.4537  0.0487  0.2727
 1520TIP3    H128755   3.909  -0.002  18.848 -3.0614  0.7083 -1.9692
 1520TIP3    H228756   4.020  -0.039  18.751 -0.1566 -0.4464  1.5771
 1521TIP3   OH228757   5.847   3.527  16.972 -0.1931  0.0952  0.2515
 1521TIP3    H128758   5.780   3.527  16.904  0.0219  0.2982  0.0369
 1521TIP3    H228759   5.804   3.566  17.048 -0.3405  0.1612  0.1355
 1522TIP3   OH228760   6.497   6.629  17.806 -0.2943 -0.4477  0.1356
 1522TIP3    H128761   6.437   6.655  17.736  0.5335  0.4691 -0.2749
 1522TIP3    H228762   6.445   6.574  17.864 -1.7968  1.0624  0.2881
 1523TIP3   OH228763   4.803   0.640  18.211  0.4603  0.2825 -0.4333
 1523TIP3    H128764   4.783   0.578  18.281  2.1777 -1.5789 -1.4585
 1523TIP3    H228765   4.853   0.709  18.254  0.6584 -0.3306  0.3456
 1524TIP3   OH228766   5.497   5.822  19.287 -0.3923 -0.3494  0.7233
 1524TIP3    H128767   5.427   5.883  19.264  0.0379  0.0063  0.3299
 1524TIP3    H228768   5.453   5.740  19.304 -1.0084  0.1283  1.4817
 1525TIP3   OH228769   3.480   7.657  18.875  0.1683 -0.6436  0.8994
 1525TIP3    H128770   3.474   7.581  18.934  1.5736 -0.3552  1.4412
 1525TIP3    H228771   3.518   7.621  18.795 -0.4331 -0.7648  0.6652
 1526TIP3   OH228772   2.729   4.164  18.820  0.0150 -0.3357 -0.5800
 1526TIP3    H128773   2.659   4.176  18.755  0.3338 -0.4871 -0.9545
 1526TIP3    H228774   2.808   4.196  18.777  0.1855 -0.1976 -0.1673
 1527TIP3   OH228775   3.596   1.142  18.038  0.3707 -0.5602  0.6837
 1527TIP3    H128776   3.572   1.145  17.945 -0.1531  1.0665  0.8378
 1527TIP3    H228777   3.512   1.147  18.084  0.7615  2.3719  1.2257
 1528TIP3   OH228778   6.914   4.531  16.812  0.3101  0.1501 -0.3855
 1528TIP3    H128779   6.888   4.549  16.722 -0.8232 -0.2600 -0.1499
 1528TIP3    H228780   6.897   4.612  16.859 -0.6685 -0.1387 -0.2172
 1529TIP3   OH228781   7.253   7.018  18.858 -0.0189  0.2684  0.0311
 1529TIP3    H128782   7.292   7.105  18.851  1.4689 -0.2789  0.9449
 1529TIP3    H228783   7.212   7.003  18.773  2.3723  0.6472 -1.2755
 1530TIP3   OH228784   3.805   2.513  18.324 -0.2543 -0.1052  0.5358
 1530TIP3    H128785   3.794   2.429  18.281  0.1842  0.1561 -0.0999
 1530TIP3    H228786   3.733   2.518  18.387  0.5718 -1.5946  1.6463
 1531TIP3   OH228787   2.663   4.334  17.854  0.2922  0.3254  0.3532
 1531TIP3    H128788   2.660   4.361  17.946  0.2326  1.2341  0.0901
 1531TIP3    H228789   2.576   4.357  17.820  1.0178  1.9756 -0.4700
 1532TIP3   OH228790   0.176   5.513  17.538  0.3594 -0.2294  0.2440
 1532TIP3    H128791   0.262   5.514  17.497 -0.1238 -0.8025 -0.7995
 1532TIP3    H228792   0.115   5.504  17.466 -0.5440 -0.5515  1.0352
 1533TIP3   OH228793   4.834   5.173  17.218 -0.8695 -0.6084  0.1062
 1533TIP3    H128794   4.743   5.198  17.229 -1.4547 -1.4751 -2.1340
 1533TIP3    H228795   4.853   5.191  17.126  1.9092  1.5283  0.9038
 1534TIP3   OH228796   5.431   4.256  18.484  0.4862 -0.0211 -0.4331
 1534TIP3    H128797   5.400   4.198  18.554 -0.0192  1.0522  0.2638
 1534TIP3    H228798   5.378   4.233  18.408 -2.0031  1.6221  0.6711
 1535TIP3   OH228799   2.540   5.362  19.157  0.2542  0.0126  0.6696
 1535TIP3    H128800   2.616   5.308  19.175  1.0575  1.6570  2.5905
 1535TIP3    H228801   2.535   5.366  19.061  2.2222 -0.5929  0.5071
 1536TIP3   OH228802   0.352   7.428  18.170  0.1753  0.0693  0.2405
 1536TIP3    H128803   0.384   7.444  18.082  1.1437  0.1025  0.5815
 1536TIP3    H228804   0.423   7.382  18.214  0.3848  1.4770  1.4791
 1537TIP3   OH228805   6.147   1.086  19.201  0.0195  0.1222  0.5291
 1537TIP3    H128806   6.152   1.147  19.275 -0.4944  0.8086  0.0045
 1537TIP3    H228807   6.056   1.057  19.200 -0.5596  1.7901 -1.1268
 1538TIP3   OH228808   3.401   3.839  18.051  0.0722  0.2689 -0.0321
 1538TIP3    H128809   3.445   3.890  17.983  0.9228  1.6086  1.4718
 1538TIP3    H228810   3.437   3.751  18.041  0.9888  0.6911 -0.6415
 1539TIP3   OH228811   5.363   5.524  17.869  0.0808  0.5294  0.7338
 1539TIP3    H128812   5.277   5.551  17.900 -0.1041  1.5439 -0.5514
 1539TIP3    H228813   5.425   5.557  17.934 -0.4223  0.7855  1.0840
 1540TIP3   OH228814   1.331   2.115  17.558  0.1962  0.1503 -0.1454
 1540TIP3    H128815   1.284   2.059  17.620  1.0584  0.5428  0.8990
 1540TIP3    H228816   1.391   2.055  17.513 -0.9018 -0.2627 -1.1421
 1541TIP3   OH228817   5.115   1.084  16.918  0.1862 -0.4734  0.0362
 1541TIP3    H128818   5.094   0.991  16.918 -0.2949 -0.4242  2.2639
 1541TIP3    H228819   5.055   1.123  16.855 -1.0693 -1.4026  0.6256
 1542TIP3   OH228820   1.987   1.939  17.931 -0.6110  0.2272 -0.0006
 1542TIP3    H128821   2.011   1.879  17.860  0.8770 -0.1900  0.8044
 1542TIP3    H228822   1.964   1.883  18.004 -2.0505  0.6586 -0.0944
 1543TIP3   OH228823   7.130   7.568  17.894 -0.4463 -0.1738  0.6102
 1543TIP3    H128824   7.190   7.629  17.850 -3.1604  2.5073  0.2794
 1543TIP3    H228825   7.174   7.546  17.976  0.3897  2.9606  1.1350
 1544TIP3   OH228826   6.369   6.753  18.586 -0.1934  0.4815  0.0002
 1544TIP3    H128827   6.274   6.760  18.595 -0.2172  0.3674 -0.1592
 1544TIP3    H228828   6.390   6.668  18.624 -0.0752  0.7937  0.6392
 1545TIP3   OH228829   3.461   1.155  18.641 -0.3753 -0.0903 -0.1749
 1545TIP3    H128830   3.484   1.175  18.551 -1.1036  2.0811  0.0558
 1545TIP3    H228831   3.527   1.201  18.693 -0.3442 -0.7822  0.4122
 1546TIP3   OH228832   2.490   4.069  18.131 -0.2533  1.0841  0.0421
 1546TIP3    H128833   2.536   4.103  18.208  1.8636 -1.3397 -0.0077
 1546TIP3    H228834   2.560   4.039  18.072 -1.8550 -0.1737 -1.3422
 1547TIP3   OH228835   0.551   4.090  17.111 -0.3022  0.5700 -0.1626
 1547TIP3    H128836   0.560   4.071  17.018  0.7831  1.1713 -0.1986
 1547TIP3    H228837   0.544   4.185  17.116 -3.2217  0.4093  0.1825
 1548TIP3   OH228838   1.880   2.054  17.366  0.3918 -0.2525  0.7860
 1548TIP3    H128839   1.871   1.992  17.294  2.6917 -0.0072  0.2127
 1548TIP3    H228840   1.798   2.104  17.365 -0.6224 -1.8435 -0.0730
 1549TIP3   OH228841   7.128   4.986  19.429 -0.5800 -0.1466 -0.4895
 1549TIP3    H128842   7.037   5.006  19.448 -0.1716  1.1663  0.2463
 1549TIP3    H228843   7.178   5.048  19.484  0.7214  0.3873 -2.1812
 1550TIP3   OH228844   5.446   4.881  17.355 -0.6651 -0.1861  0.2074
 1550TIP3    H128845   5.459   4.841  17.441  0.9618 -1.7736 -0.7096
 1550TIP3    H228846   5.462   4.974  17.370  1.4778 -0.6574  1.3140
 1551TIP3   OH228847   4.128   3.592  16.831 -0.0123 -0.2361 -0.4181
 1551TIP3    H128848   4.114   3.650  16.756 -0.0217 -0.2927 -0.4594
 1551TIP3    H228849   4.084   3.636  16.904 -1.2167 -0.8656 -0.7499
 1552TIP3   OH228850   6.658   6.396  18.263 -0.5969  0.1376 -0.6719
 1552TIP3    H128851   6.653   6.416  18.170 -0.7807 -0.5437 -0.8165
 1552TIP3    H228852   6.626   6.475  18.307  0.7067  0.9446 -1.1344
 1553TIP3   OH228853   4.680   7.300  17.620 -0.3037  0.2112 -0.1922
 1553TIP3    H128854   4.742   7.293  17.692  1.4417 -0.0999 -1.6645
 1553TIP3    H228855   4.642   7.212  17.612  1.6962 -0.5978 -1.4856
 1554TIP3   OH228856   6.677   6.451  18.003 -0.1552 -0.2722  0.1479
 1554TIP3    H128857   6.684   6.538  17.962 -1.8163  0.0187  0.4043
 1554TIP3    H228858   6.629   6.399  17.938  1.1223 -1.1102 -0.1436
 1555TIP3   OH228859   1.762   1.371  18.519  0.2144 -0.5389 -0.4630
 1555TIP3    H128860   1.745   1.460  18.550 -1.1373 -0.5976 -0.9769
 1555TIP3    H228861   1.846   1.377  18.473 -0.3935  0.7361 -1.4656
 1556TIP3   OH228862   0.521   1.589  18.471 -0.0407  0.0837 -0.2458
 1556TIP3    H128863   0.567   1.618  18.392 -0.2563  1.5940  0.1447
 1556TIP3    H228864   0.451   1.533  18.438  1.0418 -0.8878 -0.9631
 1557TIP3   OH228865   4.471   5.381  17.743  0.1876 -0.5480  0.1753
 1557TIP3    H128866   4.489   5.299  17.695  1.9447 -0.2543  0.2486
 1557TIP3    H228867   4.445   5.443  17.675  0.1358 -0.8194 -0.0553
 1558TIP3   OH228868   1.340   2.750  16.892  0.1242 -0.2963 -0.1958
 1558TIP3    H128869   1.328   2.675  16.834 -0.8945  0.3270 -0.8169
 1558TIP3    H228870   1.313   2.826  16.840 -1.1393  0.2409  1.1725
 1559TIP3   OH228871   3.325   5.057  17.773 -0.7660 -0.3714  0.1182
 1559TIP3    H128872   3.231   5.071  17.759 -0.2520  2.7873 -1.0391
 1559TIP3    H228873   3.352   5.130  17.829  1.0419 -1.0670  0.2008
 1560TIP3   OH228874   7.644   2.623  17.100  0.0284  0.6345 -0.1781
 1560TIP3    H128875   7.684   2.678  17.167 -0.6031  0.3986  0.4042
 1560TIP3    H228876   7.714   2.562  17.074  0.2617  0.7030  0.2876
 1561TIP3   OH228877   6.041   1.506  17.446 -0.2393  0.0339 -0.7047
 1561TIP3    H128878   6.090   1.573  17.492 -1.1689  0.0062  0.3576
 1561TIP3    H228879   6.050   1.529  17.353  3.0332 -0.8351 -0.7278
 1562TIP3   OH228880   6.111   0.741  17.740  0.1390 -0.5224 -0.0866
 1562TIP3    H128881   6.181   0.727  17.676  0.0299 -0.1890 -0.2854
 1562TIP3    H228882   6.142   0.814  17.794 -0.7627  0.7935 -1.2461
 1563TIP3   OH228883   6.640   7.493  18.072  0.4644  0.2716  0.9754
 1563TIP3    H128884   6.685   7.463  17.993 -0.1605 -0.4810  0.8871
 1563TIP3    H228885   6.605   7.579  18.048 -2.1337 -1.0558 -0.6261
 1564TIP3   OH228886   6.400   3.291  17.256 -0.1318 -0.2649  0.6631
 1564TIP3    H128887   6.335   3.240  17.208 -2.5309  0.4093  2.9424
 1564TIP3    H228888   6.409   3.245  17.340  0.7379  0.8552  1.2120
 1565TIP3   OH228889   4.035   0.562  18.977 -0.4618  0.0826  0.0295
 1565TIP3    H128890   3.962   0.621  18.994  0.8647  2.4878 -2.1073
 1565TIP3    H228891   3.998   0.492  18.923 -1.6367 -0.1029  1.0184
 1566TIP3   OH228892   3.022   2.973  18.104  0.3922  0.0751  0.3009
 1566TIP3    H128893   3.070   2.890  18.100  0.3864  0.1044 -0.8381
 1566TIP3    H228894   3.089   3.040  18.102  0.3936  0.0988  1.1382
 1567TIP3   OH228895   3.708   2.621  17.311  0.3791  0.0942  0.4169
 1567TIP3    H128896   3.673   2.671  17.385 -0.2630 -0.5732  0.5739
 1567TIP3    H228897   3.676   2.666  17.233  0.2576  0.2407  0.5519
 1568TIP3   OH228898   0.773   2.757  17.205 -0.1542 -0.1969  0.2313
 1568TIP3    H128899   0.704   2.765  17.139  0.8522  0.4164 -0.7941
 1568TIP3    H228900   0.834   2.693  17.168  1.4875  1.6614 -0.4872
 1569TIP3   OH228901   2.604   5.270  18.004  0.1715  0.1043  0.8453
 1569TIP3    H128902   2.521   5.242  18.043 -0.3424  0.4502  0.0253
 1569TIP3    H228903   2.646   5.188  17.977 -0.7234  0.0073 -0.3398
 1570TIP3   OH228904   5.224   7.588  18.034 -0.5835  0.6401 -0.4554
 1570TIP3    H128905   5.226   7.652  17.963 -2.5434  1.0517 -0.2002
 1570TIP3    H228906   5.147   7.535  18.016  0.5794 -1.2026 -0.2384
 1571TIP3   OH228907   6.827   3.331  18.420 -0.0294 -0.1051  0.1531
 1571TIP3    H128908   6.787   3.412  18.452 -1.3680 -0.6263 -0.1196
 1571TIP3    H228909   6.793   3.263  18.479  0.7812 -0.5209  0.1540
 1572TIP3   OH228910   4.745   2.433  18.303  0.1888 -0.0957  0.0170
 1572TIP3    H128911   4.670   2.382  18.271 -0.6396 -0.1631  1.9351
 1572TIP3    H228912   4.710   2.520  18.320  0.8626  0.2421 -0.2912
 1573TIP3   OH228913   6.159   4.958  17.482 -0.1363  0.2247 -0.3126
 1573TIP3    H128914   6.094   4.887  17.482 -2.6835  2.3796 -0.1850
 1573TIP3    H228915   6.143   5.005  17.563  3.1836 -0.3531  0.8068
 1574TIP3   OH228916   5.725   5.581  18.286  0.2813 -0.1457 -0.2827
 1574TIP3    H128917   5.672   5.603  18.362 -0.7009  1.2355 -1.3078
 1574TIP3    H228918   5.793   5.648  18.283  0.2515 -0.1248 -0.6590
 1575TIP3   OH228919   1.969   3.415  18.303  0.1959 -0.1664 -0.5359
 1575TIP3    H128920   1.968   3.398  18.397  2.3748  0.7341 -0.2986
 1575TIP3    H228921   1.969   3.328  18.262 -0.0187 -0.5667  0.2977
 1576TIP3   OH228922   1.699   1.912  17.225  0.2862  0.3672 -0.3796
 1576TIP3    H128923   1.697   1.911  17.130  2.6051  1.3048 -0.4877
 1576TIP3    H228924   1.729   1.824  17.250 -1.3496 -0.2436 -0.4062
 1577TIP3   OH228925   1.351   0.801  19.230 -0.4920 -0.4834  0.0435
 1577TIP3    H128926   1.437   0.784  19.270  0.0043 -0.0225 -0.7951
 1577TIP3    H228927   1.352   0.749  19.150  0.4638  2.1961 -1.8123
 1578TIP3   OH228928   2.946   3.784  17.319 -0.4530  0.2729  0.6622
 1578TIP3    H128929   2.888   3.847  17.276  1.9003  1.2066 -1.4045
 1578TIP3    H228930   2.934   3.703  17.271  1.5921  1.1087 -1.4363
 1579TIP3   OH228931   0.214   3.042  17.405  0.1939  0.1378  0.3252
 1579TIP3    H128932   0.220   3.137  17.410 -0.0040  0.1024  1.5968
 1579TIP3    H228933   0.302   3.013  17.382  1.0155  0.5039  2.7370
 1580TIP3   OH228934   7.646   7.135  18.992  0.3747  0.0690  0.4391
 1580TIP3    H128935   7.603   7.163  19.073 -0.3549  0.2834 -0.0083
 1580TIP3    H228936   7.697   7.211  18.965 -0.9639  0.7457 -0.3406
 1581TIP3   OH228937   5.000   0.297  18.519 -0.0681  0.7255 -0.0632
 1581TIP3    H128938   5.061   0.299  18.445 -0.8916 -0.4469 -0.8122
 1581TIP3    H228939   5.052   0.262  18.591  0.5783  1.2751 -0.2547
 1582TIP3   OH228940   0.847   0.052  16.773  0.3803 -0.0266 -0.2445
 1582TIP3    H128941   0.779   0.016  16.716  1.8223 -1.6895 -0.9699
 1582TIP3    H228942   0.829   0.013  16.859 -1.1046  1.5999  0.2579
 1583TIP3   OH228943   2.745   3.025  18.028  0.5853 -0.1917 -0.0906
 1583TIP3    H128944   2.736   3.014  17.934  1.6925 -0.4944 -0.1821
 1583TIP3    H228945   2.828   2.982  18.049  0.4560  0.0555  0.9870
 1584TIP3   OH228946   2.207   3.688  18.836  0.0986 -0.0719 -0.1029
 1584TIP3    H128947   2.138   3.637  18.879  0.5949  0.2966  1.2010
 1584TIP3    H228948   2.288   3.648  18.866  0.5016  1.3736  0.8756
 1585TIP3   OH228949   6.119   2.146  17.336  0.1079  0.3469 -0.0075
 1585TIP3    H128950   6.056   2.202  17.381  0.8092  0.7410  0.5095
 1585TIP3    H228951   6.176   2.113  17.405  1.1861  0.9457 -0.5692
 1586TIP3   OH228952   2.153   3.948  17.918  0.1815  0.1659  0.3631
 1586TIP3    H128953   2.187   3.860  17.903  0.6784  0.7636 -2.4948
 1586TIP3    H228954   2.229   3.999  17.945  0.7769  0.5142 -1.7621
 1587TIP3   OH228955   2.060   0.402  19.573 -0.4243  0.3405 -0.6522
 1587TIP3    H128956   2.155   0.406  19.583 -0.4285  0.4664 -0.6599
 1587TIP3    H228957   2.034   0.492  19.549 -0.7995  0.8624  1.4896
 1588TIP3   OH228958   5.903   3.909  17.540 -0.1250 -0.1481 -0.3471
 1588TIP3    H128959   5.880   4.001  17.539  1.3798  0.2583  0.1457
 1588TIP3    H228960   5.918   3.889  17.633  0.2469 -0.6961 -0.5182
 1589TIP3   OH228961   3.385   5.268  17.945  0.4262  0.4750  0.3769
 1589TIP3    H128962   3.442   5.285  18.019 -0.7642  1.4779  1.0949
 1589TIP3    H228963   3.366   5.354  17.908 -1.6487  0.3139  0.9552
 1590TIP3   OH228964   0.644   5.388  17.977 -0.1142 -0.1235  0.7570
 1590TIP3    H128965   0.577   5.440  17.933  0.3767 -0.7101 -0.7680
 1590TIP3    H228966   0.699   5.356  17.906  0.9692 -0.7971  1.8600
 1591TIP3   OH228967   1.348   1.781  17.054 -0.3455  0.2769  0.9317
 1591TIP3    H128968   1.334   1.845  17.125  2.0604 -1.8318  3.5476
 1591TIP3    H228969   1.360   1.835  16.976  1.1152  3.0886  2.8885
 1592TIP3   OH228970   6.742   1.314  18.556  0.1337 -0.1770  0.1121
 1592TIP3    H128971   6.757   1.408  18.548  0.5792 -0.1814  0.8392
 1592TIP3    H228972   6.777   1.278  18.474  2.6518  0.0037  1.0266
 1593TIP3   OH228973   0.703   7.509  18.210  0.5618  0.0813 -0.4033
 1593TIP3    H128974   0.671   7.463  18.132 -0.4987 -0.6206  0.4333
 1593TIP3    H228975   0.672   7.598  18.199  0.9995  0.1643 -1.0980
 1594TIP3   OH228976   4.176   4.649  19.376 -0.5445 -0.6778 -0.3311
 1594TIP3    H128977   4.161   4.668  19.468 -0.0508  1.9962 -0.7248
 1594TIP3    H228978   4.234   4.572  19.377 -0.7471 -0.8520  1.5556
 1595TIP3   OH228979   7.403   3.749  19.204 -0.3134 -0.7034 -0.8815
 1595TIP3    H128980   7.464   3.713  19.140 -1.8257 -3.3731 -0.9875
 1595TIP3    H228981   7.417   3.695  19.282 -0.2365  0.8742  0.2431
 1596TIP3   OH228982   5.368   6.752  17.992 -0.1362  0.5903  0.2750
 1596TIP3    H128983   5.437   6.726  17.931 -0.1593  0.3066  0.3707
 1596TIP3    H228984   5.330   6.670  18.022 -0.1563  0.7305  0.6378
 1597TIP3   OH228985   6.167   4.564  17.068 -0.1326  0.0978 -0.0212
 1597TIP3    H128986   6.262   4.564  17.056  0.1797 -0.4505  2.0618
 1597TIP3    H228987   6.137   4.645  17.025  1.4794  1.1470  0.7442
 1598TIP3   OH228988   5.718   4.618  17.028  0.0060 -0.1242 -0.1156
 1598TIP3    H128989   5.791   4.572  17.070  0.5787 -0.5889 -1.5578
 1598TIP3    H228990   5.711   4.701  17.076  0.5765 -0.6553  0.9189
 1599TIP3   OH228991   3.497   7.322  19.599 -0.1822  0.1484  0.2055
 1599TIP3    H128992   3.573   7.328  19.656  0.7522  0.2887 -1.0211
 1599TIP3    H228993   3.491   7.408  19.556 -1.3755  0.3351  0.6914
 1600TIP3   OH228994   4.717   1.311  18.224 -0.1333 -0.0267 -0.0582
 1600TIP3    H128995   4.677   1.269  18.300  1.2940  1.8217  1.8487
 1600TIP3    H228996   4.746   1.239  18.168  0.1563 -1.5269  1.9172
 1601TIP3   OH228997   7.489   2.280  17.681  0.3895 -0.2047  0.8124
 1601TIP3    H128998   7.485   2.234  17.597  2.0129  0.6578  0.2211
 1601TIP3    H228999   7.404   2.325  17.687 -0.0088 -0.8089 -0.0387
 1602TIP3   OH229000   0.977   4.038  19.060  0.2430 -0.1614  0.4097
 1602TIP3    H129001   1.059   4.045  19.011  0.0876 -0.0192  0.1683
 1602TIP3    H229002   0.995   3.975  19.128 -0.0197 -1.6265 -0.8258
 1603TIP3   OH229003   4.822   4.820  18.313 -0.3221  0.0649 -0.6675
 1603TIP3    H129004   4.844   4.906  18.278 -0.3637  0.4424  0.2079
 1603TIP3    H229005   4.744   4.836  18.366 -0.3780 -0.5268 -0.5722
 1604TIP3   OH229006   7.041   5.328  18.305  0.1041 -0.4524  0.2281
 1604TIP3    H129007   6.975   5.395  18.323  0.9975  0.3803  0.5108
 1604TIP3    H229008   7.040   5.272  18.382  0.8322  0.5094  0.9678
 1605TIP3   OH229009   6.073   4.418  18.331 -0.1414 -0.0045 -0.1123
 1605TIP3    H129010   6.013   4.345  18.343 -0.0251  0.0067  0.6500
 1605TIP3    H229011   6.141   4.404  18.398 -0.1770  0.8524  0.1251
 1606TIP3   OH229012   7.673   2.575  16.666  0.7102  0.1857 -0.1603
 1606TIP3    H129013   7.755   2.600  16.623  0.8064  2.3363  1.1472
 1606TIP3    H229014   7.691   2.490  16.705  1.8299 -0.0390 -1.1219
 1607TIP3   OH229015   6.860   4.544  18.262  0.1591  0.1609  0.4598
 1607TIP3    H129016   6.805   4.470  18.286  1.8289 -0.5317  2.5038
 1607TIP3    H229017   6.833   4.615  18.320  0.5645  0.1932  0.6186
 1608TIP3   OH229018   6.773   3.335  18.137 -0.0362 -0.1791  0.0220
 1608TIP3    H129019   6.813   3.360  18.220 -1.8137 -1.8028  1.4476
 1608TIP3    H229020   6.739   3.417  18.102 -1.3865  0.2171  2.1264
 1609TIP3   OH229021   3.246   5.639  18.843  0.3369  0.1588  0.1452
 1609TIP3    H129022   3.198   5.682  18.772 -0.9099  0.2080  0.9801
 1609TIP3    H229023   3.277   5.711  18.898 -1.4216  0.0936  1.3326
 1610TIP3   OH229024   0.580   7.372  17.974  0.2775 -0.5140  0.1042
 1610TIP3    H129025   0.557   7.280  17.985  0.1616 -0.4931  0.0273
 1610TIP3    H229026   0.600   7.382  17.881  0.7569 -0.5704  0.1956
 1611TIP3   OH229027   3.060   6.554  17.675  0.2943 -0.2504 -0.1431
 1611TIP3    H129028   3.077   6.460  17.688  0.9637 -0.0211  0.7314
 1611TIP3    H229029   2.965   6.562  17.683  0.2858 -0.7712  0.3919
 1612TIP3   OH229030   0.448   5.700  17.663  0.3167 -0.1975  0.4243
 1612TIP3    H129031   0.421   5.648  17.587  1.5885 -2.3037  1.3437
 1612TIP3    H229032   0.393   5.779  17.658  0.2009 -0.3417 -2.5316
 1613TIP3   OH229033   7.156   6.787  16.962 -0.5745 -0.3461 -0.2165
 1613TIP3    H129034   7.248   6.763  16.952 -0.3892 -0.0681  0.7094
 1613TIP3    H229035   7.107   6.707  16.943 -0.1524 -0.4692 -0.8039
 1614TIP3   OH229036   6.264   5.361  18.259 -0.0177 -0.1822  0.4131
 1614TIP3    H129037   6.227   5.385  18.174 -1.2136 -1.0961  0.6404
 1614TIP3    H229038   6.209   5.406  18.323  0.1889 -0.3648  0.7269
 1615TIP3   OH229039   6.366   4.663  18.253  0.0282 -0.1873 -0.7799
 1615TIP3    H129040   6.457   4.695  18.258 -0.3014  0.6785  0.3057
 1615TIP3    H229041   6.318   4.734  18.210 -0.2730 -0.2834 -0.6052
 1616TIP3   OH229042   6.065   2.012  18.021 -0.4245  0.0027  0.2607
 1616TIP3    H129043   6.081   1.968  18.104  2.1600 -0.1968 -0.2580
 1616TIP3    H229044   6.089   2.104  18.037 -1.4296  0.2907  0.1441
 1617TIP3   OH229045   0.682   5.627  18.903  0.2066 -0.0246  0.1628
 1617TIP3    H129046   0.636   5.671  18.832 -0.5030  0.5248  0.9457
 1617TIP3    H229047   0.743   5.693  18.937  1.7407 -0.7959 -0.9769
 1618TIP3   OH229048   6.219   4.978  19.436  0.4116  0.3557 -0.3917
 1618TIP3    H129049   6.258   5.064  19.450  0.4525  0.7264 -2.4920
 1618TIP3    H229050   6.259   4.947  19.355 -0.8104 -0.9329 -0.5225
 1619TIP3   OH229051   5.181   3.065  17.644  0.0405  0.1949 -0.2942
 1619TIP3    H129052   5.121   3.077  17.571 -2.4967 -1.4147  1.3706
 1619TIP3    H229053   5.138   3.109  17.718  1.2937 -0.3420  0.7977
 1620TIP3   OH229054   0.681   6.212  18.525 -0.4556 -0.8121 -0.4381
 1620TIP3    H129055   0.757   6.268  18.511  0.8390 -2.3369  0.1211
 1620TIP3    H229056   0.663   6.219  18.619  0.3318 -1.9969 -0.1647
 1621TIP3   OH229057   4.210   2.558  17.525  0.2074 -0.1470 -0.0049
 1621TIP3    H129058   4.122   2.592  17.544  0.9767  1.0165  1.7250
 1621TIP3    H229059   4.214   2.556  17.430 -1.3410  0.7968 -0.1341
 1622TIP3   OH229060   3.078   0.979  17.991 -0.1500 -0.3883 -0.6371
 1622TIP3    H129061   3.134   1.048  17.954  2.6553 -1.8473  0.5639
 1622TIP3    H229062   3.014   1.026  18.044  2.3517  1.4079  1.0758
 1623TIP3   OH229063   1.609   5.334  17.032  1.0384  0.0388 -0.0942
 1623TIP3    H129064   1.641   5.252  16.994 -0.2801 -1.6108  2.0478
 1623TIP3    H229065   1.667   5.350  17.106 -0.5124 -0.7598  1.3681
 1624TIP3   OH229066   1.390   0.582  19.066  0.2427 -0.1082  0.5389
 1624TIP3    H129067   1.311   0.529  19.061 -0.7043  1.3262 -0.9452
 1624TIP3    H229068   1.422   0.586  18.976  1.9392 -0.5114  1.0869
 1625TIP3   OH229069   1.810   7.592  19.372 -0.0892 -0.2910  0.7837
 1625TIP3    H129070   1.881   7.632  19.322 -1.8498  1.0154 -0.8051
 1625TIP3    H229071   1.804   7.644  19.452  0.4312 -0.1381  0.7273
 1626TIP3   OH229072   5.018   3.381  17.733  0.0945 -0.2260 -1.1515
 1626TIP3    H129073   5.102   3.384  17.778  0.5358 -0.0918 -1.9623
 1626TIP3    H229074   5.037   3.410  17.644 -1.3506  3.1449 -0.5441
 1627TIP3   OH229075   3.558   4.622  17.866 -0.4740  0.0809 -0.3599
 1627TIP3    H129076   3.475   4.652  17.829 -0.5349 -0.6727 -0.8553
 1627TIP3    H229077   3.542   4.619  17.960 -0.4918  1.4841 -0.3004
 1628TIP3   OH229078   7.288   2.185  18.388  0.3547  0.2477 -0.3512
 1628TIP3    H129079   7.246   2.169  18.303  0.5518 -0.5171 -0.3161
 1628TIP3    H229080   7.251   2.268  18.417 -2.1279 -0.9575  0.2456
 1629TIP3   OH229081   3.665   1.558  18.473 -0.1540  0.4049 -0.0023
 1629TIP3    H129082   3.643   1.550  18.381 -1.1216 -0.2746  0.2793
 1629TIP3    H229083   3.756   1.589  18.473 -0.2739  0.7949 -1.1707
 1630TIP3   OH229084   2.025   1.430  18.404  0.3480  0.3124  0.3660
 1630TIP3    H129085   2.011   1.516  18.364  2.7042  0.3212 -0.5960
 1630TIP3    H229086   2.089   1.388  18.347 -2.3226 -3.0168 -0.4581
 1631TIP3   OH229087   6.328   4.113  19.275  0.1397  0.2633 -0.4454
 1631TIP3    H129088   6.417   4.108  19.240  0.2589  0.0505 -0.1127
 1631TIP3    H229089   6.322   4.040  19.336 -0.3428  0.1352 -0.6414
 1632TIP3   OH229090   6.749   6.781  18.198 -0.0919  0.0349  0.0787
 1632TIP3    H129091   6.695   6.734  18.261 -1.2389  2.6495  1.1849
 1632TIP3    H229092   6.687   6.817  18.135  0.8110 -0.3959 -1.0978
 1633TIP3   OH229093   3.989   6.544  17.965  0.1490 -0.3243  0.0163
 1633TIP3    H129094   4.009   6.519  17.875  1.0266 -0.7542  0.3118
 1633TIP3    H229095   4.019   6.634  17.973 -0.3737 -0.1230 -0.2504
 1634TIP3   OH229096   3.318   6.341  18.333  0.1753 -0.0700 -0.2301
 1634TIP3    H129097   3.297   6.408  18.268 -3.4863 -2.6465 -2.0603
 1634TIP3    H229098   3.374   6.279  18.287 -1.3676 -1.2360 -0.6157
 1635TIP3   OH229099   4.114   4.868  17.733 -0.0477  0.2226  0.5852
 1635TIP3    H129100   4.156   4.955  17.729  0.3914  0.0616  1.4859
 1635TIP3    H229101   4.046   4.877  17.799 -0.1645 -0.0495  0.5021
 1636TIP3   OH229102   5.884   4.930  18.179  0.3300  0.0067  0.1907
 1636TIP3    H129103   5.932   4.848  18.168  1.7445  0.9392 -0.8656
 1636TIP3    H229104   5.927   4.972  18.254 -1.2882 -0.7707  1.6439
 1637TIP3   OH229105   0.569   5.833  17.005  0.2411  0.1329 -0.0370
 1637TIP3    H129106   0.476   5.854  17.006  0.3178  0.4996 -0.5150
 1637TIP3    H229107   0.606   5.890  16.937  0.8205  0.0313  0.1884
 1638TIP3   OH229108   2.028   1.651  18.872 -0.0463 -0.4368 -0.5222
 1638TIP3    H129109   2.029   1.566  18.916  0.6984  0.1026  0.5359
 1638TIP3    H229110   2.095   1.702  18.916  0.0367  0.4632 -1.6442
 1639TIP3   OH229111   2.492   6.166  18.245  0.4466 -0.3881 -0.5875
 1639TIP3    H129112   2.451   6.175  18.159  0.2187  0.7675 -0.3737
 1639TIP3    H229113   2.430   6.116  18.296 -0.2251  0.4238 -0.5883
 1640TIP3   OH229114   5.338   5.659  18.321  0.4325  0.5351  0.0210
 1640TIP3    H129115   5.259   5.648  18.269  0.7501 -1.0894 -0.1571
 1640TIP3    H229116   5.312   5.635  18.410  0.0431  2.7292  0.5660
 1641TIP3   OH229117   7.499   7.186  19.624  0.2622  0.0617  0.6052
 1641TIP3    H129118   7.494   7.237  19.705 -0.1945  0.6058  0.2441
 1641TIP3    H229119   7.561   7.235  19.569  0.5675 -0.3029  0.6206
 1642TIP3   OH229120   6.427   4.399  17.400 -0.1593 -0.0918 -0.4290
 1642TIP3    H129121   6.491   4.438  17.341 -2.2202  1.2046 -1.9628
 1642TIP3    H229122   6.379   4.336  17.346 -2.0196  1.0314 -0.1651
 1643TIP3   OH229123   6.348   4.834  16.536 -0.2404  0.0920 -0.2842
 1643TIP3    H129124   6.342   4.928  16.555  1.7026  0.0048  0.9834
 1643TIP3    H229125   6.433   4.808  16.570 -1.1940 -2.3803  0.4238
 1644TIP3   OH229126   2.502   2.354  16.797  0.7949 -0.1869  0.1731
 1644TIP3    H129127   2.509   2.261  16.821 -1.6707 -0.5900 -0.3836
 1644TIP3    H229128   2.528   2.357  16.705  1.8023 -0.1414  0.4502
 1645TIP3   OH229129   2.303   6.812  18.830  0.2616 -0.2928  0.2238
 1645TIP3    H129130   2.372   6.878  18.825  0.9569 -1.0048  0.1923
 1645TIP3    H229131   2.320   6.765  18.911 -0.4183 -0.2320  0.4063
 1646TIP3   OH229132   5.222   0.773  19.355 -0.2201 -0.2884  0.6423
 1646TIP3    H129133   5.157   0.729  19.301 -0.8856  1.5910 -0.1930
 1646TIP3    H229134   5.170   0.830  19.413  0.6193  1.4072 -0.1880
 1647TIP3   OH229135   0.706   3.429  18.702 -0.6125 -0.3210  0.5532
 1647TIP3    H129136   0.745   3.362  18.759 -0.5607  0.6761  1.7421
 1647TIP3    H229137   0.641   3.472  18.758 -2.2111 -0.8013 -0.8608
 1648TIP3   OH229138   5.178   4.001  19.406  0.3771  0.4008 -0.0730
 1648TIP3    H129139   5.218   4.069  19.352 -1.4387  0.8200 -0.9876
 1648TIP3    H229140   5.090   4.033  19.424 -0.7496 -1.9034 -0.9908
 1649TIP3   OH229141   0.331   7.546  18.492  0.0418 -0.1483 -0.5670
 1649TIP3    H129142   0.367   7.563  18.579  0.6332 -1.2922 -0.5728
 1649TIP3    H229143   0.344   7.452  18.478  0.0869  0.0423 -1.9413
 1650TIP3   OH229144   3.845   4.593  17.787 -0.0087 -0.2877 -0.3906
 1650TIP3    H129145   3.842   4.639  17.703 -0.1833 -1.1621 -0.8702
 1650TIP3    H229146   3.754   4.587  17.815 -0.0577 -0.9858 -0.6882
 1651TIP3   OH229147   4.981   0.292  17.494  0.9696 -0.0449  0.3054
 1651TIP3    H129148   4.946   0.226  17.435 -0.9636  1.3189 -0.1605
 1651TIP3    H229149   5.058   0.251  17.533  1.2649 -1.6390 -1.7969
 1652TIP3   OH229150   2.691   2.399  18.875  0.4213  0.5517  0.1777
 1652TIP3    H129151   2.639   2.342  18.931 -2.6428  3.0950  0.2085
 1652TIP3    H229152   2.658   2.383  18.786 -0.2382  1.9291  0.1457
 1653TIP3   OH229153   2.346   2.024  19.135 -0.3484  0.4464  0.6406
 1653TIP3    H129154   2.368   2.025  19.228  1.8141  1.4525  0.1780
 1653TIP3    H229155   2.409   1.963  19.095 -0.9163  0.4129 -0.2484
 1654TIP3   OH229156   3.816   4.241  17.741  0.2362 -0.1213  0.7715
 1654TIP3    H129157   3.746   4.222  17.803  0.4972 -1.9412  0.5606
 1654TIP3    H229158   3.773   4.241  17.655  0.6598 -2.9281  0.4531
 1655TIP3   OH229159   5.512   5.166  18.084  0.4718 -0.0773 -0.0965
 1655TIP3    H129160   5.547   5.230  18.147 -0.0345 -0.3034  0.4250
 1655TIP3    H229161   5.468   5.101  18.138 -2.2481  1.0656 -0.7673
 1656TIP3   OH229162   5.525   7.297  17.388  0.0690 -0.6138  0.3449
 1656TIP3    H129163   5.485   7.369  17.436 -0.2821 -1.4578  1.3397
 1656TIP3    H229164   5.619   7.317  17.386 -0.3393  1.7807 -2.6698
 1657TIP3   OH229165   7.464   2.395  19.170 -0.1643  0.1456  0.1979
 1657TIP3    H129166   7.520   2.421  19.244 -0.7878  0.4660  0.5653
 1657TIP3    H229167   7.400   2.335  19.209  0.3776 -0.8114 -0.3658
 1658TIP3   OH229168   2.261   5.978  18.669  0.1825 -0.7151 -0.1693
 1658TIP3    H129169   2.344   5.936  18.647  0.2028 -0.6185 -0.2790
 1658TIP3    H229170   2.283   6.071  18.679  0.1923 -0.7685  0.3566
 1659TIP3   OH229171   6.618   5.647  18.066 -0.3430  0.0372 -0.6977
 1659TIP3    H129172   6.682   5.693  18.012  1.4182 -0.8698  0.5218
 1659TIP3    H229173   6.654   5.559  18.076 -0.9663 -0.0383  1.3486
 1660TIP3   OH229174   2.527   0.125  17.437  0.0067  0.0004 -0.7772
 1660TIP3    H129175   2.584   0.052  17.412 -0.5951 -0.4672 -0.8049
 1660TIP3    H229176   2.584   0.185  17.486  0.6325 -0.2219 -1.2279
 1661TIP3   OH229177   5.897   6.333  17.652 -0.4141  0.3291  0.5935
 1661TIP3    H129178   5.988   6.351  17.677  0.0936 -0.1061 -0.8529
 1661TIP3    H229179   5.873   6.405  17.595 -0.5983 -0.1317  0.0800
 1662TIP3   OH229180   4.928   2.590  18.019 -0.1699  0.1537  0.1067
 1662TIP3    H129181   4.862   2.580  17.951  0.0805 -0.8188  0.0023
 1662TIP3    H229182   4.986   2.660  17.986 -0.8523  0.6704 -0.0210
 1663TIP3   OH229183   4.779   1.186  18.938 -0.0488 -0.0388 -0.0882
 1663TIP3    H129184   4.851   1.234  18.979 -0.3502  0.4544 -0.1244
 1663TIP3    H229185   4.701   1.239  18.957 -0.7096 -1.5020  1.5559
 1664TIP3   OH229186   0.054   4.007  18.437  0.0753 -0.1072 -0.4307
 1664TIP3    H129187   0.138   4.036  18.402 -0.4745  1.2695 -0.6676
 1664TIP3    H229188  -0.004   4.001  18.361 -0.2435 -0.3199 -0.1776
 1665TIP3   OH229189   4.276   6.778  18.518  0.7381  0.7338  0.1303
 1665TIP3    H129190   4.214   6.805  18.450  0.3860  1.2400  0.6386
 1665TIP3    H229191   4.328   6.857  18.535  0.1915  0.8997  1.1159
 1666TIP3   OH229192   3.340   2.624  16.911  0.8322  0.5492  0.4993
 1666TIP3    H129193   3.424   2.600  16.870  1.6287  2.3515  0.9952
 1666TIP3    H229194   3.337   2.719  16.905 -1.2975  0.5014  0.3277
 1667TIP3   OH229195   1.661   1.363  19.429 -0.1574  0.1409 -0.1601
 1667TIP3    H129196   1.708   1.411  19.499  1.1033 -1.3897  0.1001
 1667TIP3    H229197   1.723   1.362  19.357 -0.0904 -1.2453 -0.0935
 1668TIP3   OH229198   2.194   2.125  17.857 -0.2589 -0.7363 -0.6037
 1668TIP3    H129199   2.118   2.068  17.869  0.4590 -1.4585  0.7449
 1668TIP3    H229200   2.253   2.075  17.801 -0.2074 -0.7366 -0.5478
 1669TIP3   OH229201   2.734   4.306  17.579 -0.6286  0.1932 -0.3046
 1669TIP3    H129202   2.738   4.213  17.562 -0.5263 -0.3377  2.1649
 1669TIP3    H229203   2.718   4.313  17.673 -1.1907  2.6665 -0.4939
 1670TIP3   OH229204   0.446   2.347  19.047 -0.5403  0.1149 -0.2674
 1670TIP3    H129205   0.463   2.263  19.003 -0.4219 -0.1178  0.2041
 1670TIP3    H229206   0.387   2.394  18.989  0.8258  0.4568 -1.4162
 1671TIP3   OH229207   4.146   5.745  17.825 -0.4355  0.1192  0.6798
 1671TIP3    H129208   4.118   5.686  17.895 -0.9519  0.0042  0.3872
 1671TIP3    H229209   4.072   5.804  17.813 -0.5684 -0.1927 -0.1168
 1672TIP3   OH229210   7.207   4.885  18.419  0.3547 -0.5691 -0.2090
 1672TIP3    H129211   7.130   4.902  18.365 -1.3311 -0.6273  2.0087
 1672TIP3    H229212   7.255   4.816  18.373 -0.0899  0.5134 -2.3954
 1673TIP3   OH229213   6.077   4.120  18.202  0.1471  0.2389 -0.5378
 1673TIP3    H129214   6.117   4.109  18.288  0.4184  0.4786 -0.6318
 1673TIP3    H229215   6.013   4.189  18.213 -1.8541 -1.6058  0.1502
 1674TIP3   OH229216   7.578   5.861  18.540  0.4417 -0.0907 -0.1467
 1674TIP3    H129217   7.515   5.796  18.571  0.4667 -0.0214  0.0580
 1674TIP3    H229218   7.525   5.935  18.511  0.4495  0.6760  1.6239
 1675TIP3   OH229219   4.320   3.960  17.620  0.0019  0.3586 -0.4850
 1675TIP3    H129220   4.302   4.027  17.554 -0.5910 -1.7634 -2.6084
 1675TIP3    H229221   4.250   3.970  17.684  0.0473  1.8573 -0.6359
 1676TIP3   OH229222   3.094   6.456  19.410 -0.8462  0.3925 -0.3857
 1676TIP3    H129223   3.015   6.485  19.365 -0.7105  0.5272 -0.5437
 1676TIP3    H229224   3.141   6.538  19.431 -0.8992  0.3292 -0.0157
 1677TIP3   OH229225   4.680   4.270  18.034 -0.0954 -0.1959 -0.0099
 1677TIP3    H129226   4.680   4.187  18.080 -0.8703  0.2759  0.8813
 1677TIP3    H229227   4.671   4.246  17.941  0.1985 -1.1139  0.1916
 1678TIP3   OH229228   2.324   0.107  18.681 -0.0789  0.6212  0.2004
 1678TIP3    H129229   2.288   0.100  18.593 -0.5852  2.6579  0.1902
 1678TIP3    H229230   2.347   0.200  18.690 -1.1079  0.7321  2.5852
 1679TIP3   OH229231   1.686   0.465  18.153  0.1593  0.1344 -0.0377
 1679TIP3    H129232   1.744   0.538  18.174  1.2549 -1.2234  2.0339
 1679TIP3    H229233   1.704   0.445  18.061  1.6182  0.9345  0.0514
 1680TIP3   OH229234   5.113   5.862  19.019 -0.4723  0.6029  0.3139
 1680TIP3    H129235   5.051   5.906  18.962 -1.5997  1.1668  1.9024
 1680TIP3    H229236   5.199   5.892  18.989 -1.0632  1.4588 -0.5811
 1681TIP3   OH229237   2.908   1.227  16.769  0.4948 -0.4474 -0.3835
 1681TIP3    H129238   2.840   1.277  16.724 -0.1825 -0.6148  0.4291
 1681TIP3    H229239   2.961   1.293  16.815  2.0353 -0.1313 -2.4394
 1682TIP3   OH229240   4.452   0.856  19.385 -0.0195 -0.6582  0.6322
 1682TIP3    H129241   4.383   0.911  19.423  0.7870  0.7738  0.1101
 1682TIP3    H229242   4.464   0.785  19.449 -1.0630 -0.2285  1.3461
 1683TIP3   OH229243   1.169   0.108  18.349  0.4215  0.4905 -0.0798
 1683TIP3    H129244   1.103   0.058  18.302 -0.3267  1.8911 -0.5659
 1683TIP3    H229245   1.129   0.129  18.433  0.8932 -0.0447  0.2943
 1684TIP3   OH229246   3.156   1.960  19.422 -0.0103  0.0654  0.1967
 1684TIP3    H129247   3.238   1.998  19.391 -0.5606  0.7955 -0.4197
 1684TIP3    H229248   3.172   1.865  19.423  1.0880  0.2421  0.8588
 1685TIP3   OH229249   0.605   4.737  18.318  0.1729 -0.1990 -0.3681
 1685TIP3    H129250   0.700   4.735  18.323  0.2623 -1.5941 -1.8645
 1685TIP3    H229251   0.585   4.714  18.227 -1.5972  0.2117 -0.1256
 1686TIP3   OH229252   4.390   1.141  17.884 -0.4148 -0.0290  0.1543
 1686TIP3    H129253   4.455   1.194  17.839 -0.0625 -0.1207  0.5448
 1686TIP3    H229254   4.354   1.200  17.951 -0.9892  0.1315 -0.2863
 1687TIP3   OH229255   5.621   4.614  17.689 -0.4566  0.5917  0.6561
 1687TIP3    H129256   5.577   4.574  17.764 -0.8848  1.2775  0.7726
 1687TIP3    H229257   5.625   4.707  17.709 -2.5184  1.1471 -1.0816
 1688TIP3   OH229258   2.060   7.441  19.502  0.2965  0.3785  0.1932
 1688TIP3    H129259   2.111   7.370  19.543  0.4251  0.1710 -0.3166
 1688TIP3    H229260   2.016   7.399  19.429 -0.7003  0.5392  0.6901
 1689TIP3   OH229261   4.352   6.060  18.156 -0.0200 -0.2970  0.4475
 1689TIP3    H129262   4.306   6.133  18.115  1.3340 -0.7908 -2.1834
 1689TIP3    H229263   4.422   6.101  18.207  0.6965  0.3089 -0.9638
 1690TIP3   OH229264   1.807   7.202  19.066  0.6719 -0.5552  0.2131
 1690TIP3    H129265   1.872   7.135  19.043 -0.8427 -1.4321 -1.8961
 1690TIP3    H229266   1.791   7.248  18.983 -0.7221  0.2284  0.8959
 1691TIP3   OH229267   0.849   7.046  18.201  0.3245  0.5619  0.2837
 1691TIP3    H129268   0.892   7.036  18.116  1.6019  0.0430  0.9680
 1691TIP3    H229269   0.921   7.056  18.264 -0.5982  1.0626  1.2939
 1692TIP3   OH229270   5.951   6.677  18.232 -0.6940 -0.2055  0.1309
 1692TIP3    H129271   5.971   6.751  18.290 -0.8608 -0.1204  0.0819
 1692TIP3    H229272   6.036   6.646  18.203 -0.6024 -0.3437  0.5411
 1693TIP3   OH229273   7.462   3.377  18.418 -0.1314  0.3551  0.2003
 1693TIP3    H129274   7.454   3.290  18.457 -1.2647  0.5725  0.4790
 1693TIP3    H229275   7.511   3.362  18.337  1.9465 -0.1505  1.4761
 1694TIP3   OH229276   0.803   5.313  17.771 -0.4150  0.3549  0.3100
 1694TIP3    H129277   0.746   5.296  17.696  1.0001 -1.5482 -0.4208
 1694TIP3    H229278   0.887   5.339  17.733  0.3745 -0.7924  1.1747
 1695TIP3   OH229279   0.680   6.060  17.611 -0.0815 -0.0303  0.0586
 1695TIP3    H129280   0.623   6.006  17.556 -0.3511 -0.4459  0.7290
 1695TIP3    H229281   0.628   6.077  17.689  0.5752 -0.1055  0.5168
 1696TIP3   OH229282   3.290   5.490  17.844 -0.2445  0.3323 -0.5666
 1696TIP3    H129283   3.208   5.518  17.885  0.3247  0.4491  0.5359
 1696TIP3    H229284   3.346   5.567  17.847 -0.2137  0.3620 -1.6619
 1697TIP3   OH229285   1.758   2.445  19.309  0.3657 -0.1694 -0.4388
 1697TIP3    H129286   1.830   2.507  19.316  0.6614 -0.5198 -0.3784
 1697TIP3    H229287   1.680   2.500  19.302  0.4238  0.2365  1.6073
 1698TIP3   OH229288   4.767   5.149  19.121  0.1218 -0.0799  0.2761
 1698TIP3    H129289   4.849   5.119  19.160  0.4038  0.5531  0.1791
 1698TIP3    H229290   4.785   5.239  19.093 -0.1106 -0.4773 -1.2197
 1699TIP3   OH229291   0.711   2.438  19.040 -0.5588 -0.5552  0.1301
 1699TIP3    H129292   0.667   2.353  19.038 -1.7337 -0.0092  1.5639
 1699TIP3    H229293   0.788   2.424  19.095 -0.0798 -0.9702 -0.6258
 1700TIP3   OH229294   7.106   5.582  18.866 -0.3284  0.6679  0.0774
 1700TIP3    H129295   7.165   5.514  18.835 -3.2306 -0.6658 -3.0812
 1700TIP3    H229296   7.139   5.663  18.825  2.0575  1.0178  2.3965
 1701TIP3   OH229297   3.412   6.235  18.062 -0.3132 -0.0681 -0.1374
 1701TIP3    H129298   3.355   6.228  17.985 -1.0624  0.5688  0.3483
 1701TIP3    H229299   3.417   6.145  18.095  2.2415 -0.9163 -2.4476
 1702TIP3   OH229300   1.869   4.218  17.046  0.1978 -0.4590 -0.1572
 1702TIP3    H129301   1.813   4.293  17.028  0.7411  0.4497  1.7268
 1702TIP3    H229302   1.954   4.241  17.011 -0.0245 -0.9137 -1.0358
 1703TIP3   OH229303   1.661   2.257  17.431 -0.2738 -0.4273 -0.3677
 1703TIP3    H129304   1.695   2.346  17.441  0.4089 -0.7692  0.5477
 1703TIP3    H229305   1.601   2.247  17.505 -0.9954 -0.4533 -0.9477
 1704TIP3   OH229306   4.915   3.677  18.069 -0.6385  0.4171 -0.7768
 1704TIP3    H129307   4.892   3.592  18.107  0.0022 -0.6511 -2.6157
 1704TIP3    H229308   5.007   3.668  18.044 -1.1200  0.8329 -2.9420
 1705TIP3   OH229309   6.755   2.265  19.180 -0.1184 -0.0745 -0.0559
 1705TIP3    H129310   6.737   2.176  19.148  0.1556 -0.3213  0.4615
 1705TIP3    H229311   6.842   2.286  19.147 -0.6072  0.4162 -1.0556
 1706TIP3   OH229312   4.175   2.654  17.813  0.3654  0.0360  0.2398
 1706TIP3    H129313   4.221   2.734  17.838  0.7446  0.1752 -0.8388
 1706TIP3    H229314   4.241   2.601  17.768  0.0734 -0.8182  0.7835
 1707TIP3   OH229315   3.227   5.425  19.062 -0.4086 -0.3784 -0.0217
 1707TIP3    H129316   3.235   5.488  18.991  3.3990 -0.0636  0.4636
 1707TIP3    H229317   3.226   5.339  19.019  1.0084 -0.1631 -0.5229
 1708TIP3   OH229318   2.946   7.171  19.426  0.3622  0.7512 -0.5004
 1708TIP3    H129319   2.978   7.154  19.515 -1.3632  0.7354  0.1495
 1708TIP3    H229320   2.937   7.084  19.388 -0.0735  0.6880 -0.2562
 1709TIP3   OH229321   1.706   7.439  19.665  0.8491 -0.1290  0.2186
 1709TIP3    H129322   1.707   7.351  19.703  2.3027 -0.1549  0.1679
 1709TIP3    H229323   1.636   7.436  19.599  1.2150 -1.3902 -0.1293
 1710TIP3   OH229324   6.346   2.789  18.294 -0.0236  0.1231  0.0295
 1710TIP3    H129325   6.259   2.824  18.275 -0.5700 -1.4714 -0.5105
 1710TIP3    H229326   6.371   2.831  18.376 -2.8593 -2.0415  2.2150
 1711TIP3   OH229327   5.738   2.718  19.270  0.0229  0.3478 -0.0989
 1711TIP3    H129328   5.663   2.774  19.289  0.9540  1.4605  0.4190
 1711TIP3    H229329   5.769   2.749  19.185  0.3689  0.4407  0.0594
 1712TIP3   OH229330   1.239   2.508  19.025  0.3135 -0.7066  0.5141
 1712TIP3    H129331   1.192   2.590  19.037  1.0888  0.5033 -3.2444
 1712TIP3    H229332   1.310   2.511  19.089  1.3723  2.5214 -0.6138
 1713TIP3   OH229333   7.447   4.826  17.795  0.7496 -0.2021 -0.1737
 1713TIP3    H129334   7.485   4.796  17.878 -1.3675 -0.8081  0.6488
 1713TIP3    H229335   7.500   4.783  17.728  1.8632 -0.5405  0.8686
 1714TIP3   OH229336   2.386   5.132  18.155 -0.4829  0.0740  0.1955
 1714TIP3    H129337   2.312   5.077  18.131 -0.3924 -0.7543  1.7297
 1714TIP3    H229338   2.349   5.202  18.208 -0.1673 -0.3724  1.0116
 1715TIP3   OH229339   2.683   2.718  17.106 -0.7683 -0.2073 -0.3809
 1715TIP3    H129340   2.601   2.752  17.071 -1.4473 -0.7704  0.6318
 1715TIP3    H229341   2.736   2.698  17.028 -0.0533  3.6829 -1.0874
 1716TIP3   OH229342   7.650   5.746  17.149 -0.3686 -0.6587 -0.0660
 1716TIP3    H129343   7.620   5.718  17.062 -1.3431  0.9973 -0.3056
 1716TIP3    H229344   7.668   5.839  17.139  0.6437 -0.6938  1.2318
 1717TIP3   OH229345   1.649   1.651  18.462  0.0863 -0.0385 -0.3603
 1717TIP3    H129346   1.618   1.741  18.454  0.1444 -0.1118 -1.6029
 1717TIP3    H229347   1.715   1.654  18.532 -2.0142  0.2881  1.7161
 1718TIP3   OH229348   4.340   6.535  18.124  0.0074  0.5348 -0.3225
 1718TIP3    H129349   4.259   6.586  18.130  0.0871  0.6408 -0.1493
 1718TIP3    H229350   4.409   6.600  18.114  0.2291  0.5349  0.9726
 1719TIP3   OH229351   5.722   3.069  19.343 -0.4644 -0.2088 -0.2315
 1719TIP3    H129352   5.692   3.134  19.407 -1.5663 -0.4555 -0.4654
 1719TIP3    H229353   5.667   2.993  19.360  0.0757 -0.6991 -0.6697
 1720TIP3   OH229354   3.311   3.434  19.191  0.0325  0.2327  0.3134
 1720TIP3    H129355   3.269   3.472  19.113  0.4245  1.3442  0.6225
 1720TIP3    H229356   3.334   3.510  19.245 -0.0158 -0.5126  1.4068
 1721TIP3   OH229357   2.687   2.115  18.812 -0.4462  0.1693 -0.1379
 1721TIP3    H129358   2.730   2.038  18.776  0.2395  1.1187 -1.4390
 1721TIP3    H229359   2.671   2.093  18.904 -1.6002 -2.0623 -0.7926
 1722TIP3   OH229360   6.240   0.832  19.263 -0.0008  0.3053 -0.5361
 1722TIP3    H129361   6.220   0.911  19.213  0.4878 -0.7168 -2.4518
 1722TIP3    H229362   6.336   0.829  19.265  0.0528  1.4574  2.4230
 1723TIP3   OH229363   1.951   0.622  19.474  0.4949  0.7323  0.0416
 1723TIP3    H129364   1.865   0.587  19.495 -0.0689  0.1476 -2.8594
 1723TIP3    H229365   1.973   0.677  19.549 -1.0838 -1.3490  2.1731
 1724TIP3   OH229366   6.454   4.218  18.962 -0.2203  0.1690 -0.5008
 1724TIP3    H129367   6.523   4.243  18.900 -0.8512 -0.2599 -1.4049
 1724TIP3    H229368   6.441   4.125  18.947 -0.3315  0.0424  0.3459
 1725TIP3   OH229369   5.496   5.468  17.295 -0.0103  0.7914  0.0629
 1725TIP3    H129370   5.458   5.406  17.357 -1.0005 -0.1076 -1.3852
 1725TIP3    H229371   5.431   5.476  17.225  1.2135  1.4833 -1.0505
 1726TIP3   OH229372   4.431   2.749  17.255  0.0879 -0.4094 -0.4697
 1726TIP3    H129373   4.421   2.764  17.350 -1.1984 -0.9631 -0.4962
 1726TIP3    H229374   4.454   2.657  17.247  1.8239  0.0154 -0.6319
 1727TIP3   OH229375   4.710   2.459  19.078  0.1935 -0.0506 -0.1240
 1727TIP3    H129376   4.797   2.461  19.118 -0.2011 -0.1557  0.7770
 1727TIP3    H229377   4.718   2.516  19.001  1.2113 -0.5425 -0.4077
 1728TIP3   OH229378   7.278   3.091  17.156  0.0417  0.1766 -0.4789
 1728TIP3    H129379   7.341   3.104  17.227  2.0059 -1.8534 -1.6732
 1728TIP3    H229380   7.296   3.162  17.094 -0.1896  0.7138  0.0678
 1729TIP3   OH229381   5.574   7.678  19.247  0.2128  0.2660  0.0934
 1729TIP3    H129382   5.544   7.616  19.180 -0.2351  1.8796 -1.2775
 1729TIP3    H229383   5.494   7.719  19.278  0.5718  0.8122  0.3071
 1730TIP3   OH229384   6.010   2.421  19.727 -0.0475  0.0296 -0.1190
 1730TIP3    H129385   6.083   2.359  19.726  1.5417  1.7909 -2.0241
 1730TIP3    H229386   5.938   2.373  19.686  0.9209 -0.8396 -0.8760
 1731TIP3   OH229387   1.390   6.793  19.565  0.1371 -0.3160  0.1637
 1731TIP3    H129388   1.406   6.773  19.657  1.1078  0.3614  0.1532
 1731TIP3    H229389   1.475   6.785  19.523  0.3058  2.1479 -0.1276
 1732TIP3   OH229390   0.276   7.173  17.754 -0.4764 -0.3640  0.1203
 1732TIP3    H129391   0.195   7.127  17.730 -0.6321 -0.7443  1.2789
 1732TIP3    H229392   0.282   7.246  17.693 -1.0222 -1.0680 -0.7998
 1733TIP3   OH229393   0.171   4.700  16.831 -0.1602 -0.1215 -0.3635
 1733TIP3    H129394   0.185   4.773  16.771 -0.9109 -0.1674 -0.5966
 1733TIP3    H229395   0.105   4.731  16.893  0.4352 -0.1598  0.3011
 1734TIP3   OH229396   6.073   3.314  18.303  0.2734  0.5504 -0.0780
 1734TIP3    H129397   6.094   3.338  18.394  0.0637  2.6411 -0.5340
 1734TIP3    H229398   6.158   3.300  18.262  0.3508 -1.2046  0.5966
 1735TIP3   OH229399   2.536   1.394  18.772 -0.1750  0.2612  0.1836
 1735TIP3    H129400   2.469   1.434  18.717 -1.6342 -0.7801  1.1232
 1735TIP3    H229401   2.607   1.373  18.712 -0.8508  1.0243 -0.9261
 1736TIP3   OH229402   4.601   0.792  18.425  0.0287  0.0180 -0.0971
 1736TIP3    H129403   4.541   0.720  18.444  1.7145 -1.4144 -0.0505
 1736TIP3    H229404   4.623   0.781  18.333 -0.6921  1.2965 -0.4625
 1737TIP3   OH229405   3.323   7.417  18.439 -0.1135 -0.4326  0.2397
 1737TIP3    H129406   3.402   7.446  18.393  0.1944  2.2702  2.2391
 1737TIP3    H229407   3.354   7.389  18.525 -1.1778 -0.9629  0.4712
 1738TIP3   OH229408   5.396   0.132  18.240  0.2490  0.2198  0.8934
 1738TIP3    H129409   5.349   0.049  18.250 -1.5187  0.9353 -0.8672
 1738TIP3    H229410   5.458   0.117  18.170  0.2797  0.2494  0.9132
 1739TIP3   OH229411   2.055   4.227  19.321  0.0999  0.0266 -0.0328
 1739TIP3    H129412   2.064   4.318  19.294 -0.4853  0.0067 -0.3261
 1739TIP3    H229413   2.009   4.231  19.405 -0.9001 -0.0224 -0.5507
 1740TIP3   OH229414   0.688   2.296  18.268 -0.2645  0.0226 -0.3261
 1740TIP3    H129415   0.771   2.344  18.269  0.7217 -1.5731  2.1153
 1740TIP3    H229416   0.634   2.342  18.203  2.5406  1.0331 -2.0982
 1741TIP3   OH229417   2.257   0.248  19.281  0.3294 -0.3349 -0.0966
 1741TIP3    H129418   2.239   0.156  19.299 -0.9529 -0.0113  0.3974
 1741TIP3    H229419   2.351   0.258  19.299  0.1096 -1.1209  1.7801
 1742TIP3   OH229420   7.362   5.760  19.413  0.2042  0.2022  0.5875
 1742TIP3    H129421   7.410   5.843  19.414  0.0820  0.4028 -2.1419
 1742TIP3    H229422   7.271   5.785  19.397  0.0618 -0.4320  0.3893
 1743TIP3   OH229423   3.824   1.582  19.199 -0.6371 -0.2624  0.0568
 1743TIP3    H129424   3.790   1.551  19.283 -0.4386  0.6033  0.4751
 1743TIP3    H229425   3.834   1.677  19.211 -0.1640 -0.1931 -0.7878
 1744TIP3   OH229426   1.717   0.164  17.617 -0.4733 -0.7400  0.3882
 1744TIP3    H129427   1.747   0.208  17.537  0.2502  0.4839  1.3048
 1744TIP3    H229428   1.786   0.101  17.636  0.5134  0.5627  1.2872
 1745TIP3   OH229429   6.842   0.105  19.465  0.2441 -0.5196  0.0920
 1745TIP3    H129430   6.892   0.026  19.445  1.6714  0.2805  0.2945
 1745TIP3    H229431   6.871   0.130  19.552 -1.1692 -0.4719  0.5742
 1746TIP3   OH229432   7.212   7.664  17.497  0.3618 -0.3942 -0.1202
 1746TIP3    H129433   7.143   7.709  17.449 -1.2443 -2.5070  0.0868
 1746TIP3    H229434   7.278   7.643  17.431  0.7443  1.4536 -0.3598
 1747TIP3   OH229435   0.090   1.085  16.936 -0.2179 -0.3587 -0.1327
 1747TIP3    H129436   0.027   1.020  16.905  0.5161 -0.1701 -2.1002
 1747TIP3    H229437   0.073   1.162  16.882  0.5954  0.2595  0.4755
 1748TIP3   OH229438   5.151   0.304  18.298 -0.1848  0.3246 -0.2671
 1748TIP3    H129439   5.225   0.245  18.281 -0.6505 -1.0963  2.1796
 1748TIP3    H229440   5.163   0.376  18.236  2.5068 -0.5007 -0.8364
 1749TIP3   OH229441   2.511   5.622  18.371 -0.0008 -0.1879 -0.0724
 1749TIP3    H129442   2.578   5.613  18.304 -1.0197  0.2315 -1.1898
 1749TIP3    H229443   2.546   5.576  18.447  0.9626 -1.1337 -1.0593
 1750TIP3   OH229444   0.315   0.301  18.460  0.6779  0.4516 -0.1833
 1750TIP3    H129445   0.374   0.367  18.496  1.9563 -1.0322  0.5766
 1750TIP3    H229446   0.328   0.225  18.516  0.8510 -1.1386 -2.2784
 1751TIP3   OH229447   2.557   2.763  19.326  0.0471  0.2246 -0.2484
 1751TIP3    H129448   2.590   2.737  19.412 -1.7216 -1.9024 -0.1166
 1751TIP3    H229449   2.632   2.755  19.267  0.7264 -0.5732  0.7001
 1752TIP3   OH229450   7.654   6.024  19.089  0.0713  0.4914 -0.3095
 1752TIP3    H129451   7.599   6.008  19.013  0.4369  0.7874 -0.6440
 1752TIP3    H229452   7.724   5.959  19.083 -1.5917 -1.6266  1.5156
 1753TIP3   OH229453   5.767   4.859  17.740  0.1626  0.0890  0.4461
 1753TIP3    H129454   5.775   4.945  17.781 -0.9857  0.8097 -0.7503
 1753TIP3    H229455   5.810   4.799  17.801  1.9020  1.6329  0.8132
 1754TIP3   OH229456   4.221   4.316  18.750 -0.1315  0.5222 -0.0823
 1754TIP3    H129457   4.207   4.389  18.810  0.9725  0.1895  0.6276
 1754TIP3    H229458   4.147   4.319  18.690  0.1130  2.4783 -0.3440
 1755TIP3   OH229459   6.039   4.490  18.706 -0.2233 -0.5754  0.2251
 1755TIP3    H129460   5.984   4.428  18.657 -0.7780 -0.5550  0.8112
 1755TIP3    H229461   6.033   4.460  18.797  1.1484 -0.8776  0.2405
 1756TIP3   OH229462   0.422   1.295  19.243  0.2294 -0.0266  1.3756
 1756TIP3    H129463   0.463   1.381  19.253  0.1837  0.1965 -0.2018
 1756TIP3    H229464   0.329   1.311  19.256 -0.2273  0.8377 -2.0286
 1757TIP3   OH229465   5.213   0.983  18.180  0.4018 -0.3531 -0.3160
 1757TIP3    H129466   5.267   0.968  18.258  1.2544  1.1987 -0.5587
 1757TIP3    H229467   5.198   0.896  18.143  0.1078 -1.1084  1.4745
 1758TIP3   OH229468   6.172   1.196  18.941 -0.6866  0.3529  0.3230
 1758TIP3    H129469   6.158   1.143  19.019 -1.0388 -0.2272 -0.1201
 1758TIP3    H229470   6.169   1.287  18.971 -0.5104  0.1271  1.0236
 1759TIP3   OH229471   7.316   2.400  17.408 -0.9848 -0.1835  0.1379
 1759TIP3    H129472   7.392   2.348  17.380 -0.0866  1.1793 -0.0548
 1759TIP3    H229473   7.332   2.487  17.370 -2.7524  0.0771 -0.0659
 1760TIP3   OH229474   4.786   6.475  17.377  0.1135 -0.4486 -0.2624
 1760TIP3    H129475   4.782   6.436  17.464 -2.1356  0.1166 -0.0353
 1760TIP3    H229476   4.695   6.497  17.357  0.6384 -0.1190 -2.5587
 1761TIP3   OH229477   7.523   6.273  17.980 -0.1313  0.6247  0.2432
 1761TIP3    H129478   7.499   6.185  18.008 -0.1771  0.3282 -0.6831
 1761TIP3    H229479   7.483   6.331  18.045 -0.2838 -0.0223  0.7358
 1762TIP3   OH229480   7.496   6.992  18.545  0.2697  0.1101 -0.2585
 1762TIP3    H129481   7.495   6.928  18.617 -0.1953 -1.9425 -1.9635
 1762TIP3    H229482   7.583   6.983  18.507  0.3032  0.7311 -0.3322
 1763TIP3   OH229483   2.951   2.415  18.430  0.0399 -0.0484  0.5965
 1763TIP3    H129484   2.897   2.339  18.411  1.3659 -1.2895  1.5473
 1763TIP3    H229485   3.032   2.379  18.465  0.5250  1.8349  1.5637
 1764TIP3   OH229486   0.571   1.900  19.189 -0.5508  0.1262  0.4431
 1764TIP3    H129487   0.575   1.881  19.096 -0.8300  1.2664  0.1859
 1764TIP3    H229488   0.660   1.886  19.221 -0.2220  0.7229 -0.2003
 1765TIP3   OH229489   3.024   3.734  19.165 -0.2242  0.2198  0.0110
 1765TIP3    H129490   3.047   3.657  19.217 -0.5415 -0.3052 -0.6161
 1765TIP3    H229491   3.073   3.806  19.206  2.3975 -0.8027 -1.1053
 1766TIP3   OH229492   5.631   4.794  19.029 -0.4618  0.3662 -0.1053
 1766TIP3    H129493   5.698   4.857  19.055 -1.1677  0.7849  0.7837
 1766TIP3    H229494   5.607   4.820  18.940 -1.6239  2.1915  0.6736
 1767TIP3   OH229495   6.625   2.343  18.269  0.0453 -0.1770 -0.0276
 1767TIP3    H129496   6.561   2.413  18.255  0.3486  0.0422 -0.3209
 1767TIP3    H229497   6.638   2.305  18.182  0.6274  0.0459 -0.0405
 1768TIP3   OH229498   5.682   4.580  18.757 -0.3438 -0.0516 -0.1492
 1768TIP3    H129499   5.675   4.552  18.666  0.2952 -0.6049 -0.0324
 1768TIP3    H229500   5.719   4.505  18.803 -0.3443  0.3430  0.5086
 1769TIP3   OH229501   6.195   7.083  18.360  0.0447  0.0039 -0.2670
 1769TIP3    H129502   6.203   7.149  18.429 -0.8190  1.2007 -1.2525
 1769TIP3    H229503   6.285   7.064  18.334  0.3344  0.2642  0.5199
 1770TIP3   OH229504   5.710   5.541  18.790  0.8116  0.4429 -0.1560
 1770TIP3    H129505   5.711   5.489  18.709  1.6028  0.5814 -0.2437
 1770TIP3    H229506   5.747   5.625  18.764 -0.7457  1.1900 -0.0812
 1771TIP3   OH229507   1.012   6.818  19.312  0.2977  0.5949 -0.4074
 1771TIP3    H129508   0.989   6.776  19.228  1.5202 -0.3393 -0.3082
 1771TIP3    H229509   0.975   6.906  19.305 -1.3003 -0.0756 -1.1340
 1772TIP3   OH229510   6.422   1.933  17.914  0.2203  0.4782  0.1390
 1772TIP3    H129511   6.425   2.027  17.898  2.9748  0.6468  1.1536
 1772TIP3    H229512   6.394   1.895  17.830  1.3678  2.0755 -1.0259
 1773TIP3   OH229513   4.361   1.593  16.853 -0.2655  0.3549  0.0237
 1773TIP3    H129514   4.444   1.603  16.899  0.9969  0.5231 -2.1448
 1773TIP3    H229515   4.340   1.500  16.861  0.1187  0.3138  0.6082
 1774TIP3   OH229516   3.732   1.503  18.063  0.0252  0.2885 -0.3334
 1774TIP3    H129517   3.822   1.527  18.084  0.2425 -0.3607 -0.5207
 1774TIP3    H229518   3.738   1.452  17.983 -0.3903 -0.6749  0.2355
 1775TIP3   OH229519   1.978   2.612  18.445  0.3324  0.2951 -0.3952
 1775TIP3    H129520   1.906   2.629  18.384  0.1298 -1.0365 -0.5568
 1775TIP3    H229521   2.047   2.576  18.390  2.1477  3.8274 -0.6961
 1776TIP3   OH229522   3.380   6.565  19.311 -0.3028 -0.1576  0.0056
 1776TIP3    H129523   3.440   6.491  19.300  2.1588  1.9842 -2.7098
 1776TIP3    H229524   3.424   6.623  19.373 -2.1527 -0.7754  2.0283
 1777TIP3   OH229525   2.078   4.646  18.568  0.2300  0.2163 -0.2484
 1777TIP3    H129526   2.142   4.697  18.518 -0.8971 -1.3070 -3.5324
 1777TIP3    H229527   2.009   4.708  18.588  0.8689  0.9496 -0.2601
 1778TIP3   OH229528   0.192   6.187  19.241  0.0388  0.3703  0.0304
 1778TIP3    H129529   0.224   6.266  19.285 -0.2356  0.2149  0.5267
 1778TIP3    H229530   0.155   6.134  19.312  0.8142 -0.5055 -0.2016
 1779TIP3   OH229531   1.205   6.277  17.370 -0.2272  0.4106 -0.4019
 1779TIP3    H129532   1.169   6.281  17.458  0.7241 -0.2557  0.0401
 1779TIP3    H229533   1.172   6.194  17.335 -1.0207  0.9146 -0.8757
 1780TIP3   OH229534   0.473   1.372  17.845 -0.0758 -0.1187  0.4573
 1780TIP3    H129535   0.420   1.387  17.924  0.0250  0.3171  0.4464
 1780TIP3    H229536   0.525   1.452  17.837 -1.0225  0.4114 -0.7819
 1781TIP3   OH229537   1.420   5.829  18.806 -0.0137 -0.4046 -0.0244
 1781TIP3    H129538   1.465   5.905  18.771 -1.1110  0.2405 -0.0899
 1781TIP3    H229539   1.372   5.863  18.882  1.5557 -1.5711  1.5760
 1782TIP3   OH229540   2.931   5.061  19.107 -0.2388  0.0802 -0.6556
 1782TIP3    H129541   2.843   5.098  19.112 -0.6084 -0.9459  0.7767
 1782TIP3    H229542   2.971   5.080  19.192 -0.5093 -2.8820  0.2202
 1783TIP3   OH229543   0.174   4.900  17.085 -0.3095  0.6750  0.4116
 1783TIP3    H129544   0.216   4.957  17.021 -0.2223  1.1968  0.9323
 1783TIP3    H229545   0.106   4.954  17.124  0.4550  0.7678  1.6548
 1784TIP3   OH229546   7.176   0.534  18.575 -0.0034  0.3989 -0.3199
 1784TIP3    H129547   7.098   0.576  18.611 -0.0698  0.6019 -0.6978
 1784TIP3    H229548   7.249   0.573  18.623 -0.0044  1.4886 -1.1510
 1785TIP3   OH229549   2.699   5.972  18.789  0.3185  0.0754 -0.3718
 1785TIP3    H129550   2.660   6.059  18.776  1.8576  1.0275  0.9849
 1785TIP3    H229551   2.760   5.984  18.862  2.4166 -1.5477 -1.7342
 1786TIP3   OH229552   1.184   0.282  19.286  0.5691  0.3451  0.1214
 1786TIP3    H129553   1.251   0.321  19.341  2.0684 -0.5938 -0.9657
 1786TIP3    H229554   1.156   0.352  19.228  1.1382  0.5499  0.0941
 1787TIP3   OH229555   5.930   1.535  18.128 -0.1561  0.6444 -0.2039
 1787TIP3    H129556   5.909   1.604  18.064 -2.3675  0.4947  0.2681
 1787TIP3    H229557   5.914   1.453  18.081 -1.7449  0.5327  0.4795
 1788TIP3   OH229558   4.443   5.231  18.800 -0.1308 -0.4205 -0.2059
 1788TIP3    H129559   4.443   5.177  18.880 -1.4742 -0.5670 -0.2897
 1788TIP3    H229560   4.465   5.170  18.730 -1.8593 -0.9513 -0.3312
 1789TIP3   OH229561   5.499   1.003  17.966 -0.0230  0.0124  0.0833
 1789TIP3    H129562   5.515   0.922  17.918 -0.3312 -0.1717  0.2920
 1789TIP3    H229563   5.405   1.003  17.984  0.0673  0.1440  0.5725
 1790TIP3   OH229564   7.525   1.201  19.124  0.4308  0.4067  0.5103
 1790TIP3    H129565   7.594   1.169  19.066  0.0312 -0.5505  0.5385
 1790TIP3    H229566   7.544   1.161  19.209  1.0181  1.8085  1.0730
 1791TIP3   OH229567   7.006   3.951  18.433 -0.1212  0.1753  0.0072
 1791TIP3    H129568   6.943   3.933  18.503 -0.5323  4.9172  1.1679
 1791TIP3    H229569   7.088   3.915  18.465 -0.9804 -0.7037  1.3330
 1792TIP3   OH229570   7.111   3.324  18.682  0.3605  0.4686 -0.0912
 1792TIP3    H129571   7.151   3.410  18.673 -0.8959  0.9391 -1.5428
 1792TIP3    H229572   7.029   3.341  18.729 -0.7814  0.4003 -1.9503
 1793TIP3   OH229573   6.715   3.628  17.781 -0.6499 -0.1054 -0.5272
 1793TIP3    H129574   6.780   3.593  17.720 -1.2694 -1.0435 -0.6659
 1793TIP3    H229575   6.709   3.720  17.757 -0.1762 -0.2434 -1.2477
 1794TIP3   OH229576   1.714   4.902  19.468  0.3571  0.7401 -0.0807
 1794TIP3    H129577   1.646   4.921  19.533 -0.1461  0.0377 -0.3888
 1794TIP3    H229578   1.689   4.953  19.391  0.8693  1.4511  0.2096
 1795TIP3   OH229579   5.204   7.043  17.213 -0.1458  0.2771 -0.3930
 1795TIP3    H129580   5.170   7.119  17.165 -1.4482  0.0655  0.1610
 1795TIP3    H229581   5.173   6.968  17.163 -0.2661  0.0832 -0.0289
 1796TIP3   OH229582   3.364   5.720  18.015  0.2725  0.7500  0.6656
 1796TIP3    H129583   3.413   5.776  18.075 -0.0155  1.0088  0.6624
 1796TIP3    H229584   3.336   5.778  17.945  1.5873  0.2301 -0.3385
 1797TIP3   OH229585   1.851   1.970  17.673 -0.4903 -0.5682 -0.1807
 1797TIP3    H129586   1.928   1.914  17.679  0.2695  0.4396 -0.1839
 1797TIP3    H229587   1.859   2.013  17.588 -0.2275  0.6842  0.4517
 1798TIP3   OH229588   2.644   6.278  18.440 -0.5359 -0.3289 -0.1423
 1798TIP3    H129589   2.593   6.238  18.370 -1.7447  0.2222  0.3837
 1798TIP3    H229590   2.587   6.349  18.473  0.7039  0.5087  0.2673
 1799TIP3   OH229591   1.809   2.167  19.323  0.1934  0.6711 -0.4646
 1799TIP3    H129592   1.753   2.125  19.257  0.9183 -0.4611 -0.3887
 1799TIP3    H229593   1.784   2.259  19.321 -1.5205  0.2339 -0.5855
 1800TIP3   OH229594   2.923   4.482  18.408 -0.2414 -0.3592  0.0198
 1800TIP3    H129595   3.007   4.505  18.448 -0.3818 -2.4353  1.7105
 1800TIP3    H229596   2.904   4.554  18.348  3.0071 -0.1055 -0.8660
 1801TIP3   OH229597   0.022   3.080  18.257  0.4169  0.1605  0.1583
 1801TIP3    H129598  -0.025   3.052  18.336  0.3895  1.2960  0.5672
 1801TIP3    H229599  -0.012   3.023  18.188 -0.8896  0.3144  0.6302
 1802TIP3   OH229600   2.231   1.800  17.533  0.3442 -0.2046 -0.5824
 1802TIP3    H129601   2.303   1.746  17.502  1.3554  0.4298  0.5767
 1802TIP3    H229602   2.204   1.850  17.456  0.5950 -1.0278 -1.2199
 1803TIP3   OH229603   5.483   2.780  18.370  0.1472  0.3971 -0.0656
 1803TIP3    H129604   5.438   2.778  18.455 -0.3674  0.5114 -0.3302
 1803TIP3    H229605   5.424   2.734  18.310 -0.1219  1.4728 -0.6511
 1804TIP3   OH229606   0.640   6.596  18.961  0.3817 -0.0827  0.5972
 1804TIP3    H129607   0.553   6.562  18.942  0.7696 -0.4808 -0.6047
 1804TIP3    H229608   0.632   6.637  19.047 -0.8834 -0.4632  0.6834
 1805TIP3   OH229609   5.817   5.324  18.339 -0.3459  0.5637  0.2161
 1805TIP3    H129610   5.854   5.314  18.252 -0.1701 -0.2502  0.3776
 1805TIP3    H229611   5.796   5.417  18.346  3.5071  1.5494  0.8366
 1806TIP3   OH229612   5.445   3.660  17.831 -0.0115 -0.7232 -0.2267
 1806TIP3    H129613   5.532   3.621  17.831 -0.3669 -1.5443 -0.6453
 1806TIP3    H229614   5.437   3.702  17.745 -0.4373 -1.6115 -0.6306
 1807TIP3   OH229615   4.849   3.566  16.725 -0.3248  0.6248  0.5683
 1807TIP3    H129616   4.789   3.631  16.760  0.0352  0.6702  1.1099
 1807TIP3    H229617   4.911   3.617  16.672 -2.3452  0.3321 -2.3634
 1808TIP3   OH229618   1.661   5.966  18.119  0.9673 -0.3058 -0.3520
 1808TIP3    H129619   1.705   5.957  18.034 -0.2936 -0.4638 -1.0143
 1808TIP3    H229620   1.655   6.060  18.134  0.4112 -0.2506 -0.8771
 1809TIP3   OH229621   4.583   3.649  18.160  0.4297  0.1137  0.2979
 1809TIP3    H129622   4.531   3.675  18.236  0.4271 -1.6438  0.9367
 1809TIP3    H229623   4.611   3.732  18.121 -2.9253  1.1722 -0.1664
 1810TIP3   OH229624   5.879   6.170  18.506  0.1572 -0.1482  0.8182
 1810TIP3    H129625   5.847   6.247  18.460  3.1856  1.0355  0.4583
 1810TIP3    H229626   5.824   6.098  18.475 -0.4594  1.2753 -1.5872
 1811TIP3   OH229627   6.857   2.920  19.527 -0.0164  0.6805 -0.2957
 1811TIP3    H129628   6.891   2.963  19.605 -2.3569 -1.2335  2.0100
 1811TIP3    H229629   6.876   2.827  19.541 -3.7591 -0.2248  0.0759
 1812TIP3   OH229630   0.528   0.724  17.482  0.2029  0.0374 -0.0162
 1812TIP3    H129631   0.478   0.684  17.554  1.1351  1.5841  1.5863
 1812TIP3    H229632   0.462   0.757  17.422 -0.7005  0.4871  1.1780
 1813TIP3   OH229633   6.665   0.514  18.577  0.3979 -0.3909  0.3886
 1813TIP3    H129634   6.632   0.505  18.666  0.8227  1.0359  0.7110
 1813TIP3    H229635   6.680   0.424  18.547  1.7161 -0.8680  2.3187
 1814TIP3   OH229636   2.019   0.479  17.461  0.4773  0.4052  0.0520
 1814TIP3    H129637   1.964   0.403  17.440  2.6666 -1.3375  0.2189
 1814TIP3    H229638   2.009   0.537  17.387 -1.8882  0.4009  0.2704
 1815TIP3   OH229639   4.504   3.992  18.206  0.5821  0.3192 -0.4717
 1815TIP3    H129640   4.459   3.954  18.131  0.9356  1.4506 -1.2618
 1815TIP3    H229641   4.593   3.957  18.201 -0.1242 -1.9461  1.1098
 1816TIP3   OH229642   3.234   0.397  17.746 -0.3899 -0.1593 -0.3995
 1816TIP3    H129643   3.318   0.355  17.727 -0.7355 -0.5623 -1.0653
 1816TIP3    H229644   3.242   0.485  17.709  0.0644  0.1142  0.3384
 1817TIP3   OH229645   6.058   3.764  18.548  0.1493  0.0031 -0.1849
 1817TIP3    H129646   6.012   3.680  18.547 -2.4288  1.3383  0.1156
 1817TIP3    H229647   6.051   3.795  18.638  0.7027  0.7675 -0.3922
 1818TIP3   OH229648   4.080   3.373  19.038 -0.5282  0.0483  0.1727
 1818TIP3    H129649   4.165   3.348  19.003 -1.5333 -1.7274 -1.2213
 1818TIP3    H229650   4.025   3.295  19.024 -2.5406  1.3602  0.3740
 1819TIP3   OH229651   6.317   0.114  19.330 -0.5363  0.4932 -0.5748
 1819TIP3    H129652   6.268   0.058  19.269 -1.3129  0.1396  0.3600
 1819TIP3    H229653   6.260   0.190  19.344 -0.7571  0.1615  0.3861
 1820TIP3   OH229654   2.584   0.973  17.557  0.3954  0.0171 -0.2384
 1820TIP3    H129655   2.490   0.966  17.569  0.4154 -0.8264 -0.5738
 1820TIP3    H229656   2.619   0.980  17.646  0.0273  0.2511 -0.1115
 1821TIP3   OH229657   4.785   3.657  17.366 -0.3251  0.0054  0.4796
 1821TIP3    H129658   4.774   3.691  17.277 -1.0136  0.3824  0.6978
 1821TIP3    H229659   4.852   3.713  17.405 -1.3203  1.0315  0.7742
 1822TIP3   OH229660   4.553   0.610  19.511 -0.2006 -0.2427 -0.0418
 1822TIP3    H129661   4.560   0.669  19.586 -0.5837 -0.4822  0.1898
 1822TIP3    H229662   4.586   0.526  19.544 -2.5814 -1.0115  0.6354
 1823TIP3   OH229663   3.205   6.215  19.518 -0.1826  0.4600 -0.4364
 1823TIP3    H129664   3.223   6.246  19.607  0.0436  0.1966 -0.3890
 1823TIP3    H229665   3.192   6.295  19.467 -0.9912  0.6010 -0.0297
 1824TIP3   OH229666   5.830   5.751  16.854 -0.4180  0.1942 -0.1086
 1824TIP3    H129667   5.899   5.739  16.919  0.5922  2.1946 -0.7043
 1824TIP3    H229668   5.877   5.779  16.775 -1.6296 -1.7818 -1.6132
 1825TIP3   OH229669   7.674   7.012  17.768 -0.0718  0.0503  0.4011
 1825TIP3    H129670   7.698   6.932  17.814 -0.8700 -0.3644  0.1059
 1825TIP3    H229671   7.667   7.078  17.836  0.0063 -0.2640  0.7143
 1826TIP3   OH229672   6.839   4.962  19.492  0.2209  0.3135  0.0755
 1826TIP3    H129673   6.815   4.870  19.497 -0.0145  0.4053  0.7820
 1826TIP3    H229674   6.755   5.009  19.487  0.3252  0.5112  0.1471
 1827TIP3   OH229675   3.223   3.490  17.947  1.0913  0.3455 -0.2031
 1827TIP3    H129676   3.155   3.557  17.948  1.5434  0.8100 -0.0431
 1827TIP3    H229677   3.299   3.533  17.908  1.2057 -0.2592 -0.6685
 1828TIP3   OH229678   6.401   6.821  18.263  0.0840  0.1490  0.0085
 1828TIP3    H129679   6.452   6.844  18.185 -1.0277  1.5087 -0.3706
 1828TIP3    H229680   6.311   6.845  18.240 -0.6566 -1.6335  0.8671
 1829TIP3   OH229681   1.544   1.585  19.330  0.7093 -0.4964  0.0036
 1829TIP3    H129682   1.550   1.499  19.371  0.0393  0.0053  1.2145
 1829TIP3    H229683   1.566   1.646  19.400 -1.1062  0.4393 -0.1843
 1830TIP3   OH229684   0.528   2.601  17.827 -0.6072  0.3720 -0.0217
 1830TIP3    H129685   0.440   2.575  17.800 -0.5971  0.9170 -0.6151
 1830TIP3    H229686   0.586   2.545  17.775 -0.5905  1.2793 -1.0104
 1831TIP3   OH229687   3.536   7.660  19.223  0.4588  0.5987  0.8880
 1831TIP3    H129688   3.569   7.602  19.291 -0.7545 -0.8095  0.3124
 1831TIP3    H229689   3.493   7.602  19.160  0.7941  1.9465 -0.6508
 1832TIP3   OH229690   0.140   4.739  19.962 -0.2685 -0.4335 -0.0961
 1832TIP3    H129691   0.224   4.783  19.971  0.7281 -1.9218 -1.4205
 1832TIP3    H229692   0.138   4.674  20.032  0.0118 -0.8520 -0.4688
 1833TIP3   OH229693   3.377   3.254  17.407 -0.2955 -0.1429  0.0361
 1833TIP3    H129694   3.355   3.240  17.315 -1.3358 -0.4827  0.3223
 1833TIP3    H229695   3.471   3.269  17.407 -0.1361 -1.0244 -0.9831
 1834TIP3   OH229696   4.419   6.538  18.520  0.0718 -0.5592 -0.3075
 1834TIP3    H129697   4.384   6.624  18.497 -1.3667 -1.6108 -2.2716
 1834TIP3    H229698   4.510   6.540  18.490  0.4878  0.7043  0.9218
 1835TIP3   OH229699   4.467   3.711  18.432  0.1772  0.4503  0.5451
 1835TIP3    H129700   4.387   3.677  18.472 -0.1327 -0.2788 -0.6471
 1835TIP3    H229701   4.485   3.792  18.480 -2.7462  2.0866 -0.8638
 1836TIP3   OH229702   1.068   7.355  18.409  0.2635  0.3774  0.3869
 1836TIP3    H129703   1.051   7.350  18.315 -0.7205 -0.4531  0.5861
 1836TIP3    H229704   1.158   7.326  18.420 -0.2444 -1.5401 -0.1207
 1837TIP3   OH229705   2.333   4.388  18.458 -0.1861  0.6242 -0.2152
 1837TIP3    H129706   2.273   4.442  18.510 -0.4551  0.1103  0.0173
 1837TIP3    H229707   2.386   4.343  18.523 -0.1870  0.3548 -0.4025
 1838TIP3   OH229708   5.718   7.618  16.918  0.8858 -0.2702 -0.1642
 1838TIP3    H129709   5.640   7.566  16.898  0.8027  0.3627 -1.5967
 1838TIP3    H229710   5.789   7.553  16.925  0.2958 -0.8246  0.9107
 1839TIP3   OH229711   2.909   7.499  18.189 -0.0220  0.1739 -0.7028
 1839TIP3    H129712   2.826   7.526  18.149 -0.7352  1.2097  1.3632
 1839TIP3    H229713   2.890   7.413  18.228 -0.0726  0.3138 -0.4164
 1840TIP3   OH229714   6.376   4.480  18.447  0.2100  0.1269 -0.3214
 1840TIP3    H129715   6.346   4.531  18.522  2.1613 -0.1683  0.7215
 1840TIP3    H229716   6.367   4.540  18.373  0.5933  1.3230  0.5633
 1841TIP3   OH229717   5.811   3.866  16.676  0.4005  0.2426 -0.4227
 1841TIP3    H129718   5.841   3.867  16.767  0.9461 -0.5324 -0.5857
 1841TIP3    H229719   5.880   3.910  16.627  0.6587 -0.3607 -0.6134
 1842TIP3   OH229720   4.576   5.481  17.975 -0.6566  0.1109 -0.3841
 1842TIP3    H129721   4.583   5.575  17.957 -1.4224 -0.0967 -1.9126
 1842TIP3    H229722   4.535   5.444  17.897  0.7816 -1.7132 -0.3381
 1843TIP3   OH229723   6.135   0.269  17.360 -0.1261 -0.0647 -0.2831
 1843TIP3    H129724   6.149   0.303  17.272  0.7202  3.5864  1.1063
 1843TIP3    H229725   6.041   0.249  17.363 -0.1100 -0.5744 -2.0542
 1844TIP3   OH229726   2.880   4.987  18.712 -0.1316 -0.3938  0.4237
 1844TIP3    H129727   2.908   5.070  18.751  0.7830 -0.6596  0.3434
 1844TIP3    H229728   2.955   4.929  18.722 -0.1448 -0.7033 -1.0487
 1845TIP3   OH229729   1.796   5.142  18.844 -0.6650 -0.2937 -0.2179
 1845TIP3    H129730   1.881   5.155  18.803 -0.5580 -0.4626 -0.0514
 1845TIP3    H229731   1.732   5.159  18.774 -0.5130  0.4428 -0.1788
 1846TIP3   OH229732   7.440   0.443  17.374 -0.0927 -0.1996 -0.3329
 1846TIP3    H129733   7.390   0.363  17.356  1.2322 -0.8772 -1.1637
 1846TIP3    H229734   7.376   0.503  17.414 -0.7619 -2.1989  1.8015
 1847TIP3   OH229735   4.238   5.783  17.561  0.2410 -0.0832 -0.2533
 1847TIP3    H129736   4.205   5.713  17.504 -0.5635 -0.0425  0.1432
 1847TIP3    H229737   4.193   5.769  17.644  0.2326  0.7787 -0.1052
 1848TIP3   OH229738   3.190   0.633  18.953  0.5570  0.2055 -0.0306
 1848TIP3    H129739   3.272   0.583  18.964  0.9999  0.7644 -0.7327
 1848TIP3    H229740   3.121   0.567  18.954  0.8559 -0.1688  2.1362
 1849TIP3   OH229741   5.230   6.288  19.696 -0.4505 -0.5010  0.0218
 1849TIP3    H129742   5.181   6.244  19.627  0.8595 -0.5187 -0.9221
 1849TIP3    H229743   5.322   6.279  19.671  0.0214  0.0773  1.4203
 1850TIP3   OH229744   6.386   1.294  19.203 -0.1243  0.1764  0.5745
 1850TIP3    H129745   6.426   1.378  19.177  0.3890  0.1459  1.2337
 1850TIP3    H229746   6.410   1.234  19.133 -1.3797  0.8144 -0.4382
 1851TIP3   OH229747   4.062   2.672  18.387 -0.7009  0.1084  0.2469
 1851TIP3    H129748   3.979   2.625  18.380 -1.5030  1.4265  0.4525
 1851TIP3    H229749   4.075   2.683  18.481  0.0158 -0.5871  0.2360
 1852TIP3   OH229750   1.940   6.634  18.631 -0.0004  0.3937 -0.3482
 1852TIP3    H129751   2.029   6.626  18.595  0.3952 -0.3832  0.7663
 1852TIP3    H229752   1.932   6.561  18.692 -0.8857  1.3003  0.6580
 1853TIP3   OH229753   0.870   6.690  19.095 -0.0845 -0.1037 -0.1618
 1853TIP3    H129754   0.844   6.632  19.023 -0.6627  0.1878 -0.1888
 1853TIP3    H229755   0.804   6.759  19.095  1.9273  1.9410 -1.6765
 1854TIP3   OH229756   5.657   2.754  18.727 -0.2885 -0.1873 -0.4053
 1854TIP3    H129757   5.732   2.777  18.673  1.2682 -0.1010  1.6564
 1854TIP3    H229758   5.588   2.814  18.700  0.8308  0.6905 -1.4026
 1855TIP3   OH229759   3.112   5.421  16.978 -0.5374 -0.4120  0.3286
 1855TIP3    H129760   3.139   5.332  16.954  0.8039  0.9752 -4.2250
 1855TIP3    H229761   3.028   5.433  16.933 -2.6506 -0.3695  3.8735
 1856TIP3   OH229762   7.608   5.021  18.315 -0.1522 -0.2028  0.3310
 1856TIP3    H129763   7.616   5.058  18.228 -1.7746 -1.5277 -0.4275
 1856TIP3    H229764   7.574   5.093  18.369  1.1564  0.7135 -0.0014
 1857TIP3   OH229765   1.384   6.889  17.776  0.0142  0.1186  0.1478
 1857TIP3    H129766   1.339   6.872  17.693 -0.4380  1.7065  0.0294
 1857TIP3    H229767   1.367   6.811  17.829  0.8963 -1.2493 -1.4587
 1858TIP3   OH229768   0.020   5.519  17.312 -0.4810  0.1048 -0.7085
 1858TIP3    H129769   0.013   5.609  17.279  0.7163 -0.3064 -2.2244
 1858TIP3    H229770  -0.055   5.473  17.274 -1.2046  0.4907  0.2291
 1859TIP3   OH229771   7.258   6.627  19.673  0.0462  0.0966  0.0749
 1859TIP3    H129772   7.219   6.579  19.747  0.4854 -1.4505 -0.6547
 1859TIP3    H229773   7.218   6.587  19.595  0.0048  1.3231 -0.5581
 1860TIP3   OH229774   6.468   5.506  18.815 -0.1783  0.1999  0.5166
 1860TIP3    H129775   6.520   5.442  18.767  0.5654  0.5408  0.8670
 1860TIP3    H229776   6.394   5.455  18.849 -0.1061 -0.2731 -0.0174
 1861TIP3   OH229777   3.475   5.847  17.130  0.2834  0.6761 -0.3752
 1861TIP3    H129778   3.400   5.901  17.153 -0.0432 -0.3849  1.2181
 1861TIP3    H229779   3.479   5.780  17.198  3.0873  1.0815 -0.0014
 1862TIP3   OH229780   5.957   3.744  17.814  0.0591 -0.1801 -0.6176
 1862TIP3    H129781   6.041   3.701  17.828  1.0679  1.5781 -0.9558
 1862TIP3    H229782   5.949   3.806  17.886 -0.1154  0.8633 -1.5039
 1863TIP3   OH229783   6.328   2.822  19.135  0.3142  0.5863  0.0085
 1863TIP3    H129784   6.318   2.753  19.069  0.2705 -0.6202  1.2173
 1863TIP3    H229785   6.398   2.877  19.101  1.7434 -1.1890 -0.1205
 1864TIP3   OH229786   3.343   4.773  17.866  0.2277  0.1544 -0.1760
 1864TIP3    H129787   3.339   4.868  17.857 -1.4814  0.2632  1.0811
 1864TIP3    H229788   3.309   4.756  17.954  1.6734 -1.5611  0.1235
 1865TIP3   OH229789   4.975   6.666  17.337  0.2318 -0.0312 -0.8460
 1865TIP3    H129790   4.921   6.588  17.352  0.3407 -0.1047 -0.8335
 1865TIP3    H229791   5.017   6.650  17.253 -0.4741  0.4359 -1.2999
 1866TIP3   OH229792   5.063   5.346  17.339 -0.0856  0.8627 -0.9167
 1866TIP3    H129793   5.024   5.261  17.317  1.9313 -1.1167  2.2654
 1866TIP3    H229794   4.988   5.401  17.364 -1.2810 -1.7984  2.1038
 1867TIP3   OH229795   3.655   4.772  17.332  0.4231 -0.3573  0.2133
 1867TIP3    H129796   3.704   4.710  17.277  1.3195  0.7781 -0.3063
 1867TIP3    H229797   3.596   4.816  17.271 -0.6558 -1.1051  0.6902
 1868TIP3   OH229798   6.897   3.823  19.537 -0.1241 -0.0117  0.0080
 1868TIP3    H129799   6.850   3.741  19.524  0.2041 -0.1642 -0.2153
 1868TIP3    H229800   6.840   3.874  19.596  0.0116 -0.6730  0.7170
 1869TIP3   OH229801   3.516   2.857  18.277 -0.4270 -0.4329  0.0748
 1869TIP3    H129802   3.600   2.900  18.293 -0.8101  0.2976  0.1855
 1869TIP3    H229803   3.526   2.770  18.317 -0.4812  0.4212  2.1146
 1870TIP3   OH229804   5.652   7.373  18.014 -0.1942  0.5189  0.4329
 1870TIP3    H129805   5.672   7.462  18.042  0.9321  0.1613  0.7900
 1870TIP3    H229806   5.643   7.380  17.919  1.5234  0.7397  0.2548
 1871TIP3   OH229807   6.082   4.123  17.727 -0.3731  0.1233  0.3392
 1871TIP3    H129808   6.158   4.087  17.682 -0.6932 -0.2657  0.1004
 1871TIP3    H229809   6.031   4.165  17.659  0.0313  1.1050  0.6306
 1872TIP3   OH229810   1.652   6.560  17.895 -0.2201  0.5355 -0.5468
 1872TIP3    H129811   1.616   6.571  17.982 -0.0182 -1.4398 -0.1550
 1872TIP3    H229812   1.652   6.465  17.881  0.9581  0.7251 -2.1662
 1873TIP3   OH229813   3.185   7.651  17.425 -0.2513 -0.3641 -0.1571
 1873TIP3    H129814   3.224   7.622  17.342 -0.0748  1.3523 -0.7195
 1873TIP3    H229815   3.091   7.653  17.408 -0.1571  0.8977 -0.6687
 1874TIP3   OH229816   6.800   5.040  19.171  0.1699  0.7750  0.5928
 1874TIP3    H129817   6.806   4.946  19.188 -0.8115  0.3696 -1.1366
 1874TIP3    H229818   6.740   5.072  19.239  0.7437  0.2283  1.3799
 1875TIP3   OH229819   0.608   7.276  18.380  0.3692  0.3804  0.4588
 1875TIP3    H129820   0.614   7.248  18.289  0.8959 -2.4066  1.2616
 1875TIP3    H229821   0.648   7.363  18.381  0.4554  0.4430 -1.9202
 1876TIP3   OH229822   2.690   3.534  16.806 -0.7725  0.0149  0.1207
 1876TIP3    H129823   2.700   3.449  16.763 -0.1367  1.7980 -3.6658
 1876TIP3    H229824   2.736   3.595  16.748 -1.6378  3.0384  2.4064
 1877TIP3   OH229825   0.991   1.915  17.176  0.1170 -0.0503  0.0784
 1877TIP3    H129826   0.966   1.942  17.087  0.4042 -0.7884 -0.2389
 1877TIP3    H229827   1.000   1.997  17.224  2.0943  0.5042 -1.1336
 1878TIP3   OH229828   6.726   1.343  17.138 -0.1039 -0.0651  0.0833
 1878TIP3    H129829   6.727   1.275  17.206 -0.6331 -1.4946 -1.2875
 1878TIP3    H229830   6.633   1.359  17.122 -0.0054 -0.5220 -1.0350
 1879TIP3   OH229831   5.768   2.969  16.807  0.4055  0.3671 -0.0891
 1879TIP3    H129832   5.795   3.060  16.790  0.8380  0.1009 -0.8583
 1879TIP3    H229833   5.692   2.978  16.865  0.4018  1.2286 -0.2036
 1880TIP3   OH229834   0.085   1.559  18.280  0.4555  0.2872 -0.0336
 1880TIP3    H129835   0.115   1.649  18.292  1.8936 -0.1266 -0.3652
 1880TIP3    H229836   0.102   1.540  18.188 -0.5116 -0.1002 -0.1410
 1881TIP3   OH229837   1.115   7.442  17.896  0.0121  0.3493 -0.0967
 1881TIP3    H129838   1.204   7.473  17.878  0.3849 -0.9314 -0.5712
 1881TIP3    H229839   1.078   7.425  17.809 -0.3932  0.0650  0.1287
 1882TIP3   OH229840   3.439   2.254  19.129 -0.0952  0.1613  0.4059
 1882TIP3    H129841   3.414   2.307  19.204  0.0982  0.2090  0.4392
 1882TIP3    H229842   3.438   2.315  19.055 -0.9096 -0.0314  0.2575
 1883TIP3   OH229843   1.133   4.049  18.266  0.1057 -0.2073 -0.6456
 1883TIP3    H129844   1.105   4.004  18.346  0.1954 -1.0441 -1.0711
 1883TIP3    H229845   1.226   4.027  18.258  0.3529  0.7048 -0.4493
 1884TIP3   OH229846   3.497   6.487  18.503  0.4051  0.3332  0.4274
 1884TIP3    H129847   3.488   6.462  18.595 -2.9954  2.3995  0.8435
 1884TIP3    H229848   3.426   6.442  18.459  1.7140 -0.2657 -1.1724
 1885TIP3   OH229849   3.793   7.436  19.562  0.2226  0.0352  0.0434
 1885TIP3    H129850   3.880   7.439  19.601  0.3444 -1.3906 -0.0579
 1885TIP3    H229851   3.771   7.343  19.558 -1.3277  0.3611  0.0941
 1886TIP3   OH229852   4.185   2.545  19.302  0.1644 -0.2529  0.2521
 1886TIP3    H129853   4.180   2.581  19.390  0.2025 -0.0695  0.1792
 1886TIP3    H229854   4.279   2.533  19.286  0.1725 -0.0456  0.1396
 1887TIP3   OH229855   5.083   2.042  18.523  0.3078 -0.1513 -0.0688
 1887TIP3    H129856   5.115   1.953  18.540 -0.4507 -0.8094 -1.8378
 1887TIP3    H229857   5.075   2.047  18.428  0.3402  1.8364 -0.0044
 1888TIP3   OH229858   1.472   5.161  19.488  0.3989 -0.0855  0.3423
 1888TIP3    H129859   1.510   5.249  19.485  2.4217 -0.7780  2.6216
 1888TIP3    H229860   1.518   5.113  19.419 -0.0514  0.3791 -0.2943
 1889TIP3   OH229861   6.186   4.069  17.414  0.0444 -0.5419  0.1009
 1889TIP3    H129862   6.150   4.011  17.347 -0.7108 -1.0948  0.9621
 1889TIP3    H229863   6.226   4.010  17.477  1.6203  0.0226 -0.3307
 1890TIP3   OH229864   1.391   6.217  19.137 -0.0091  0.0340  0.3580
 1890TIP3    H129865   1.347   6.302  19.142 -0.8187 -0.3469  0.0865
 1890TIP3    H229866   1.440   6.210  19.218  0.1450  0.8039  0.3366
 1891TIP3   OH229867   5.981   4.434  17.726 -0.4253  0.5941  0.2608
 1891TIP3    H129868   6.043   4.383  17.674 -0.2138  0.6686  0.4400
 1891TIP3    H229869   5.917   4.466  17.662  0.0165  0.9508 -0.0058
 1892TIP3   OH229870   1.946   3.156  17.493  0.1218  0.2720 -0.3563
 1892TIP3    H129871   2.037   3.140  17.516 -0.1528 -1.9933 -0.5951
 1892TIP3    H229872   1.901   3.074  17.514 -1.8921  1.3610 -0.1545
 1893TIP3   OH229873   6.560   5.161  19.074  0.1344  0.3940 -0.2794
 1893TIP3    H129874   6.637   5.118  19.110 -0.6990  0.2878  1.4530
 1893TIP3    H229875   6.577   5.255  19.087  0.3155  0.4145 -0.6449
 1894TIP3   OH229876   0.107   3.219  19.610 -0.8189 -0.4150  0.3911
 1894TIP3    H129877   0.172   3.182  19.549 -0.5188  0.7903 -0.0538
 1894TIP3    H229878   0.138   3.193  19.697  0.5342  0.5029  0.2169
 1895TIP3   OH229879   4.605   5.550  18.454  0.0653 -0.1324 -0.5289
 1895TIP3    H129880   4.663   5.476  18.472  2.0272  1.3136 -0.5536
 1895TIP3    H229881   4.539   5.547  18.523  1.3538 -0.6864  0.7202
 1896TIP3   OH229882   6.818   0.983  16.800 -0.5219  0.0498  0.2131
 1896TIP3    H129883   6.787   0.899  16.767  1.2134 -1.1095  1.3803
 1896TIP3    H229884   6.775   0.993  16.885  0.4688 -0.4503  0.7885
 1897TIP3   OH229885   7.025   3.328  19.752  0.1286  0.5214  0.2367
 1897TIP3    H129886   6.973   3.342  19.673 -0.0340  0.2743  0.2981
 1897TIP3    H229887   7.115   3.341  19.725  0.1657 -0.5829 -0.2320
 1898TIP3   OH229888   1.090   5.153  19.311 -0.4822  0.8087  0.6153
 1898TIP3    H129889   1.161   5.149  19.246 -1.6966  0.1364 -0.7243
 1898TIP3    H229890   1.028   5.216  19.275 -1.8791 -0.6584  0.3491
 1899TIP3   OH229891   2.450   6.852  19.242  0.2055  0.0214  0.1893
 1899TIP3    H129892   2.538   6.841  19.278  0.6113  0.9325 -0.5036
 1899TIP3    H229893   2.460   6.912  19.169 -1.2413  1.3999  1.0553
 1900TIP3   OH229894   2.946   2.389  18.756 -0.1384  0.1928 -0.4346
 1900TIP3    H129895   2.968   2.480  18.734 -2.0703  0.8595  0.1732
 1900TIP3    H229896   2.856   2.394  18.789 -0.0979 -1.8837  0.0929
 1901TIP3   OH229897   4.660   1.454  19.271 -0.1567  0.0589  0.3351
 1901TIP3    H129898   4.613   1.537  19.265 -0.3288  0.0230  1.1331
 1901TIP3    H229899   4.653   1.417  19.183 -0.3295  0.7520  0.0514
 1902TIP3   OH229900   0.857   3.788  16.251  0.1951 -0.1402  0.0359
 1902TIP3    H129901   0.767   3.756  16.248 -0.4416  1.5060  0.1067
 1902TIP3    H229902   0.905   3.732  16.191 -1.0666 -0.5187 -0.6452
 1903TIP3   OH229903   4.770   6.876  18.579 -0.2638 -0.1762  0.6844
 1903TIP3    H129904   4.855   6.836  18.560 -0.0516  0.0242  1.2097
 1903TIP3    H229905   4.790   6.969  18.592 -0.6353 -0.0438  0.3285
 1904TIP3   OH229906   2.760   6.471  17.675 -0.0443 -0.2806 -0.6730
 1904TIP3    H129907   2.720   6.541  17.624 -0.0264 -0.4464 -0.9147
 1904TIP3    H229908   2.705   6.465  17.754  0.3249  0.4261 -0.3483
 1905TIP3   OH229909   5.313   7.261  19.049  0.0778 -0.1020 -0.5634
 1905TIP3    H129910   5.377   7.248  18.979 -0.8806 -0.0252 -1.4901
 1905TIP3    H229911   5.257   7.184  19.045 -0.6793  0.4325 -0.6607
 1906TIP3   OH229912   5.003   3.140  18.105  0.2768  0.1681 -0.1584
 1906TIP3    H129913   4.972   3.092  18.028  0.2234 -0.0815  0.0164
 1906TIP3    H229914   5.021   3.072  18.170 -1.2727  0.4545  0.6315
 1907TIP3   OH229915   2.246   5.412  17.134  0.0116 -0.0921  0.4228
 1907TIP3    H129916   2.242   5.316  17.139 -1.0123 -0.2393 -1.8112
 1907TIP3    H229917   2.215   5.442  17.219 -0.7688 -1.7556  0.7718
 1908TIP3   OH229918   3.928   6.037  18.580  0.0311 -0.2784  0.0310
 1908TIP3    H129919   3.981   5.964  18.545 -0.1925 -0.7786  0.7172
 1908TIP3    H229920   3.993   6.103  18.604  0.1272  0.7080 -2.6542
 1909TIP3   OH229921   5.475   1.845  17.549 -0.0535 -0.8732  0.5703
 1909TIP3    H129922   5.467   1.792  17.470  0.8193 -0.1654 -0.0168
 1909TIP3    H229923   5.515   1.786  17.613  0.5751 -1.0333  0.0374
 1910TIP3   OH229924   3.302   0.115  18.457 -0.5808  0.3169 -0.0981
 1910TIP3    H129925   3.291   0.205  18.427 -0.3523  0.3849  0.0152
 1910TIP3    H229926   3.248   0.062  18.398 -0.8498  0.5451 -0.0547
 1911TIP3   OH229927   7.128   7.287  18.644 -0.3615 -0.1217 -0.3259
 1911TIP3    H129928   7.057   7.340  18.608 -1.2032 -1.1434 -0.2123
 1911TIP3    H229929   7.200   7.349  18.657 -1.1036  0.8627 -0.7811
 1912TIP3   OH229930   2.126   2.013  18.566  0.5243 -0.6313  0.1886
 1912TIP3    H129931   2.197   2.037  18.626  1.6554 -0.4125 -1.2006
 1912TIP3    H229932   2.169   1.964  18.496 -0.8430 -1.2771 -0.2239
 1913TIP3   OH229933   4.061   4.573  17.954  1.0405 -0.4460 -0.0429
 1913TIP3    H129934   3.986   4.572  17.896  0.9950 -0.0604  0.0078
 1913TIP3    H229935   4.060   4.487  17.996 -0.1144  0.0095  0.9015
 1914TIP3   OH229936   5.324   6.002  18.613 -0.7692  0.3463 -0.2137
 1914TIP3    H129937   5.346   6.037  18.527  0.9160 -0.7150 -0.2651
 1914TIP3    H229938   5.233   5.973  18.606 -0.6090  0.1454 -1.6806
 1915TIP3   OH229939   3.869   4.781  18.890  0.1029 -0.4883 -0.0238
 1915TIP3    H129940   3.846   4.748  18.803  0.8275 -0.2773 -0.2988
 1915TIP3    H229941   3.936   4.722  18.922  0.7052  0.1383 -0.1115
 1916TIP3   OH229942   0.827   4.930  18.691  0.0618  0.0959  0.6819
 1916TIP3    H129943   0.858   4.850  18.734  0.6368 -0.9612 -1.5330
 1916TIP3    H229944   0.903   4.961  18.641 -1.0007  0.3118 -0.8632
 1917TIP3   OH229945   3.766   2.054  17.414  0.6457  0.0219  0.3904
 1917TIP3    H129946   3.728   1.966  17.405 -3.4716  1.6456 -0.4713
 1917TIP3    H229947   3.806   2.072  17.329 -1.2366  0.0044 -0.5584
 1918TIP3   OH229948   2.234   5.679  19.570 -0.0392 -0.2810 -0.2645
 1918TIP3    H129949   2.286   5.723  19.503 -1.5053  2.1285  0.0521
 1918TIP3    H229950   2.277   5.702  19.652 -0.3326 -0.1189 -0.1534
 1919TIP3   OH229951   7.472   0.863  18.723  0.1441 -0.4435 -0.4531
 1919TIP3    H129952   7.473   0.944  18.671 -0.9382 -0.2706 -0.2298
 1919TIP3    H229953   7.511   0.888  18.807  2.0264 -0.7577 -1.2023
 1920TIP3   OH229954   0.889   3.921  17.802  0.4820 -0.0819  0.1148
 1920TIP3    H129955   0.822   3.968  17.752 -1.0001 -1.1190  1.0248
 1920TIP3    H229956   0.955   3.987  17.824  0.2129  0.7888 -1.5554
 1921TIP3   OH229957   4.305   0.956  19.127 -0.2589 -0.1653 -0.0799
 1921TIP3    H129958   4.339   0.882  19.179  0.1890 -0.9618 -1.4611
 1921TIP3    H229959   4.227   0.920  19.084  0.4935 -0.1239 -1.4954
 1922TIP3   OH229960   2.328   6.941  17.597 -0.7574 -0.4446 -0.4426
 1922TIP3    H129961   2.250   6.976  17.553  0.6096  0.3421 -2.3547
 1922TIP3    H229962   2.342   6.856  17.556 -0.4263 -0.4432 -0.3299
 1923TIP3   OH229963   1.387   0.573  17.779  0.6693  0.2387 -0.6164
 1923TIP3    H129964   1.410   0.579  17.872 -0.3841  0.6192 -0.3703
 1923TIP3    H229965   1.404   0.481  17.756  0.8037  0.1067 -0.0149
 1924TIP3   OH229966   5.412   4.024  17.291 -0.1850 -0.2058 -0.5706
 1924TIP3    H129967   5.429   4.082  17.217 -0.3326  1.7502  0.8643
 1924TIP3    H229968   5.373   4.081  17.358  1.9489 -1.4064  1.8460
 1925TIP3   OH229969   1.850   4.482  18.566 -0.3773  0.4705  0.3479
 1925TIP3    H129970   1.829   4.446  18.480  1.1449 -1.3629  0.6908
 1925TIP3    H229971   1.934   4.527  18.554 -1.6871  3.0489  0.1997
 1926TIP3   OH229972   7.110   0.077  18.503  0.3209 -0.4760  0.0546
 1926TIP3    H129973   7.064   0.059  18.585  0.7006 -0.8078  0.1991
 1926TIP3    H229974   7.101   0.172  18.491  1.1408 -0.2501  1.0255
 1927TIP3   OH229975   4.478   5.608  17.592  0.1504 -0.0818  0.0996
 1927TIP3    H129976   4.399   5.662  17.599 -0.4287 -1.0306  1.5670
 1927TIP3    H229977   4.527   5.627  17.672  0.6616 -0.6064 -0.0794
 1928TIP3   OH229978   0.214   4.264  17.522 -0.4731 -0.3493  0.2323
 1928TIP3    H129979   0.157   4.249  17.597 -0.5592  0.9477  0.4430
 1928TIP3    H229980   0.203   4.357  17.502  0.7241 -0.3335 -0.4206
 1929TIP3   OH229981   6.573   0.990  17.937  0.0185 -0.4129 -0.7472
 1929TIP3    H129982   6.509   1.004  18.006  0.1370  0.5393 -0.8170
 1929TIP3    H229983   6.629   0.920  17.970  0.1163  0.0722  0.1575
 1930TIP3   OH229984   2.640   2.683  18.026  0.3272  0.6067 -0.2797
 1930TIP3    H129985   2.689   2.671  17.945  3.2835 -0.6009  1.4859
 1930TIP3    H229986   2.579   2.610  18.029 -0.4305  1.1509 -1.7655
 1931TIP3   OH229987   7.184   4.883  17.826  0.0838  0.1652  0.1022
 1931TIP3    H129988   7.276   4.862  17.813 -0.1683  0.2862 -2.4225
 1931TIP3    H229989   7.151   4.812  17.880  1.4579 -0.3850  0.2591
 1932TIP3   OH229990   5.052   6.458  19.023 -0.0668 -0.1995  0.2781
 1932TIP3    H129991   5.035   6.497  18.937 -2.0478 -0.5166  0.4780
 1932TIP3    H229992   5.146   6.441  19.024  0.1124  0.5115 -1.5261
 1933TIP3   OH229993   1.291   0.049  18.664  0.6696 -0.0341 -0.3555
 1933TIP3    H129994   1.322   0.129  18.623 -1.2461  0.8746 -0.1189
 1933TIP3    H229995   1.307   0.061  18.758  0.9547 -0.2262 -0.3735
 1934TIP3   OH229996   5.308   0.325  19.301 -0.0028  0.5602  0.4346
 1934TIP3    H129997   5.239   0.388  19.279 -0.8106  0.3386  2.1533
 1934TIP3    H229998   5.369   0.375  19.355 -0.2920  0.0692  1.2360
 1935TIP3   OH229999   7.672   0.602  16.794 -0.6227 -0.3767 -0.2026
 1935TIP3    H130000   7.634   0.607  16.706 -0.3788  1.0484 -0.2378
 1935TIP3    H230001   7.746   0.542  16.784 -0.6933 -0.3529 -0.9366
 1936TIP3   OH230002   5.896   3.811  19.166  0.3908  0.1612 -0.5296
 1936TIP3    H130003   5.895   3.763  19.249 -2.3789  1.5082  0.3356
 1936TIP3    H230004   5.914   3.745  19.100  0.5487 -1.3392  0.9612
 1937TIP3   OH230005   2.357   2.514  17.659 -0.5188  0.3518  0.4319
 1937TIP3    H130006   2.449   2.485  17.658 -0.5473  0.2769  0.0494
 1937TIP3    H230007   2.330   2.511  17.568 -0.1877  2.7384  0.1903
 1938TIP3   OH230008   6.277   3.110  19.672 -1.1190 -0.8556 -0.0197
 1938TIP3    H130009   6.226   3.179  19.629  3.5237  3.2479  0.1655
 1938TIP3    H230010   6.278   3.038  19.609 -4.9825 -0.3619 -0.9171
 1939TIP3   OH230011   6.248   3.813  17.139 -1.0606  0.3620 -0.0233
 1939TIP3    H130012   6.219   3.722  17.134  0.1456  0.0131 -1.2694
 1939TIP3    H230013   6.176   3.859  17.183 -1.8365 -1.1195  0.3040
 1940TIP3   OH230014   2.325   1.758  17.211 -0.0115  0.3939  0.6894
 1940TIP3    H130015   2.377   1.808  17.149 -0.4110 -1.3640 -1.1642
 1940TIP3    H230016   2.277   1.824  17.261  1.5327  1.9158  0.2569
 1941TIP3   OH230017   6.217   0.071  18.200  0.4038 -0.0535 -0.1843
 1941TIP3    H130018   6.290   0.115  18.243 -0.1918  0.3256  0.4501
 1941TIP3    H230019   6.180   0.015  18.268 -1.4019  1.5707  0.2529
 1942TIP3   OH230020   0.330   6.410  17.134 -0.0427  0.5683 -0.0968
 1942TIP3    H130021   0.297   6.459  17.059  1.0563  0.6902 -0.5230
 1942TIP3    H230022   0.418   6.446  17.150  1.6705 -2.4864 -1.6389
 1943TIP3   OH230023   3.097   6.948  19.118 -0.3387 -0.9534 -0.2551
 1943TIP3    H130024   3.038   6.896  19.064  0.5810 -1.2165 -1.0460
 1943TIP3    H230025   3.157   6.884  19.157 -1.3120 -0.8264  1.5389
 1944TIP3   OH230026   1.281   3.086  18.737 -0.0788 -0.0668  0.2799
 1944TIP3    H130027   1.304   3.129  18.820  0.1422 -1.1527  0.7939
 1944TIP3    H230028   1.320   2.999  18.744 -2.1219 -1.0495  0.0594
 1945TIP3   OH230029   6.670   2.056  18.708 -0.0920  0.2831  0.6048
 1945TIP3    H130030   6.608   2.102  18.652  0.9760  1.6975  0.5506
 1945TIP3    H230031   6.668   1.966  18.677  0.7696  1.0953 -1.9914
 1946TIP3   OH230032   3.719   0.764  17.893 -0.6438  0.3731 -0.6920
 1946TIP3    H130033   3.645   0.747  17.951 -0.7196 -3.3064 -1.5927
 1946TIP3    H230034   3.785   0.699  17.918  0.0163 -0.1547 -3.4109
 1947TIP3   OH230035   4.883   4.325  18.737  0.4043 -0.5002  0.4416
 1947TIP3    H130036   4.962   4.296  18.783 -0.7048 -2.3387  1.3063
 1947TIP3    H230037   4.849   4.395  18.791  0.7650 -0.5579  0.7538
 1948TIP3   OH230038   5.680   3.502  17.925  0.3168  0.2048 -0.2531
 1948TIP3    H130039   5.633   3.435  17.975  0.9426  0.4304  0.6635
 1948TIP3    H230040   5.741   3.453  17.871  1.1642  0.0464  0.8297
 1949TIP3   OH230041   3.597   2.198  19.463  0.1693  0.3755 -0.5232
 1949TIP3    H130042   3.656   2.139  19.511  0.0509 -0.7265 -1.6888
 1949TIP3    H230043   3.601   2.280  19.512  2.1380  0.1247 -0.1711
 1950TIP3   OH230044   7.490   3.724  16.945  0.1953 -0.1502  0.4886
 1950TIP3    H130045   7.424   3.731  17.015 -0.1709  2.1689 -0.0077
 1950TIP3    H230046   7.544   3.803  16.956  1.4548 -0.8367 -0.5670
 1951TIP3   OH230047   6.803   4.550  18.697 -0.5187  0.3622  0.3803
 1951TIP3    H130048   6.819   4.537  18.791 -1.9353 -2.1143  0.3498
 1951TIP3    H230049   6.866   4.492  18.654  0.8628  2.2768 -0.3037
 1952TIP3   OH230050   4.638   5.845  17.056 -0.4689 -0.3416 -0.0175
 1952TIP3    H130051   4.713   5.892  17.093  0.0932 -1.0348 -0.2585
 1952TIP3    H230052   4.595   5.909  17.000 -0.4056  0.2420  0.5825
 1953TIP3   OH230053   7.023   0.171  17.656 -0.1887 -0.3975  0.2111
 1953TIP3    H130054   7.015   0.251  17.708  2.8642  0.9644 -1.1564
 1953TIP3    H230055   7.064   0.108  17.715 -2.2852 -0.9406  1.1853
 1954TIP3   OH230056   5.509   3.204  19.476 -0.0478 -0.3141 -0.3111
 1954TIP3    H130057   5.415   3.209  19.461 -0.0567  1.1465  0.0766
 1954TIP3    H230058   5.527   3.272  19.541  1.0729 -1.5372  0.7127
 1955TIP3   OH230059   5.087   3.703  17.529 -0.5780  0.4739  0.0530
 1955TIP3    H130060   5.099   3.755  17.449  1.7629  2.8597  1.7731
 1955TIP3    H230061   5.116   3.615  17.505 -0.2126  1.0440 -1.7799
 1956TIP3   OH230062   5.164   5.175  18.019  0.3035 -0.0919  0.4216
 1956TIP3    H130063   5.117   5.162  18.101 -0.2810 -0.3379  0.0554
 1956TIP3    H230064   5.172   5.270  18.011 -1.3167  0.0310 -0.1509
 1957TIP3   OH230065   7.577   2.326  18.287  0.2408 -0.5097  0.0015
 1957TIP3    H130066   7.610   2.370  18.365  0.0529  2.2855 -1.3676
 1957TIP3    H230067   7.492   2.291  18.313  0.8090 -0.8891  1.4094
 1958TIP3   OH230068   6.078   2.047  18.817  0.1261  0.2602  0.1126
 1958TIP3    H130069   5.993   2.004  18.830  0.9846 -1.1819  1.1235
 1958TIP3    H230070   6.056   2.141  18.817 -1.7394 -0.0638 -1.8634
 1959TIP3   OH230071   3.499   3.114  17.023  0.1715  0.7420 -0.7636
 1959TIP3    H130072   3.425   3.151  17.070 -0.2360  0.7731 -1.4076
 1959TIP3    H230073   3.521   3.181  16.958 -0.9638 -0.3461 -2.3616
 1960TIP3   OH230074   4.313   1.796  16.648 -0.6474 -0.2377  0.0568
 1960TIP3    H130075   4.334   1.751  16.730  1.2251  2.8956  1.5073
 1960TIP3    H230076   4.395   1.797  16.599 -1.3182 -0.5890 -1.1070
 1961TIP3   OH230077   5.627   3.700  18.759 -0.6509  0.3025  0.4694
 1961TIP3    H130078   5.551   3.692  18.816 -0.1212 -0.5363  1.0823
 1961TIP3    H230079   5.672   3.616  18.767 -0.3155  0.3397 -0.8401
 1962TIP3   OH230080   6.858   6.784  18.917 -0.2474 -0.7800 -0.5739
 1962TIP3    H130081   6.787   6.756  18.975 -0.1600 -1.5638 -0.8306
 1962TIP3    H230082   6.843   6.877  18.903 -1.6619 -1.0805 -1.2156
 1963TIP3   OH230083   1.894   7.357  17.380  0.5619 -0.5643  0.4747
 1963TIP3    H130084   1.817   7.327  17.428 -1.1454 -0.4895 -2.0447
 1963TIP3    H230085   1.925   7.280  17.333  0.0071  0.1026 -1.0535
 1964TIP3   OH230086   5.636   0.434  19.230  0.2026  0.6336  0.3198
 1964TIP3    H130087   5.707   0.415  19.168 -0.1400 -0.9419  0.3688
 1964TIP3    H230088   5.669   0.506  19.283  1.7990 -0.1013  0.3747
 1965TIP3   OH230089   5.597   0.625  18.641 -0.3130  0.3717 -0.2589
 1965TIP3    H130090   5.670   0.686  18.638  0.4948 -0.5424  0.1511
 1965TIP3    H230091   5.605   0.582  18.727 -0.8379 -0.3193 -0.5442
 1966TIP3   OH230092   2.384   5.842  19.405  0.4994 -0.3800  0.3134
 1966TIP3    H130093   2.337   5.918  19.441  0.5351 -0.5214  0.6633
 1966TIP3    H230094   2.466   5.879  19.372  0.4911 -0.2535  0.4285
 1967TIP3   OH230095   3.901   6.764  18.479  0.2472  0.1628 -0.0616
 1967TIP3    H130096   3.948   6.807  18.408 -1.4007 -1.7511 -2.5213
 1967TIP3    H230097   3.964   6.702  18.515  0.6107 -0.1072 -1.1111
 1968TIP3   OH230098   1.602   0.896  19.562 -0.3127 -0.1649 -0.0224
 1968TIP3    H130099   1.542   0.826  19.586  0.0668 -1.2918 -2.1441
 1968TIP3    H230100   1.678   0.852  19.524  0.5173  1.3479 -0.2235
 1969TIP3   OH230101   2.515   5.304  18.858 -0.0901 -0.1374 -0.6141
 1969TIP3    H130102   2.591   5.353  18.890 -0.7783 -0.1142  1.1005
 1969TIP3    H230103   2.546   5.214  18.851 -0.2968 -0.4782  1.8148
 1970TIP3   OH230104   7.657   1.244  17.159  0.5408  0.2828  0.5427
 1970TIP3    H130105   7.655   1.213  17.068 -0.1036 -1.6133  1.1568
 1970TIP3    H230106   7.644   1.165  17.211 -0.5172  1.5335  2.2577
 1971TIP3   OH230107   7.113   0.834  18.542 -0.6745 -0.0718  0.0845
 1971TIP3    H130108   7.078   0.800  18.625 -1.4300  0.0637 -0.1697
 1971TIP3    H230109   7.083   0.925  18.539 -1.4137 -0.3302 -0.7480
 1972TIP3   OH230110   7.234   7.542  19.298 -0.1674 -0.5663 -0.1915
 1972TIP3    H130111   7.168   7.558  19.230 -0.2986  0.6475  0.2020
 1972TIP3    H230112   7.311   7.513  19.249 -1.5563 -4.1493 -0.5239
 1973TIP3   OH230113   1.286   5.649  19.100 -0.3099 -0.4523 -0.0264
 1973TIP3    H130114   1.249   5.661  19.012 -0.5536 -0.3394  0.0921
 1973TIP3    H230115   1.263   5.728  19.147 -0.7436 -0.7932  0.3399
 1974TIP3   OH230116   3.483   5.680  16.848 -0.2069  0.2261 -0.3867
 1974TIP3    H130117   3.462   5.594  16.812  0.8687  0.0071 -0.5383
 1974TIP3    H230118   3.414   5.698  16.912 -0.3167 -0.8473 -0.1988
 1975TIP3   OH230119   7.103   1.493  18.964  0.2027 -0.0106 -0.1551
 1975TIP3    H130120   7.095   1.516  18.871 -0.5536 -1.7964 -0.5813
 1975TIP3    H230121   7.178   1.432  18.966 -0.4231 -0.7847  0.2186
 1976TIP3   OH230122   6.769   2.628  17.836 -0.2979  0.5184  0.1114
 1976TIP3    H130123   6.855   2.606  17.801  0.2369  1.3603  0.8418
 1976TIP3    H230124   6.788   2.687  17.910 -1.5122  0.9339  0.1068
 1977TIP3   OH230125   2.721   0.722  19.091  0.2912 -0.0819 -0.3375
 1977TIP3    H130126   2.627   0.736  19.100 -0.1578 -1.0318 -2.7658
 1977TIP3    H230127   2.729   0.656  19.023  2.7478  0.5273 -0.7419
 1978TIP3   OH230128   3.263   0.938  18.416 -0.1534 -0.4074 -0.0414
 1978TIP3    H130129   3.336   0.879  18.399  0.1551 -0.3876  1.1328
 1978TIP3    H230130   3.187   0.881  18.422 -0.0405 -0.5603 -0.0692
 1979TIP3   OH230131   6.753   2.725  19.262  0.3713  0.3833  0.7684
 1979TIP3    H130132   6.811   2.700  19.334  1.3478  0.9661  0.2077
 1979TIP3    H230133   6.683   2.774  19.305  0.7514  0.4175  1.3736
 1980TIP3   OH230134   0.439   0.587  17.708  0.0593  0.2702 -0.5093
 1980TIP3    H130135   0.404   0.662  17.757  3.0602  1.2686  0.3925
 1980TIP3    H230136   0.422   0.511  17.764  0.2933  0.8890  0.4305
 1981TIP3   OH230137   2.288   3.162  18.072 -0.1358 -0.2245 -0.4962
 1981TIP3    H130138   2.250   3.206  18.147 -0.2095  2.2566 -1.8890
 1981TIP3    H230139   2.375   3.135  18.102  0.3314  1.8321  0.1854
 1982TIP3   OH230140   4.577   1.600  18.863  0.2844 -0.0957  0.2757
 1982TIP3    H130141   4.585   1.605  18.768  0.9989  1.2945  0.3842
 1982TIP3    H230142   4.484   1.591  18.879 -0.0078  1.1734 -0.5358
 1983TIP3   OH230143   6.133   1.407  19.650 -0.0626 -0.3643 -0.2183
 1983TIP3    H130144   6.157   1.317  19.671  1.6539 -0.4230 -2.0995
 1983TIP3    H230145   6.173   1.423  19.565  0.4757  2.4883  0.4779
 1984TIP3   OH230146   6.244   6.833  17.694 -0.0179 -0.4834  0.1026
 1984TIP3    H130147   6.272   6.922  17.717 -3.5295  1.0083 -0.6561
 1984TIP3    H230148   6.262   6.826  17.600  0.4866 -0.6886  0.2127
 1985TIP3   OH230149   6.501   3.816  18.796  0.3955 -0.3701  0.5952
 1985TIP3    H130150   6.541   3.874  18.860  0.9261 -2.3080  2.1111
 1985TIP3    H230151   6.551   3.735  18.801  0.1770 -0.7726 -2.0002
 1986TIP3   OH230152   2.798   2.480  19.348 -0.1126 -0.4247  0.7468
 1986TIP3    H130153   2.874   2.424  19.333  2.0887  2.3957  0.4290
 1986TIP3    H230154   2.777   2.517  19.263 -1.0258 -0.2037  1.0546
 1987TIP3   OH230155   7.054   7.648  19.121 -0.4613 -0.5363 -0.0624
 1987TIP3    H130156   7.063   7.611  19.033 -1.4346 -0.0240 -0.3904
 1987TIP3    H230157   7.055   7.743  19.107  0.2658 -0.4462  0.5791
 1988TIP3   OH230158   6.359   1.939  18.380 -0.1818 -0.5066  0.3626
 1988TIP3    H130159   6.377   1.891  18.300  0.2854 -0.9103  0.7005
 1988TIP3    H230160   6.355   1.872  18.448  2.4806  0.0378  1.1904
 1989TIP3   OH230161   1.311   2.490  17.757  0.2669  0.3810  0.2432
 1989TIP3    H130162   1.332   2.442  17.677 -2.1574 -0.4376  0.0229
 1989TIP3    H230163   1.283   2.576  17.726 -2.2750 -0.4514 -0.0547
 1990TIP3   OH230164   7.281   5.206  17.097 -0.1874  0.1321 -0.1748
 1990TIP3    H130165   7.328   5.168  17.023  1.0749  0.2109  0.5537
 1990TIP3    H230166   7.250   5.291  17.065  1.3828  0.6960 -0.2686
 1991TIP3   OH230167   5.785   1.588  17.515  0.2701 -0.3597  0.4859
 1991TIP3    H130168   5.877   1.563  17.509  0.0698 -1.3519  1.3370
 1991TIP3    H230169   5.775   1.658  17.450  1.7736  0.2335  0.8421
 1992TIP3   OH230170   1.068   0.954  19.111 -0.1288 -0.0411  0.0584
 1992TIP3    H130171   1.068   0.868  19.153  1.7256  0.4950  1.2904
 1992TIP3    H230172   1.141   1.001  19.153 -2.1165  2.7436  0.6822
 1993TIP3   OH230173   6.328   7.287  17.954 -0.2326  0.2624 -0.6370
 1993TIP3    H130174   6.302   7.379  17.950 -0.5081  0.3990  2.1121
 1993TIP3    H230175   6.392   7.284  18.025 -0.1396 -1.6427 -0.7618
 1994TIP3   OH230176   6.853   3.809  19.017  0.0843  0.5125  0.2158
 1994TIP3    H130177   6.897   3.856  19.088 -0.7962  0.6780  0.6587
 1994TIP3    H230178   6.925   3.766  18.970  0.6589 -0.0975  1.5574
 1995TIP3   OH230179   3.501   2.464  18.929  0.3233  0.0791 -0.0164
 1995TIP3    H130180   3.427   2.522  18.948  1.2056  0.6762  1.8413
 1995TIP3    H230181   3.577   2.508  18.967  1.5640 -0.8179 -1.3228
 1996TIP3   OH230182   4.585   3.272  17.755  0.0207  0.2363 -0.6742
 1996TIP3    H130183   4.582   3.295  17.847 -0.0059 -2.5141  0.1169
 1996TIP3    H230184   4.658   3.323  17.720  0.5516  0.7377  1.0691
 1997TIP3   OH230185   6.139   5.709  19.462  0.6022  0.2807 -0.2138
 1997TIP3    H130186   6.213   5.675  19.413  0.6902  0.8083 -0.4564
 1997TIP3    H230187   6.062   5.680  19.414  0.6627  0.1184 -0.2144
 1998TIP3   OH230188   0.654   0.525  18.424 -0.3255 -0.3230 -0.1945
 1998TIP3    H130189   0.632   0.507  18.332 -0.3263  1.1017 -0.4977
 1998TIP3    H230190   0.750   0.527  18.425 -0.2723 -1.6544  0.1365
 1999TIP3   OH230191   4.737   5.470  16.844  0.0403 -0.1453 -0.2113
 1999TIP3    H130192   4.674   5.539  16.822 -0.2755  0.2917  1.9072
 1999TIP3    H230193   4.804   5.513  16.897  1.2004 -0.9829 -0.9472
 2000TIP3   OH230194   2.216   7.353  17.907 -0.0249  0.1145 -0.0928
 2000TIP3    H130195   2.267   7.359  17.827 -1.3638 -1.7640 -1.1538
 2000TIP3    H230196   2.144   7.415  17.895  0.4543  0.7371  0.2088
 2001TIP3   OH230197   1.121   7.092  18.101 -0.2908  0.3007  0.2240
 2001TIP3    H130198   1.188   7.064  18.040  0.3332 -0.4547  1.2168
 2001TIP3    H230199   1.138   7.041  18.181 -2.1219 -0.0234  0.4604
 2002TIP3   OH230200   6.147   2.805  17.286  0.0925  0.1087 -0.4486
 2002TIP3    H130201   6.083   2.783  17.218  1.7326 -0.4544 -1.8609
 2002TIP3    H230202   6.195   2.880  17.250 -0.2083  1.0104  0.9249
 2003TIP3   OH230203   6.468   6.561  18.902 -0.5650  0.1221 -0.3223
 2003TIP3    H130204   6.507   6.591  18.984  1.1454 -1.6348 -0.4055
 2003TIP3    H230205   6.423   6.479  18.925  0.9791 -1.0636 -1.2701
 2004TIP3   OH230206   6.160   3.853  19.482  0.4693  0.0045  0.1185
 2004TIP3    H130207   6.227   3.812  19.536  0.4235 -1.5536 -0.9527
 2004TIP3    H230208   6.084   3.796  19.489  0.0992  0.3680 -0.7089
 2005TIP3   OH230209   1.391   3.730  18.447 -0.6335  0.1221  0.1843
 2005TIP3    H130210   1.468   3.700  18.495 -0.3080 -2.3112 -1.6358
 2005TIP3    H230211   1.317   3.688  18.491 -0.4072 -1.4708 -0.8708
 2006TIP3   OH230212   5.262   3.201  17.992  0.0451 -0.1665 -0.0898
 2006TIP3    H130213   5.275   3.281  18.044 -0.6221 -0.1691  0.0837
 2006TIP3    H230214   5.169   3.181  18.001 -0.3478  0.4574 -2.1708
 2007TIP3   OH230215   5.174   3.005  19.186 -0.4670  0.1937 -0.3262
 2007TIP3    H130216   5.079   3.010  19.191 -0.5636 -0.5660 -1.1889
 2007TIP3    H230217   5.204   3.041  19.270 -1.5504 -0.6840  0.4699
 2008TIP3   OH230218   6.223   0.947  17.939  0.2029 -0.0250 -0.6978
 2008TIP3    H130219   6.226   0.979  18.029 -0.3293 -1.4992 -0.1230
 2008TIP3    H230220   6.303   0.982  17.899 -1.0016  3.1744 -0.6061
 2009TIP3   OH230221   3.342   1.748  18.871 -0.2126  0.6494 -0.4501
 2009TIP3    H130222   3.367   1.742  18.779  1.3017 -0.1441 -0.0257
 2009TIP3    H230223   3.246   1.738  18.871 -0.2066  0.3752 -1.9047
 2010TIP3   OH230224   6.190   6.275  17.917  0.7445  0.0518  0.4846
 2010TIP3    H130225   6.198   6.333  17.841 -0.9104  0.9025  0.9064
 2010TIP3    H230226   6.174   6.189  17.879  0.9264  0.2827 -0.1430
 2011TIP3   OH230227   5.691   7.653  18.390  0.3165 -0.1326  0.1665
 2011TIP3    H130228   5.615   7.601  18.415 -1.1913  0.6589 -2.3672
 2011TIP3    H230229   5.751   7.646  18.464 -1.3312 -2.4840  1.3917
 2012TIP3   OH230230   1.132   4.394  17.056 -0.5169 -0.2752 -0.1416
 2012TIP3    H130231   1.080   4.346  16.991 -0.2611 -0.9406  0.1301
 2012TIP3    H230232   1.125   4.341  17.135  0.5144 -0.3457 -0.0854
 2013TIP3   OH230233   1.052   4.314  17.295  0.5524  0.6177  0.7255
 2013TIP3    H130234   0.958   4.331  17.307  0.6094  1.4728  0.0851
 2013TIP3    H230235   1.065   4.226  17.329 -0.5504  0.3584  0.5214
 2014TIP3   OH230236   0.918   4.728  16.846  0.0412 -0.6441 -0.2809
 2014TIP3    H130237   0.914   4.636  16.870  0.7431  0.0612  3.0948
 2014TIP3    H230238   0.833   4.764  16.874  0.0395 -0.1247 -0.9158
 2015TIP3   OH230239   7.404   5.143  16.613 -0.0672  0.0074 -0.0538
 2015TIP3    H130240   7.384   5.234  16.592 -0.2345 -0.4533 -2.0749
 2015TIP3    H230241   7.319   5.098  16.609 -0.3911  0.1036  3.2642
 2016TIP3   OH230242   4.477   1.507  18.363 -0.0438 -0.0910  0.0122
 2016TIP3    H130243   4.493   1.534  18.273 -0.4750  1.0961  0.2720
 2016TIP3    H230244   4.490   1.412  18.363  0.5087 -0.0244 -1.1682
 2017TIP3   OH230245   2.899   2.772  18.894 -0.3316 -0.0230  0.2574
 2017TIP3    H130246   2.918   2.742  18.805 -1.2523  0.9289 -0.2778
 2017TIP3    H230247   2.983   2.770  18.938  0.7644  2.3885 -1.5092
 2018TIP3   OH230248   5.954   6.318  18.100 -0.1519  0.0325  0.0435
 2018TIP3    H130249   6.035   6.323  18.049  0.0532 -0.1433  0.3441
 2018TIP3    H230250   5.901   6.252  18.056 -0.1759  0.2254 -0.2177
 2019TIP3   OH230251   6.271   7.244  17.615 -0.2376 -0.0799 -0.0209
 2019TIP3    H130252   6.332   7.301  17.568  1.8744 -1.3159  1.0195
 2019TIP3    H230253   6.322   7.165  17.632 -2.3181 -1.3542  0.5829
 2020TIP3   OH230254   0.157   3.822  17.044 -0.4560 -0.0713  0.5955
 2020TIP3    H130255   0.073   3.848  17.008  0.4704 -0.2211 -1.8600
 2020TIP3    H230256   0.200   3.774  16.973  2.1093  0.8641  1.3897
 2021TIP3   OH230257   2.831   1.505  17.597 -0.2113 -0.1813  0.4092
 2021TIP3    H130258   2.849   1.411  17.591 -1.4490 -0.3441 -1.9490
 2021TIP3    H230259   2.906   1.546  17.554  1.0518  0.0871  2.7033
 2022TIP3   OH230260   5.949   5.961  18.098 -0.0051 -0.3947  0.0185
 2022TIP3    H130261   6.018   5.985  18.160  0.8262 -2.4263 -0.0429
 2022TIP3    H230262   5.874   6.015  18.123  0.7212 -0.2025  1.9545
 2023TIP3   OH230263   5.389   0.485  18.499  0.6400 -0.2548 -0.2629
 2023TIP3    H130264   5.441   0.538  18.559  0.4345  1.1531 -1.2892
 2023TIP3    H230265   5.298   0.498  18.528  0.4627  1.0542 -1.2912
 2024TIP3   OH230266   5.938   4.611  19.346  0.2333  0.3214 -0.2404
 2024TIP3    H130267   6.030   4.613  19.320  1.5171 -0.8152  3.4773
 2024TIP3    H230268   5.910   4.702  19.343  2.2433  1.0432  0.6785
 2025TIP3   OH230269   1.670   1.101  18.475  0.2439 -0.2295 -0.1135
 2025TIP3    H130270   1.583   1.107  18.513 -0.3627  0.8099 -1.6068
 2025TIP3    H230271   1.714   1.182  18.502 -0.5435  1.0327 -2.3404
 2026TIP3   OH230272   1.185   4.339  19.219 -0.6737  0.2401 -0.1021
 2026TIP3    H130273   1.091   4.333  19.206 -0.9332  1.3146  1.1369
 2026TIP3    H230274   1.202   4.430  19.241  0.2548 -0.4549  2.4401
 2027TIP3   OH230275   5.812   7.101  17.154 -0.3354 -0.4440  0.2417
 2027TIP3    H130276   5.805   7.006  17.162 -1.0995 -0.2467  2.6015
 2027TIP3    H230277   5.894   7.124  17.197 -0.1589 -0.0222 -0.3055
 2028TIP3   OH230278   4.870   1.096  18.106  0.7070  0.0271  0.3498
 2028TIP3    H130279   4.862   1.020  18.049  0.1640  1.0914 -1.0361
 2028TIP3    H230280   4.949   1.140  18.076  0.8735  0.1624  0.9714
 2029TIP3   OH230281   7.116   2.702  18.348 -0.2792  0.0226  0.2055
 2029TIP3    H130282   7.041   2.674  18.400 -1.4813  1.1523 -0.8488
 2029TIP3    H230283   7.128   2.794  18.369 -1.2512  0.7154 -1.9355
 2030TIP3   OH230284   6.890   5.325  17.889  0.7563  0.1964 -0.3742
 2030TIP3    H130285   6.924   5.336  17.801  1.0542 -0.8220 -0.4004
 2030TIP3    H230286   6.967   5.305  17.942  0.4451 -0.3302 -0.1055
 2031TIP3   OH230287   1.677   5.099  18.594  0.0578 -0.0822 -0.0824
 2031TIP3    H130288   1.629   5.096  18.511 -1.3974  0.9527  0.6966
 2031TIP3    H230289   1.653   5.018  18.639 -0.0225 -0.1176 -0.1875
 2032TIP3   OH230290   2.108   0.142  17.156 -0.4488 -0.4369 -0.0639
 2032TIP3    H130291   2.198   0.174  17.146 -0.8634  0.4855 -1.0344
 2032TIP3    H230292   2.089   0.100  17.072 -0.5490 -1.6478  0.5438
 2033TIP3   OH230293   4.976   2.068  17.420 -0.7141 -0.9466 -0.0942
 2033TIP3    H130294   4.976   2.144  17.361  1.1563  0.0738  1.1300
 2033TIP3    H230295   4.991   1.993  17.363  2.9618  0.1787 -0.8408
 2034TIP3   OH230296   1.610   5.790  19.136  0.2958 -0.2039 -0.7128
 2034TIP3    H130297   1.517   5.810  19.142 -0.1314 -1.5810 -2.2113
 2034TIP3    H230298   1.616   5.696  19.148  1.5989 -0.0428  0.1241
 2035TIP3   OH230299   3.106   4.283  18.260  0.0408 -0.0929  0.4593
 2035TIP3    H130300   3.012   4.287  18.279 -0.0050 -0.6322  0.3564
 2035TIP3    H230301   3.116   4.331  18.178 -0.0261  0.6515  0.8733
 2036TIP3   OH230302   6.201   2.310  18.761 -0.1140 -0.8111 -0.2473
 2036TIP3    H130303   6.280   2.256  18.755  1.9501  1.6042  2.6489
 2036TIP3    H230304   6.221   2.389  18.711 -1.1592 -0.6332 -0.4100
 2037TIP3   OH230305   3.297   6.814  19.250  0.0491  0.3423  0.0956
 2037TIP3    H130306   3.379   6.847  19.213  0.0132 -1.1717 -1.4500
 2037TIP3    H230307   3.314   6.721  19.267 -1.2552  0.0801  0.0469
 2038TIP3   OH230308   0.983   7.658  18.181 -0.1176  0.0836 -0.4676
 2038TIP3    H130309   1.002   7.564  18.171 -0.6158 -0.1148  0.3844
 2038TIP3    H230310   0.896   7.661  18.219  0.6664  0.8284  1.4003
 2039TIP3   OH230311   1.769   0.074  18.984  0.3450  0.5921  0.0468
 2039TIP3    H130312   1.760  -0.016  19.016 -0.0707  1.0353  1.2415
 2039TIP3    H230313   1.802   0.064  18.895  0.3045 -0.7431  0.1507
 2040TIP3   OH230314   7.310   3.735  18.301  0.1529  0.1715  0.4371
 2040TIP3    H130315   7.249   3.736  18.227 -1.5619  1.4700  1.8145
 2040TIP3    H230316   7.373   3.805  18.280 -0.8398  1.1292  0.6021
 2041TIP3   OH230317   5.836   5.386  19.011 -0.0423 -0.2653  0.4957
 2041TIP3    H130318   5.794   5.414  18.930  0.8425 -1.6460 -0.4845
 2041TIP3    H230319   5.765   5.353  19.065 -0.4268 -1.0777 -0.4839
 2042TIP3   OH230320   2.041   7.543  19.084  0.2721 -0.2372  0.3395
 2042TIP3    H130321   2.115   7.484  19.095  0.6068 -0.4450 -2.3750
 2042TIP3    H230322   2.003   7.519  19.000 -1.1322  1.7677  0.3292
 2043TIP3   OH230323   6.860   2.643  18.752  0.4285 -0.3833  0.8902
 2043TIP3    H130324   6.856   2.665  18.845 -0.3819  0.0090  0.7667
 2043TIP3    H230325   6.928   2.700  18.716  1.6027 -1.3706  1.4531
 2044TIP3   OH230326   6.220   4.649  18.607  0.1229 -0.7616 -0.1561
 2044TIP3    H130327   6.151   4.591  18.639  0.9767 -1.3948  0.5760
 2044TIP3    H230328   6.250   4.696  18.685 -0.2472  0.3428 -0.6609
 2045TIP3   OH230329   7.528   3.158  17.935 -0.0118  0.4783 -0.2995
 2045TIP3    H130330   7.591   3.222  17.900 -1.6503  2.9588  1.0177
 2045TIP3    H230331   7.478   3.207  18.000 -1.7119 -2.0739  0.4493
 2046TIP3   OH230332   6.403   3.288  19.291 -0.0358 -0.3427  0.4725
 2046TIP3    H130333   6.364   3.201  19.300 -0.2575 -0.1781  1.2495
 2046TIP3    H230334   6.376   3.318  19.205  0.0316 -1.0381  0.2040
 2047TIP3   OH230335   2.457   5.631  17.120 -0.5209 -0.0460 -0.1610
 2047TIP3    H130336   2.388   5.572  17.090 -1.4635 -0.3940  2.4896
 2047TIP3    H230337   2.527   5.573  17.149 -0.4251  0.2016  0.1087
 2048TIP3   OH230338   5.819   3.987  18.474 -0.0502  0.2632  0.2977
 2048TIP3    H130339   5.799   3.901  18.436 -0.0851  1.2733 -2.1247
 2048TIP3    H230340   5.913   3.999  18.457  0.1308  0.4090  1.3216
 2049TIP3   OH230341   3.326   5.099  18.281  0.6717 -0.2522 -0.3491
 2049TIP3    H130342   3.393   5.160  18.252  0.7100  0.1570  0.5618
 2049TIP3    H230343   3.263   5.095  18.208  1.3411 -0.1467 -0.9402
 2050TIP3   OH230344   6.446   7.605  17.532  0.0191 -0.2446  0.2949
 2050TIP3    H130345   6.470   7.518  17.502 -0.1616 -0.2518  0.1662
 2050TIP3    H230346   6.370   7.628  17.479 -0.5788 -0.4350  1.0511
 2051TIP3   OH230347   3.275   1.890  19.115 -0.5346  0.7817  0.1173
 2051TIP3    H130348   3.312   1.839  19.043 -2.0961 -0.2236 -0.0189
 2051TIP3    H230349   3.289   1.837  19.193 -1.4887  0.4638  0.0894
 2052TIP3   OH230350   6.914   0.476  18.285 -0.3192  0.1964 -0.1692
 2052TIP3    H130351   6.902   0.570  18.300  0.9817  0.1886  1.1262
 2052TIP3    H230352   6.825   0.444  18.271 -1.1777  1.1649  2.4197
 2053TIP3   OH230353   6.437   0.645  19.257 -0.0516  0.2721  0.1539
 2053TIP3    H130354   6.523   0.640  19.299 -0.7047 -2.2973  1.3252
 2053TIP3    H230355   6.419   0.556  19.228 -2.9639  0.3813  1.3055
 2054TIP3   OH230356   0.623   6.052  16.841 -0.6134 -0.2199 -0.1413
 2054TIP3    H130357   0.577   6.112  16.900  1.5202 -0.0608  1.4879
 2054TIP3    H230358   0.648   6.107  16.767 -0.6263  0.3765  0.2820
 2055TIP3   OH230359   7.264   6.915  18.430  0.5424  0.0958  0.5608
 2055TIP3    H130360   7.187   6.925  18.487 -0.6697 -1.9566 -0.5711
 2055TIP3    H230361   7.339   6.930  18.487 -0.6405  2.4715  1.6544
 2056TIP3   OH230362   5.876   3.643  17.428  0.0477 -0.0904 -0.2907
 2056TIP3    H130363   5.825   3.682  17.500 -0.4341  0.5769 -0.9713
 2056TIP3    H230364   5.957   3.613  17.469 -0.6932 -0.7384  0.7270
 2057TIP3   OH230365   3.687   3.741  17.783 -0.0870 -0.4325  0.1565
 2057TIP3    H130366   3.682   3.811  17.847  0.7702 -1.0687  0.9436
 2057TIP3    H230367   3.675   3.785  17.698  1.5241  0.8444  0.5322
 2058TIP3   OH230368   6.318   3.723  17.852 -0.0555 -0.2630 -0.3706
 2058TIP3    H130369   6.295   3.640  17.811  0.9317 -0.7118 -0.0477
 2058TIP3    H230370   6.310   3.707  17.946 -0.8345  0.3129 -0.3249
 2059TIP3   OH230371   6.041   6.042  19.462  0.7342  0.1251  0.6719
 2059TIP3    H130372   6.055   5.964  19.516  0.3155 -0.2110  0.3127
 2059TIP3    H230373   6.050   6.010  19.372 -0.4788  0.2563  0.4846
 2060TIP3   OH230374   1.155   1.295  18.644 -0.4436  0.4684  0.2695
 2060TIP3    H130375   1.141   1.301  18.550  0.5403  2.1528  0.1903
 2060TIP3    H230376   1.213   1.220  18.655 -0.4176  0.3687 -0.4897
 2061TIP3   OH230377   5.288   4.017  18.946 -0.1506  0.4864  0.2839
 2061TIP3    H130378   5.374   4.045  18.915 -0.1938  0.7756  0.4151
 2061TIP3    H230379   5.280   4.057  19.033  0.0791 -0.5234  0.7847
 2062TIP3   OH230380   0.135   5.015  17.672  0.2672 -0.2287 -0.3468
 2062TIP3    H130381   0.048   5.050  17.691  0.3931 -0.0686 -0.0439
 2062TIP3    H230382   0.133   4.926  17.707  0.7126  0.2903  1.0747
 2063TIP3   OH230383   0.294   0.592  17.988  0.0905  0.3573  0.2160
 2063TIP3    H130384   0.206   0.629  17.985 -0.0734  0.0801  1.2173
 2063TIP3    H230385   0.312   0.579  18.081  1.1932  0.4081  0.0256
 2064TIP3   OH230386   6.683   4.043  18.510 -0.2062 -0.5182 -0.0008
 2064TIP3    H130387   6.669   3.955  18.475 -2.5107 -1.5722  3.0773
 2064TIP3    H230388   6.595   4.083  18.511  0.8325  2.1240 -1.7555
 2065TIP3   OH230389   6.049   1.471  18.389  0.4964 -0.1920  0.5176
 2065TIP3    H130390   5.992   1.402  18.424 -0.9098  1.0041  0.6338
 2065TIP3    H230391   6.003   1.504  18.313  1.9165 -0.4078 -0.4778
 2066TIP3   OH230392   1.635   5.079  19.272 -0.0534  0.0193  0.7417
 2066TIP3    H130393   1.698   5.124  19.217  1.5009 -0.7909  1.7624
 2066TIP3    H230394   1.586   5.023  19.212 -0.6790  1.5664 -0.2432
 2067TIP3   OH230395   5.014   4.029  18.167  0.2738  0.1357  0.6303
 2067TIP3    H130396   5.080   3.965  18.139  0.8887  0.6491  0.8876
 2067TIP3    H230397   5.030   4.106  18.113 -0.3762  0.1274  0.4172
 2068TIP3   OH230398   3.843   3.925  19.311 -0.0202 -0.2901 -0.1109
 2068TIP3    H130399   3.824   4.014  19.282 -1.7585  0.0048  1.6986
 2068TIP3    H230400   3.905   3.937  19.384 -0.2346 -0.5621  0.1154
 2069TIP3   OH230401   2.377   6.153  17.995  0.4112 -0.4116 -0.5751
 2069TIP3    H130402   2.369   6.191  17.908  0.9132 -1.1311 -0.9417
 2069TIP3    H230403   2.317   6.079  17.996 -0.7336  0.4863  0.2134
 2070TIP3   OH230404   3.252   4.379  18.532  0.1079  0.3044  0.5724
 2070TIP3    H130405   3.213   4.312  18.476  0.7969 -0.0527  0.5097
 2070TIP3    H230406   3.199   4.457  18.517 -0.7164 -0.2275  0.6561
 2071TIP3   OH230407   4.283   5.318  17.517  0.2298  0.2956 -0.6543
 2071TIP3    H130408   4.197   5.358  17.511 -0.8287 -1.8850 -0.8230
 2071TIP3    H230409   4.324   5.334  17.432 -0.5976  0.0623 -1.0976
 2072TIP3   OH230410   6.117   0.260  18.499 -0.1012 -0.4346 -0.5023
 2072TIP3    H130411   6.045   0.287  18.441 -0.3216 -0.9225 -0.4578
 2072TIP3    H230412   6.083   0.184  18.545 -0.2353  0.4293  0.8924
 2073TIP3   OH230413   3.922   3.125  19.009  0.4719  0.3434  0.5868
 2073TIP3    H130414   3.968   3.104  19.090 -0.3749 -1.8589  0.5774
 2073TIP3    H230415   3.831   3.099  19.025 -0.0080  1.2065 -0.5968
 2074TIP3   OH230416   4.436   2.829  16.972 -0.3085 -0.3057  0.4492
 2074TIP3    H130417   4.446   2.830  17.067 -0.6433 -0.2314  0.4851
 2074TIP3    H230418   4.414   2.739  16.950 -1.4581 -0.0705  0.5790
 2075TIP3   OH230419   5.425   1.327  18.561  0.5019 -0.0982 -0.2299
 2075TIP3    H130420   5.393   1.247  18.601 -3.4382  2.3965  2.2956
 2075TIP3    H230421   5.376   1.334  18.479  0.1467  0.1170 -0.0038
 2076TIP3   OH230422   6.624   6.067  17.907 -0.0943 -0.4130 -0.1205
 2076TIP3    H130423   6.654   6.037  17.821 -0.3978  0.1989 -0.4538
 2076TIP3    H230424   6.585   6.153  17.889 -1.0908 -0.7301  0.4633
 2077TIP3   OH230425   0.496   5.663  18.147 -0.5246  0.4444 -0.3023
 2077TIP3    H130426   0.570   5.649  18.088 -0.2920 -0.9724  0.2830
 2077TIP3    H230427   0.536   5.690  18.230 -0.4906 -1.9137  0.5101
 2078TIP3   OH230428   1.855   5.779  19.301 -0.1818  0.5458 -0.1292
 2078TIP3    H130429   1.779   5.755  19.249  0.0178 -3.0481  0.9445
 2078TIP3    H230430   1.927   5.782  19.238 -0.4239 -1.0066 -0.5382
 2079TIP3   OH230431   5.015   1.336  19.047 -0.8741  0.6511 -0.2239
 2079TIP3    H130432   4.961   1.413  19.031  0.2151  1.4577 -0.1342
 2079TIP3    H230433   5.073   1.362  19.119 -1.0201 -0.5294  0.3542
 2080TIP3   OH230434   6.021   2.515  16.952 -0.1995 -0.3472 -0.3402
 2080TIP3    H130435   5.958   2.562  16.897  0.8488 -0.0819 -1.3593
 2080TIP3    H230436   6.083   2.582  16.981 -3.0677  0.4953  4.9641
 2081TIP3   OH230437   1.871   7.004  18.395  0.3382  0.3594  0.1818
 2081TIP3    H130438   1.810   6.954  18.340  0.4853  0.9373 -0.5393
 2081TIP3    H230439   1.872   6.959  18.479  1.3201 -1.4950 -0.7766
 2082TIP3   OH230440   4.990   6.599  18.490  0.1977  0.2291 -0.0197
 2082TIP3    H130441   5.038   6.530  18.536  0.3328  0.1751 -0.2378
 2082TIP3    H230442   4.911   6.556  18.459  0.4628  0.0696 -0.4889
 2083TIP3   OH230443   5.495   4.139  17.063  1.1787 -0.3152 -0.2833
 2083TIP3    H130444   5.583   4.103  17.061  1.1851 -0.2654 -1.0674
 2083TIP3    H230445   5.495   4.207  16.995  0.6356 -0.0887 -0.0657
 2084TIP3   OH230446   1.279   3.626  18.924 -0.0681 -0.2199  0.1920
 2084TIP3    H130447   1.334   3.684  18.977  0.3236 -1.2408  0.9261
 2084TIP3    H230448   1.276   3.669  18.838  3.4795 -1.0051 -0.5215
 2085TIP3   OH230449   2.550   3.845  17.422  0.3977  0.4201 -0.2630
 2085TIP3    H130450   2.558   3.751  17.438 -0.1111  0.3344 -0.4997
 2085TIP3    H230451   2.458   3.864  17.439  0.9931  1.3689  2.3861
 2086TIP3   OH230452   7.098   0.255  19.206  0.1849  0.8546  0.2164
 2086TIP3    H130453   7.139   0.192  19.265 -0.8806 -0.3516 -0.2861
 2086TIP3    H230454   7.171   0.309  19.174  1.3829 -1.1342 -0.5715
 2087TIP3   OH230455   5.097   6.033  18.386 -0.1453  0.0063 -0.6737
 2087TIP3    H130456   5.177   6.080  18.360  1.1661 -0.7845  1.6662
 2087TIP3    H230457   5.077   5.977  18.311  0.1007  1.9047 -2.2376
 2088TIP3   OH230458   7.655   0.367  18.841  0.4646 -0.7261  0.5583
 2088TIP3    H130459   7.636   0.461  18.846  0.0603 -0.7474 -0.4210
 2088TIP3    H230460   7.741   0.358  18.882  0.8177  0.1803  0.0453
 2089TIP3   OH230461   0.294   0.493  18.262  0.2723  0.9776 -0.3802
 2089TIP3    H130462   0.371   0.465  18.213  0.6675 -0.6729  1.0979
 2089TIP3    H230463   0.288   0.432  18.335 -1.0790  2.5228  0.8814
 2090TIP3   OH230464   1.298   7.085  19.183 -0.5600 -0.4249 -0.0152
 2090TIP3    H130465   1.327   6.998  19.156  1.7748 -0.0652  1.1091
 2090TIP3    H230466   1.304   7.084  19.278 -0.0310  1.0895  0.0051
 2091TIP3   OH230467   3.629   5.071  19.108  0.6092 -0.6845 -0.7112
 2091TIP3    H130468   3.565   5.066  19.179  2.1078  1.4920  0.9581
 2091TIP3    H230469   3.693   5.003  19.129  1.0380 -0.0596  0.0614
 2092TIP3   OH230470   2.705   1.929  17.545  0.2908 -0.2504  0.1163
 2092TIP3    H130471   2.682   1.907  17.455  0.9927  0.6860 -0.3076
 2092TIP3    H230472   2.797   1.904  17.553 -0.0917 -1.4924  0.9820
 2093TIP3   OH230473   4.117   3.577  18.149  0.3999 -0.0401  0.5241
 2093TIP3    H130474   4.046   3.521  18.116  1.0883 -1.0592  0.7234
 2093TIP3    H230475   4.080   3.620  18.225 -0.2475  0.0136  0.1836
 2094TIP3   OH230476   4.509   3.871  17.359  0.3120  0.4823  0.4114
 2094TIP3    H130477   4.504   3.804  17.291  0.1409  0.4615  0.4440
 2094TIP3    H230478   4.481   3.951  17.316 -0.2048  0.3904  0.5603
 2095TIP3   OH230479   0.471   6.411  17.429  0.7636  0.1270  0.1128
 2095TIP3    H130480   0.450   6.438  17.519 -0.9940  0.1748 -0.2672
 2095TIP3    H230481   0.518   6.486  17.392  3.2206 -0.6126  1.5070
 2096TIP3   OH230482   4.925   3.091  19.239 -0.2518  0.6030 -0.1326
 2096TIP3    H130483   4.952   3.181  19.222 -0.8601  0.7332 -0.4258
 2096TIP3    H230484   4.856   3.074  19.175 -0.9702  0.3318  0.6880
 2097TIP3   OH230485   6.746   0.744  17.956  0.3356 -0.0537 -0.4920
 2097TIP3    H130486   6.767   0.742  17.862 -0.0647 -0.0291 -0.5842
 2097TIP3    H230487   6.831   0.735  17.999  0.5290 -0.0202 -0.8575
 2098TIP3   OH230488   3.946   5.825  18.812 -0.2864 -0.5548  0.1297
 2098TIP3    H130489   3.866   5.796  18.856 -0.2299 -0.6391  0.1786
 2098TIP3    H230490   3.916   5.886  18.745 -0.3995 -0.6521  0.0904
 2099TIP3   OH230491   1.274   3.366  17.833 -0.0959  0.3804  0.1404
 2099TIP3    H130492   1.191   3.413  17.833  0.3746  1.2518  0.7465
 2099TIP3    H230493   1.251   3.274  17.825 -1.0050  0.7659 -2.5539
 2100TIP3   OH230494   7.293   2.726  19.545  0.4343 -0.6771 -0.7058
 2100TIP3    H130495   7.348   2.763  19.614 -2.0319 -0.8736  1.5637
 2100TIP3    H230496   7.275   2.637  19.576 -1.6813 -0.3800 -0.9307
 2101TIP3   OH230497   3.845   3.128  17.496 -0.5086 -0.3446  0.2135
 2101TIP3    H130498   3.779   3.165  17.438 -0.8892  0.4667  1.1462
 2101TIP3    H230499   3.862   3.197  17.561  0.0991 -1.1274  0.9118
 2102TIP3   OH230500   1.389   0.478  19.355 -0.4161 -0.2690  0.1679
 2102TIP3    H130501   1.411   0.524  19.273 -0.2121 -1.2588 -0.3464
 2102TIP3    H230502   1.461   0.416  19.367 -2.0519 -2.4240 -0.6628
 2103TIP3   OH230503   4.376   7.357  19.770 -0.4799  0.2166 -0.3655
 2103TIP3    H130504   4.299   7.403  19.804  0.0201  0.0490  1.0710
 2103TIP3    H230505   4.345   7.269  19.749 -0.7535  0.2579 -0.1361
 2104TIP3   OH230506   2.097   5.254  18.384  0.1942 -0.7334  0.2152
 2104TIP3    H130507   2.167   5.300  18.430 -1.2490 -0.3696  2.1398
 2104TIP3    H230508   2.064   5.319  18.322 -0.5795  0.2437  1.5939
 2105TIP3   OH230509   2.518   1.843  19.037  0.0403  0.1423 -0.4064
 2105TIP3    H130510   2.599   1.793  19.049 -0.8634 -1.0556  0.9483
 2105TIP3    H230511   2.485   1.816  18.951  1.0115  0.5927 -0.9458
 2106TIP3   OH230512   5.220   5.574  16.975 -0.0087  0.2103  0.5875
 2106TIP3    H130513   5.262   5.499  17.016  1.1407  0.5745  0.1421
 2106TIP3    H230514   5.215   5.551  16.882  0.7388  0.8302  0.3803
 2107TIP3   OH230515   4.876   1.675  18.695  0.0929 -0.3858  0.0716
 2107TIP3    H130516   4.793   1.642  18.661 -0.1414  0.4484 -0.2036
 2107TIP3    H230517   4.855   1.762  18.730  1.0169  0.2432 -0.8611
 2108TIP3   OH230518   1.868   5.108  19.118  0.1132 -0.1620 -0.1176
 2108TIP3    H130519   1.871   5.157  19.036 -0.5855  0.9841  0.5078
 2108TIP3    H230520   1.951   5.060  19.120  0.0384 -0.4073 -1.5876
 2109TIP3   OH230521   4.093   3.617  17.725 -0.1836 -0.1274 -0.2728
 2109TIP3    H130522   4.185   3.597  17.711 -0.3331 -0.0184 -1.5427
 2109TIP3    H230523   4.047   3.539  17.694 -0.4959 -0.5210  1.1321
 2110TIP3   OH230524   3.847   6.409  17.628 -0.2472 -0.2103  0.5535
 2110TIP3    H130525   3.829   6.323  17.667 -0.9970 -0.7486 -0.9126
 2110TIP3    H230526   3.915   6.392  17.563 -0.4770  0.2845  0.1817
 2111TIP3   OH230527   0.817   7.002  19.552 -0.5997 -0.2108  0.7366
 2111TIP3    H130528   0.886   7.058  19.517 -0.0983 -1.4777 -0.3692
 2111TIP3    H230529   0.856   6.962  19.630  0.2814 -1.6183 -0.3854
 2112TIP3   OH230530   4.072   7.537  18.607  0.3039  0.0722 -0.0751
 2112TIP3    H130531   4.122   7.461  18.578  1.6381  1.4719 -1.6013
 2112TIP3    H230532   3.991   7.533  18.555  0.3232 -0.3426 -0.0807
 2113TIP3   OH230533   6.495   1.923  17.078 -0.0967  0.5875  0.1782
 2113TIP3    H130534   6.487   1.954  16.988  0.1801 -0.5153 -0.2529
 2113TIP3    H230535   6.553   1.847  17.072 -1.3197 -0.4737  1.0439
 2114TIP3   OH230536   2.955   0.449  18.892 -0.4930 -0.6938 -0.1852
 2114TIP3    H130537   2.943   0.357  18.914 -0.9022 -0.5500  0.2134
 2114TIP3    H230538   2.873   0.491  18.920  0.6670  0.2240  2.0436
 2115TIP3   OH230539   6.601   5.078  19.399 -0.0811  0.1724 -0.0661
 2115TIP3    H130540   6.572   4.988  19.413  1.4169 -0.0800  1.9688
 2115TIP3    H230541   6.521   5.130  19.408 -0.4867 -0.7125  2.4892
 2116TIP3   OH230542   1.145   6.126  19.275 -0.1809  0.8625 -0.3307
 2116TIP3    H130543   1.110   6.088  19.195 -0.0054  1.2764 -0.6103
 2116TIP3    H230544   1.232   6.158  19.251  0.6296 -0.6403  0.4948
 2117TIP3   OH230545   3.763   4.037  19.010  0.5963  0.5768 -0.1646
 2117TIP3    H130546   3.764   4.103  19.078 -1.9392 -0.2126  0.7856
 2117TIP3    H230547   3.731   4.083  18.932 -0.7758  0.6115  0.3871
 2118TIP3   OH230548   2.135   1.967  17.317 -0.3399 -0.0259 -0.3383
 2118TIP3    H130549   2.067   2.003  17.373 -1.0252 -1.4457 -0.2402
 2118TIP3    H230550   2.109   1.992  17.228 -1.1234 -0.7802 -0.3220
 2119TIP3   OH230551   5.361   4.700  17.568  0.0011  0.1863  0.6094
 2119TIP3    H130552   5.411   4.653  17.635 -0.9954  0.4295  1.5362
 2119TIP3    H230553   5.270   4.675  17.582 -0.3031  0.7447 -0.2441
 2120TIP3   OH230554   5.602   4.057  18.340  0.2957 -0.0539  0.1520
 2120TIP3    H130555   5.650   4.037  18.420  0.0569 -0.3701  0.2177
 2120TIP3    H230556   5.521   4.006  18.347 -0.0794  0.5247  0.0761
 2121TIP3   OH230557   5.232   4.616  19.026  0.0579  0.4734  0.3216
 2121TIP3    H130558   5.326   4.610  19.047 -0.0011 -1.3920  0.2013
 2121TIP3    H230559   5.230   4.644  18.934  0.5735 -0.9368 -0.1519
 2122TIP3   OH230560   2.938   0.992  16.878 -0.2146 -0.5346  0.4664
 2122TIP3    H130561   2.892   1.070  16.846 -2.4947 -0.4077  3.5720
 2122TIP3    H230562   2.894   0.919  16.834 -0.1968 -0.1953 -0.1191
 2123TIP3   OH230563   1.896   7.619  19.641  0.0943  0.4012  0.0085
 2123TIP3    H130564   1.962   7.558  19.608 -0.4242 -0.6882  0.9158
 2123TIP3    H230565   1.826   7.563  19.674 -0.6245  1.5111  0.4220
 2124TIP3   OH230566   5.748   0.323  17.757 -0.2463 -0.2389 -0.2852
 2124TIP3    H130567   5.697   0.346  17.835  0.0546  0.7156 -0.3600
 2124TIP3    H230568   5.837   0.350  17.778  0.0143 -0.8090 -0.6217
 2125TIP3   OH230569   0.116   2.112  18.557 -0.1670  0.0808  0.3825
 2125TIP3    H130570   0.022   2.095  18.548 -0.2044  0.1761  0.5833
 2125TIP3    H230571   0.152   2.092  18.471 -0.4917  0.8296  0.0680
 2126TIP3   OH230572   0.547   0.534  18.122  0.1105 -0.6742  0.6648
 2126TIP3    H130573   0.552   0.629  18.130 -0.0171 -0.5578 -0.5028
 2126TIP3    H230574   0.623   0.510  18.070  0.0449 -1.1961  0.7991
 2127TIP3   OH230575   7.174   2.253  17.138 -0.2294 -0.1852  0.3685
 2127TIP3    H130576   7.103   2.259  17.075  0.8993 -1.9634 -1.1763
 2127TIP3    H230577   7.230   2.328  17.118 -0.4651 -0.0975  0.0319
 2128TIP3   OH230578   3.660   1.724  17.880  0.2714  0.1621  0.7416
 2128TIP3    H130579   3.745   1.720  17.836 -0.6898 -0.1307 -1.1466
 2128TIP3    H230580   3.661   1.649  17.940  0.2722 -1.6272 -1.3647
 2129TIP3   OH230581   1.716   6.028  19.087  0.0372  0.0725  0.2888
 2129TIP3    H130582   1.728   6.076  19.170 -1.2822  1.2852 -0.1909
 2129TIP3    H230583   1.702   5.938  19.114  0.0031  0.3835  1.3777
 2130TIP3   OH230584   1.280   4.600  19.229  0.0500  0.2051 -0.3840
 2130TIP3    H130585   1.326   4.604  19.145  0.2607  0.4188 -0.2629
 2130TIP3    H230586   1.213   4.668  19.223  0.4856  0.6659 -0.1418
 2131TIP3   OH230587   5.273   6.099  18.092 -0.6570 -0.0877 -0.4228
 2131TIP3    H130588   5.338   6.078  18.024 -0.3069 -1.2288  0.2371
 2131TIP3    H230589   5.189   6.095  18.046 -0.3714 -0.1476 -0.9489
 2132TIP3   OH230590   6.833   3.804  17.495  0.7484 -0.1530 -0.4383
 2132TIP3    H130591   6.829   3.811  17.400  2.1100 -0.1107 -0.5064
 2132TIP3    H230592   6.846   3.711  17.512  2.8579  0.1034 -0.4228
 2133TIP3   OH230593   4.134   6.197  18.642 -0.4555 -0.1027  0.4732
 2133TIP3    H130594   4.199   6.213  18.573  0.4866 -1.9493  0.8507
 2133TIP3    H230595   4.164   6.249  18.716  0.1951 -0.3432  0.3896
 2134TIP3   OH230596   4.749   3.844  17.156  0.4171 -0.0087  0.2335
 2134TIP3    H130597   4.777   3.893  17.079  1.2610 -0.7281  0.0647
 2134TIP3    H230598   4.684   3.782  17.123  0.8058 -0.3422  0.0846
 2135TIP3   OH230599   7.214   1.489  17.407  0.5265  0.3581  0.3979
 2135TIP3    H130600   7.232   1.401  17.439 -1.5983 -1.0018 -1.7178
 2135TIP3    H230601   7.298   1.520  17.373  0.9863 -1.6394 -0.4452
 2136TIP3   OH230602   5.637   6.939  18.030  0.0630  0.6837  0.0952
 2136TIP3    H130603   5.699   7.011  18.046  2.1813 -1.0023  0.0353
 2136TIP3    H230604   5.561   6.981  17.991  1.0853  2.9239  0.3212
 2137TIP3   OH230605   6.616   3.269  16.691  0.0032 -0.0257 -0.5331
 2137TIP3    H130606   6.604   3.242  16.599 -0.6453  1.3881 -0.8956
 2137TIP3    H230607   6.707   3.247  16.710 -0.5800 -2.9660 -0.5676
 2138TIP3   OH230608   0.347   3.083  16.897 -0.1187 -0.4882  0.0814
 2138TIP3    H130609   0.322   2.994  16.871  0.4303 -0.2524 -1.2972
 2138TIP3    H230610   0.381   3.124  16.817  0.5972  0.6318  0.9200
 2139TIP3   OH230611   0.989   3.460  18.811  0.1384  1.0363  0.2078
 2139TIP3    H130612   0.936   3.538  18.793  0.2473  1.0699  0.0178
 2139TIP3    H230613   1.004   3.462  18.905 -1.1016  0.4320  0.4286
 2140TIP3   OH230614   4.360   1.852  19.355 -0.1370  0.1534  0.2379
 2140TIP3    H130615   4.321   1.836  19.269  0.3228 -2.3512  0.3889
 2140TIP3    H230616   4.304   1.804  19.416  1.8569 -1.7084  0.7219
 2141TIP3   OH230617   4.584   2.839  18.916 -0.1497  0.6453 -0.7422
 2141TIP3    H130618   4.621   2.927  18.915  0.7810  0.2712 -1.2232
 2141TIP3    H230619   4.549   2.828  19.004 -0.2534  1.4898 -0.6740
 2142TIP3   OH230620   0.748   4.373  17.443 -0.0233  0.2093 -0.5641
 2142TIP3    H130621   0.750   4.277  17.441  0.5177  0.2291 -1.2192
 2142TIP3    H230622   0.768   4.399  17.354 -2.3792  0.9268 -0.9581
 2143TIP3   OH230623   1.436   3.362  18.556 -0.0013 -0.2588  0.1360
 2143TIP3    H130624   1.386   3.386  18.478 -0.7382  0.5000  0.8095
 2143TIP3    H230625   1.527   3.379  18.532 -0.0740 -1.4077 -1.0262
 2144TIP3   OH230626   7.388   0.534  18.866 -0.3204 -0.0020  0.3005
 2144TIP3    H130627   7.324   0.603  18.886 -0.0960  0.7736 -1.4502
 2144TIP3    H230628   7.472   0.571  18.891 -0.3289 -0.1593  0.5655
 2145TIP3   OH230629   2.916   5.903  18.984  0.0575 -0.3868 -0.2532
 2145TIP3    H130630   2.829   5.894  19.022  0.0528 -2.2287 -0.6120
 2145TIP3    H230631   2.969   5.838  19.030  0.9382 -0.1152 -0.8553
 2146TIP3   OH230632   2.287   7.372  19.103  0.6346 -0.1139 -0.2514
 2146TIP3    H130633   2.374   7.409  19.091 -0.0458  1.3752 -0.9455
 2146TIP3    H230634   2.283   7.299  19.042  1.3840 -0.1923 -0.2191
 2147TIP3   OH230635   0.154   2.658  18.405  0.3680  0.0045 -0.3229
 2147TIP3    H130636   0.210   2.587  18.374  2.1779  1.5115 -0.6610
 2147TIP3    H230637   0.192   2.685  18.488  0.7951  1.6863 -1.0193
 2148TIP3   OH230638   7.072   3.243  18.384  0.1206 -0.3524 -0.2711
 2148TIP3    H130639   7.138   3.305  18.414 -0.0655 -0.4208  0.2899
 2148TIP3    H230640   6.989   3.278  18.417 -0.1257 -0.2887 -0.9304
 2149TIP3   OH230641   0.070   5.165  19.236 -0.3827  0.1666  0.1733
 2149TIP3    H130642   0.131   5.217  19.287 -0.0955 -1.4557  1.5931
 2149TIP3    H230643   0.023   5.228  19.182  0.5883  1.7510  1.1103
 2150TIP3   OH230644   7.564   7.208  17.614  0.4924  0.1178  0.2414
 2150TIP3    H130645   7.610   7.135  17.655 -0.1275 -0.5972 -0.3127
 2150TIP3    H230646   7.625   7.241  17.548  0.6794 -0.0517  0.3272
 2151TIP3   OH230647   7.415   3.613  19.451  0.2565 -0.1149 -0.1139
 2151TIP3    H130648   7.484   3.577  19.507 -1.7461 -1.2823  1.7615
 2151TIP3    H230649   7.348   3.643  19.512 -1.3082  0.1110 -1.8666
 2152TIP3   OH230650   4.007   0.728  17.075 -0.0414 -0.3899 -0.2494
 2152TIP3    H130651   3.958   0.790  17.129 -0.0878  0.7544 -1.5569
 2152TIP3    H230652   3.949   0.708  17.002  1.0048  0.1798 -1.2801
 2153TIP3   OH230653   6.345   1.434  16.610 -0.0448 -0.7078 -0.5308
 2153TIP3    H130654   6.390   1.464  16.532 -0.3405 -0.0578 -0.4572
 2153TIP3    H230655   6.415   1.422  16.675 -0.1454  3.0650  0.5007
 2154TIP3   OH230656   2.387   4.867  17.944 -0.3191 -0.1659  0.2760
 2154TIP3    H130657   2.348   4.781  17.965 -0.7037  0.3015  1.5950
 2154TIP3    H230658   2.312   4.924  17.930 -0.0777 -0.4145 -2.4331
 2155TIP3   OH230659   7.106   3.315  16.404 -0.1832  0.1265 -0.0787
 2155TIP3    H130660   7.192   3.355  16.415 -0.3983  0.1906  1.5150
 2155TIP3    H230661   7.065   3.364  16.333  0.0176  1.9737  1.0254
 2156TIP3   OH230662   3.670   2.951  17.598 -0.0701 -0.6972 -0.2358
 2156TIP3    H130663   3.750   2.992  17.567  0.3727 -1.7655 -0.5683
 2156TIP3    H230664   3.610   2.952  17.523  0.1569 -1.1782 -0.4287
 2157TIP3   OH230665   4.494   5.499  18.709 -0.7167  0.3986 -0.0524
 2157TIP3    H130666   4.482   5.406  18.729 -1.1224  0.0650 -1.7101
 2157TIP3    H230667   4.572   5.524  18.758 -0.5941 -0.8182  0.4066
 2158TIP3   OH230668   1.973   7.536  17.212 -0.3171 -0.4318 -0.3396
 2158TIP3    H130669   1.904   7.602  17.214 -0.6388 -0.7793  0.1835
 2158TIP3    H230670   1.944   7.469  17.274  0.4827 -0.5856 -0.1284
 2159TIP3   OH230671   7.207   3.484  18.410 -0.3588 -0.1044  0.0977
 2159TIP3    H130672   7.292   3.441  18.404  0.1714  0.8660  0.4483
 2159TIP3    H230673   7.220   3.570  18.370 -1.4959 -0.3755 -0.9304
 2160TIP3   OH230674   6.417   6.108  18.604  0.0365 -0.4231  0.1994
 2160TIP3    H130675   6.330   6.070  18.591  0.2878 -1.3501  1.1404
 2160TIP3    H230676   6.401   6.191  18.648 -0.3680 -0.6052  0.3962
 2161TIP3   OH230677   1.249   3.624  18.131  0.0512 -0.1494  0.3265
 2161TIP3    H130678   1.172   3.650  18.081  0.3555  1.8494  0.8038
 2161TIP3    H230679   1.286   3.707  18.163  2.0540 -1.0850  0.6055
 2162TIP3   OH230680   5.407   1.416  19.555 -0.5798 -0.1428  0.2772
 2162TIP3    H130681   5.325   1.457  19.582 -1.2677 -1.3857  0.1633
 2162TIP3    H230682   5.445   1.477  19.491 -0.9412  0.8765  1.0071
 2163TIP3   OH230683   5.168   4.247  16.669 -0.4258  0.4509 -0.1973
 2163TIP3    H130684   5.111   4.194  16.725  0.7747 -0.5876  0.1068
 2163TIP3    H230685   5.210   4.309  16.730 -1.1881  1.2009 -0.4166
 2164TIP3   OH230686   4.752   4.420  17.416  0.0916 -0.4327 -0.1902
 2164TIP3    H130687   4.672   4.436  17.465 -0.2184  0.4335 -0.9448
 2164TIP3    H230688   4.735   4.340  17.367 -0.9900  0.6482 -1.6583
 2165TIP3   OH230689   7.353   2.984  18.212 -0.6586 -0.0258  0.5998
 2165TIP3    H130690   7.374   2.931  18.288 -0.1292  0.0551  0.5135
 2165TIP3    H230691   7.428   2.973  18.153 -0.7253  0.4959  0.4104
 2166TIP3   OH230692   3.000   5.368  17.889  0.2106  0.2421  0.4446
 2166TIP3    H130693   2.906   5.384  17.893 -0.0970 -1.3897  0.3252
 2166TIP3    H230694   3.034   5.404  17.971 -0.3100  1.9792 -0.0739
 2167TIP3   OH230695   1.283   1.535  17.987 -0.3183 -0.1632  0.1541
 2167TIP3    H130696   1.222   1.575  18.048 -0.9365 -0.2502 -0.3921
 2167TIP3    H230697   1.366   1.530  18.035 -0.8604 -0.4871  1.0790
 2168TIP3   OH230698   5.247   1.410  19.217  0.1806  0.2331  0.5732
 2168TIP3    H130699   5.339   1.394  19.199  0.2620  1.2173  0.0601
 2168TIP3    H230700   5.244   1.498  19.256 -0.4489 -0.1554  1.4423
 2169TIP3   OH230701   0.060   2.685  18.884  0.2891  0.0139 -0.1413
 2169TIP3    H130702   0.135   2.745  18.882 -1.1790  1.9422  0.1675
 2169TIP3    H230703   0.091   2.610  18.934  2.1875  0.4872 -0.5284
 2170TIP3   OH230704   0.227   4.543  17.468 -0.1220  0.1135 -0.8062
 2170TIP3    H130705   0.269   4.586  17.393  0.8992  0.7821  0.1225
 2170TIP3    H230706   0.261   4.589  17.545 -1.7780 -0.0123  0.0552
 2171TIP3   OH230707   4.854   0.294  16.942 -0.3483  0.5270 -0.2179
 2171TIP3    H130708   4.889   0.267  16.858 -1.0913 -1.1762 -0.0311
 2171TIP3    H230709   4.908   0.369  16.968  1.1414 -0.1187 -1.3008
 2172TIP3   OH230710   0.670   5.085  17.418  0.1198 -0.2787 -0.0513
 2172TIP3    H130711   0.586   5.128  17.407  1.1231  2.2461  1.1360
 2172TIP3    H230712   0.714   5.095  17.334  0.4801  1.5556  0.2954
 2173TIP3   OH230713   6.565   7.089  18.932 -0.2200  0.2559  0.0374
 2173TIP3    H130714   6.478   7.066  18.964  0.1503 -2.1080 -0.4275
 2173TIP3    H230715   6.601   7.147  18.999 -1.7868  0.5124  0.7060
 2174TIP3   OH230716   2.633   1.869  17.288 -0.1993  0.3453 -0.2877
 2174TIP3    H130717   2.702   1.806  17.268  0.6736  1.4990 -0.9942
 2174TIP3    H230718   2.573   1.864  17.214 -1.5237 -1.4766  0.8505
 2175TIP3   OH230719   7.025   1.648  18.688  0.7208 -0.3398  0.4687
 2175TIP3    H130720   7.051   1.739  18.675  1.5566 -0.6086  0.1839
 2175TIP3    H230721   7.080   1.598  18.628  2.2828 -1.2836  2.5461
 2176TIP3   OH230722   3.956   0.005  19.354 -0.0110 -0.2949  0.2439
 2176TIP3    H130723   3.935  -0.047  19.432  2.0249 -1.6341 -0.0106
 2176TIP3    H230724   3.962  -0.060  19.284 -0.6457  0.7421 -0.7813
 2177TIP3   OH230725   3.458   3.489  17.624 -0.3598 -0.1676 -0.0552
 2177TIP3    H130726   3.451   3.581  17.598 -2.0767 -0.0449  0.7473
 2177TIP3    H230727   3.375   3.449  17.597  1.3277 -2.1996 -2.8780
 2178TIP3   OH230728   7.081   3.005  18.121  0.1269 -0.5115  0.1451
 2178TIP3    H130729   7.170   2.990  18.153  0.5818 -0.4457 -1.0405
 2178TIP3    H230730   7.025   2.963  18.186  0.9921 -0.1598  1.1456
 2179TIP3   OH230731   2.102   1.004  18.883  0.1361 -0.2676 -0.2613
 2179TIP3    H130732   2.147   1.079  18.923 -0.1955  0.4140 -1.1423
 2179TIP3    H230733   2.107   1.020  18.789 -0.1804 -1.2240 -0.4535
 2180TIP3   OH230734   1.271   5.969  18.978 -0.0644 -0.6084 -0.4318
 2180TIP3    H130735   1.200   5.967  19.042 -1.4349  0.5965 -1.8264
 2180TIP3    H230736   1.307   6.058  18.985 -0.1114 -0.5186 -1.1699
 2181TIP3   OH230737   5.763   0.883  17.396 -0.1766  0.5500  0.1965
 2181TIP3    H130738   5.798   0.879  17.485  0.6532  0.2026 -0.1293
 2181TIP3    H230739   5.669   0.868  17.406  0.0542 -0.5212  0.9126
 2182TIP3   OH230740   5.451   1.393  18.828 -0.2707  0.0882 -0.3111
 2182TIP3    H130741   5.418   1.387  18.738  3.2844 -1.9583 -1.7266
 2182TIP3    H230742   5.483   1.482  18.836 -1.5531  0.6005 -0.6673
 2183TIP3   OH230743   6.513   4.730  16.871  0.3315 -0.4847  0.1036
 2183TIP3    H130744   6.503   4.664  16.939  1.1226  0.2111  0.9215
 2183TIP3    H230745   6.561   4.684  16.801  1.0395 -0.7444  0.7362
 2184TIP3   OH230746   1.620   7.007  17.704  0.0011  0.6275 -0.1007
 2184TIP3    H130747   1.536   6.964  17.692  0.1950  0.1923  0.0616
 2184TIP3    H230748   1.607   7.066  17.778 -0.4970  1.4646 -0.8447
 2185TIP3   OH230749   7.095   5.760  17.595  0.8079 -0.0643  0.0556
 2185TIP3    H130750   7.077   5.779  17.503  0.5053  0.6015  0.2464
 2185TIP3    H230751   7.107   5.846  17.636  3.6690 -0.4050  0.1315
 2186TIP3   OH230752   5.837   6.124  17.811  0.0164 -0.1924  0.0477
 2186TIP3    H130753   5.866   6.205  17.769  0.4215 -0.0234  0.6338
 2186TIP3    H230754   5.853   6.056  17.745  3.3538 -0.3627  0.8388
 2187TIP3   OH230755   6.798   4.269  18.330  0.2458  0.4444  0.0349
 2187TIP3    H130756   6.844   4.295  18.410  1.0559 -0.0236 -0.2623
 2187TIP3    H230757   6.782   4.176  18.341 -0.8919  0.6448  0.2405
 2188TIP3   OH230758   2.229   5.151  19.454  0.0291  0.1472  0.7360
 2188TIP3    H130759   2.218   5.245  19.466  0.8546  0.2860  0.4713
 2188TIP3    H230760   2.144   5.113  19.479 -0.9949  1.1139 -1.0604
 2189TIP3   OH230761   3.295   3.010  18.263  0.3241 -0.2295 -0.3743
 2189TIP3    H130762   3.324   3.100  18.249  0.5625 -0.2277  0.1393
 2189TIP3    H230763   3.373   2.963  18.289 -0.4127  0.1834  2.9631
 2190TIP3   OH230764   1.510   4.005  19.205  0.3986 -0.0300 -0.7941
 2190TIP3    H130765   1.484   4.088  19.245  0.2071 -0.0340 -0.9075
 2190TIP3    H230766   1.586   4.026  19.152  0.3923  0.0600 -0.7670
 2191TIP3   OH230767   5.604   0.594  19.486 -0.3184 -0.0956  0.2561
 2191TIP3    H130768   5.516   0.574  19.517 -0.5180  0.4437  0.0600
 2191TIP3    H230769   5.597   0.684  19.452  0.2560 -0.1243  0.0551
 2192TIP3   OH230770   2.375   0.927  17.823  0.0242 -0.6284 -0.0968
 2192TIP3    H130771   2.292   0.882  17.809 -0.2475 -0.9761  2.2741
 2192TIP3    H230772   2.355   1.020  17.810 -0.9803 -0.6224  1.3649
 2193TIP3   OH230773   5.048   4.611  16.797  0.5958  0.9434  0.2312
 2193TIP3    H130774   5.100   4.689  16.780  1.8101 -0.3813 -2.8861
 2193TIP3    H230775   4.963   4.630  16.757  1.0809  0.5435 -1.0618
 2194TIP3   OH230776   2.982   0.183  18.157  0.4236  0.1579  0.1644
 2194TIP3    H130777   2.991   0.112  18.220  0.5572  0.4567  0.4890
 2194TIP3    H230778   2.966   0.261  18.211  2.4433  0.7703 -0.0363
 2195TIP3   OH230779   2.407   6.759  18.424  0.1307  0.0272  0.2046
 2195TIP3    H130780   2.370   6.847  18.423 -0.9641 -0.4005  0.6027
 2195TIP3    H230781   2.475   6.760  18.357 -0.4563  0.9268 -0.3986
 2196TIP3   OH230782   7.067   3.250  19.104 -0.5942 -0.3868  0.4402
 2196TIP3    H130783   7.042   3.160  19.082 -0.5769 -0.0189 -1.1952
 2196TIP3    H230784   7.139   3.270  19.044 -0.4524  0.6502  0.9355
 2197TIP3   OH230785   1.580   7.063  18.854 -0.3997  0.4642  0.0315
 2197TIP3    H130786   1.661   7.097  18.818 -0.6233 -0.7373 -1.6889
 2197TIP3    H230787   1.601   6.973  18.881 -1.2691 -0.0444 -0.9343
 2198TIP3   OH230788   0.438   3.612  17.443 -0.5656  0.6086 -0.0218
 2198TIP3    H130789   0.365   3.654  17.396 -0.3718  1.1675  0.1643
 2198TIP3    H230790   0.405   3.525  17.465 -1.2205  0.8861  0.1389
 2199TIP3   OH230791   1.958   5.592  19.506 -0.1541 -0.0584 -0.5287
 2199TIP3    H130792   1.938   5.663  19.445 -0.1559 -0.8711 -1.4957
 2199TIP3    H230793   2.047   5.610  19.536 -1.0656  1.8036  1.3136
 2200TIP3   OH230794   6.140   5.210  17.669 -0.0697 -0.7845  0.0870
 2200TIP3    H130795   6.093   5.227  17.750 -0.7679 -3.1612  0.2654
 2200TIP3    H230796   6.080   5.237  17.600 -0.1311 -0.2705  0.3362
 2201TIP3   OH230797   3.823   6.228  18.810  0.4164  0.4067  0.0238
 2201TIP3    H130798   3.736   6.224  18.851  0.7143 -0.3572  0.6216
 2201TIP3    H230799   3.811   6.191  18.723  0.4172 -1.0811  0.6322
 2202TIP3   OH230800   1.319   2.374  17.490 -0.7559  0.2875  0.2680
 2202TIP3    H130801   1.327   2.287  17.527  0.6450  0.3718  0.1951
 2202TIP3    H230802   1.362   2.369  17.405  0.1762  1.2607  0.6478
 2203TIP3   OH230803   5.245   5.205  18.432 -0.5798  0.0697 -0.9696
 2203TIP3    H130804   5.253   5.278  18.371 -0.2813  0.0037 -1.0119
 2203TIP3    H230805   5.151   5.190  18.439 -1.1163  3.3813  2.4860
 2204TIP3   OH230806   3.000   0.910  18.836 -0.1101  0.6807  0.1019
 2204TIP3    H130807   3.079   0.881  18.882 -1.4360  0.2941  2.2540
 2204TIP3    H230808   2.948   0.954  18.903 -3.1187 -1.7772 -0.4224
 2205TIP3   OH230809   4.781   1.121  17.408  0.1774 -0.2496  0.6518
 2205TIP3    H130810   4.724   1.057  17.363  0.4400  0.3673 -0.6096
 2205TIP3    H230811   4.855   1.133  17.348  0.7616  0.2934  1.4612
 2206TIP3   OH230812   3.815   5.145  17.580 -0.3674  0.9066 -0.3481
 2206TIP3    H130813   3.788   5.234  17.599 -1.5073  0.2444  1.4615
 2206TIP3    H230814   3.767   5.091  17.644  1.9176 -0.7740  0.1033
 2207TIP3   OH230815   0.622   5.105  18.410 -0.1532  0.0400 -0.1125
 2207TIP3    H130816   0.556   5.120  18.478 -0.3984  0.7968 -0.5021
 2207TIP3    H230817   0.693   5.060  18.455 -0.4850  0.1748  0.5580
 2208TIP3   OH230818   6.519   3.438  17.620  0.8324 -0.3336  0.2315
 2208TIP3    H130819   6.556   3.495  17.686 -1.5794 -0.0862  1.4670
 2208TIP3    H230820   6.512   3.353  17.663  2.4013 -1.0903 -0.8934
 2209TIP3   OH230821   1.336   5.464  19.306 -0.1582 -0.4725  0.0664
 2209TIP3    H130822   1.424   5.501  19.306 -0.5325  0.4663 -1.0823
 2209TIP3    H230823   1.288   5.516  19.242 -0.9082 -2.4705 -1.0891
 2210TIP3   OH230824   5.978   5.889  18.766  0.0399  0.2469 -0.1873
 2210TIP3    H130825   5.897   5.882  18.816  0.5056 -1.4183  0.3964
 2210TIP3    H230826   5.954   5.860  18.678  0.3781 -2.3810  0.4859
 2211TIP3   OH230827   2.579   3.840  18.875 -0.3618 -0.2494  0.1350
 2211TIP3    H130828   2.657   3.812  18.924  0.3862 -0.5368 -1.1696
 2211TIP3    H230829   2.609   3.847  18.784 -1.8422 -0.2670 -0.3803
 2212TIP3   OH230830   1.191   6.599  19.442 -0.5324  0.2666  0.5532
 2212TIP3    H130831   1.130   6.671  19.424 -0.5016  0.8082  2.4115
 2212TIP3    H230832   1.266   6.640  19.483 -0.5761 -0.8253  1.7971
 2213TIP3   OH230833   1.458   5.018  19.073 -0.0569 -0.4894 -0.2213
 2213TIP3    H130834   1.400   5.087  19.103  0.3927  0.4014 -1.3369
 2213TIP3    H230835   1.399   4.946  19.049 -0.4783 -0.8356  1.6884
 2214TIP3   OH230836   4.289   2.498  18.601 -0.0992 -0.3460 -0.5632
 2214TIP3    H130837   4.307   2.447  18.680  1.2509 -0.2592 -0.7890
 2214TIP3    H230838   4.305   2.589  18.626  2.0382 -0.4647 -1.3579
 2215TIP3   OH230839   3.090   5.203  17.688  0.5165  0.3093 -0.8805
 2215TIP3    H130840   3.018   5.144  17.709  0.7783  0.0875 -0.5969
 2215TIP3    H230841   3.088   5.269  17.756  1.4587 -0.4938 -0.0444
 2216TIP3   OH230842   1.788   6.679  17.068  0.7347 -0.4529  0.2174
 2216TIP3    H130843   1.873   6.639  17.052  0.6965 -0.0986 -0.9751
 2216TIP3    H230844   1.806   6.773  17.074  0.4449 -0.3861  0.0750
 2217TIP3   OH230845   1.991   5.368  19.234 -0.0522 -0.3548 -0.0307
 2217TIP3    H130846   2.057   5.421  19.279 -0.3210 -0.0243 -0.0177
 2217TIP3    H230847   1.921   5.356  19.299 -0.9512  1.0636 -0.6822
 2218TIP3   OH230848   0.445   6.034  18.513  0.2975 -0.1392 -0.0896
 2218TIP3    H130849   0.525   6.086  18.511  1.2239 -1.4315  1.0005
 2218TIP3    H230850   0.421   6.031  18.606 -0.3577 -0.7286 -0.2691
 2219TIP3   OH230851   2.649   5.772  16.988  1.1155 -0.0989  0.4507
 2219TIP3    H130852   2.563   5.772  17.031  1.0465 -0.6528  0.3186
 2219TIP3    H230853   2.645   5.700  16.926  1.2382  0.6641 -0.4608
 2220TIP3   OH230854   6.623   3.166  19.511  0.1101  0.2098  0.0055
 2220TIP3    H130855   6.562   3.239  19.501  1.7149  1.3565 -2.1362
 2220TIP3    H230856   6.619   3.144  19.604 -3.0687  0.5973  0.0555
 2221TIP3   OH230857   7.071   3.034  19.679  0.5400 -0.1032  0.2695
 2221TIP3    H130858   7.160   3.032  19.714 -0.1848  0.0752  2.2536
 2221TIP3    H230859   7.038   3.121  19.704 -0.0963 -0.0356 -0.7510
 2222TIP3   OH230860   1.083   1.679  16.957 -0.0740  0.8921 -0.2027
 2222TIP3    H130861   0.992   1.648  16.959  0.1212  0.2595 -0.7260
 2222TIP3    H230862   1.090   1.737  17.032 -0.6984  0.3264  0.3066
 2223TIP3   OH230863   6.676   7.173  17.418 -0.0733 -0.4553  0.0498
 2223TIP3    H130864   6.701   7.170  17.511 -1.2249  1.7298  0.4861
 2223TIP3    H230865   6.759   7.187  17.372  0.5957 -2.1092  0.6456
 2224TIP3   OH230866   1.698   1.050  18.191 -0.3436 -0.3632  0.1665
 2224TIP3    H130867   1.666   1.039  18.281 -1.3885 -0.0762 -0.1581
 2224TIP3    H230868   1.769   1.114  18.199 -1.2251  0.5838  0.6477
 2225TIP3   OH230869   0.690   3.727  17.468  0.0593  0.1958  0.4914
 2225TIP3    H130870   0.725   3.702  17.554 -2.2378  0.5481  1.6363
 2225TIP3    H230871   0.602   3.688  17.467  0.1858 -0.1377 -1.9069
 2226TIP3   OH230872   3.816   6.872  17.200  0.4328 -0.1493 -0.0558
 2226TIP3    H130873   3.736   6.925  17.205  0.0960 -0.7378  1.3093
 2226TIP3    H230874   3.865   6.909  17.127 -0.3341  1.2892  0.1284
 2227TIP3   OH230875   0.752   5.717  17.156 -0.4251 -0.2740  0.2040
 2227TIP3    H130876   0.689   5.788  17.140  0.6028  0.6394  0.1220
 2227TIP3    H230877   0.822   5.758  17.206 -0.0273 -1.3566  0.5556
 2228TIP3   OH230878   0.076   3.990  17.736 -0.1100 -0.1647  0.0080
 2228TIP3    H130879  -0.006   4.024  17.770 -0.8848 -0.4613 -1.4759
 2228TIP3    H230880   0.082   3.901  17.772 -0.3582 -0.0830  0.2512
 2229TIP3   OH230881   1.514   4.015  18.545 -0.4112 -0.1944  0.1294
 2229TIP3    H130882   1.440   4.045  18.598  0.6887  0.2261  1.4752
 2229TIP3    H230883   1.499   3.921  18.533 -1.8289  0.1159 -0.7527
 2230TIP3   OH230884   3.166   3.606  18.252 -0.3810  0.2498 -0.2446
 2230TIP3    H130885   3.213   3.688  18.243  1.2852 -0.8362 -2.4768
 2230TIP3    H230886   3.233   3.543  18.278 -1.5875 -0.4908  1.2413
 2231TIP3   OH230887   2.059   2.030  17.034  1.4105 -0.5272  0.2694
 2231TIP3    H130888   2.136   2.013  16.980  1.6491  1.5121 -0.0976
 2231TIP3    H230889   1.994   2.066  16.974  0.9567 -0.1273  0.9808
 2232TIP3   OH230890   4.322   7.419  18.071  0.1811 -0.1840  0.4806
 2232TIP3    H130891   4.269   7.346  18.040  1.4904 -0.8454 -0.3095
 2232TIP3    H230892   4.279   7.448  18.152 -1.5229 -0.4737 -0.2911
 2233TIP3   OH230893   3.962   1.303  17.984 -0.2847 -0.0540  0.3755
 2233TIP3    H130894   4.051   1.326  18.010 -1.3146  2.6319  1.9673
 2233TIP3    H230895   3.941   1.364  17.913 -1.3370  0.3708  1.0345
 2234TIP3   OH230896   0.843   3.219  16.500 -0.2896  0.0308  0.4455
 2234TIP3    H130897   0.767   3.160  16.505 -1.6395  1.7255  0.8566
 2234TIP3    H230898   0.807   3.302  16.470  1.6664  0.5251 -0.7173
 2235TIP3   OH230899   4.797   1.799  19.147  0.0076  0.1903  0.4717
 2235TIP3    H130900   4.714   1.752  19.147 -0.6389  1.1696 -2.1063
 2235TIP3    H230901   4.859   1.739  19.107 -0.0313  0.3069  0.2329
 2236TIP3   OH230902   7.319   2.997  16.500 -0.1446 -0.1288  0.5960
 2236TIP3    H130903   7.382   3.067  16.483  0.9750 -0.7128  2.1088
 2236TIP3    H230904   7.373   2.919  16.514 -1.3212 -1.1060 -0.0850
 2237TIP3   OH230905   2.160   1.337  18.626 -0.3901 -0.0529 -0.4108
 2237TIP3    H130906   2.104   1.259  18.620 -0.3483  0.0203 -2.7025
 2237TIP3    H230907   2.134   1.391  18.551  3.2757 -0.4201 -2.1867
 2238TIP3   OH230908   1.639   3.180  17.285 -0.6502 -0.3565  0.0091
 2238TIP3    H130909   1.662   3.270  17.265 -1.1385  0.0293  1.1184
 2238TIP3    H230910   1.701   3.128  17.235  1.5793  0.6325  1.5964
 2239TIP3   OH230911   7.395   1.275  18.248 -0.5130 -0.7102  0.1366
 2239TIP3    H130912   7.401   1.290  18.154  0.4736 -1.7229  0.0125
 2239TIP3    H230913   7.452   1.342  18.287 -1.0520 -0.1857  0.0419
 2240TIP3   OH230914   3.112   1.533  16.658  0.1766 -0.4078 -0.0589
 2240TIP3    H130915   3.025   1.505  16.629 -0.1317 -0.8172  1.1745
 2240TIP3    H230916   3.108   1.528  16.754  1.0687  1.0400  0.0988
 2241TIP3   OH230917   1.057   7.145  19.651 -0.1876 -0.3968 -0.5249
 2241TIP3    H130918   1.151   7.127  19.653 -0.3029 -1.0759 -0.8719
 2241TIP3    H230919   1.046   7.225  19.702  0.5139 -0.6255 -0.0002
 2242TIP3   OH230920   5.392   6.857  17.239  0.4064  0.1165  0.6285
 2242TIP3    H130921   5.427   6.835  17.153  1.4085  0.5268  0.9229
 2242TIP3    H230922   5.335   6.932  17.224  0.3970  0.0454  0.3010
 2243TIP3   OH230923   0.901   1.381  17.206  0.8996 -0.2098  0.1759
 2243TIP3    H130924   0.909   1.374  17.301  1.0868  0.2263  0.1948
 2243TIP3    H230925   0.971   1.326  17.172  0.1038 -1.3205  0.2684
 2244TIP3   OH230926   1.721   1.746  19.534 -0.5153  0.0783 -0.1621
 2244TIP3    H130927   1.777   1.813  19.495 -0.1526 -0.7331 -1.0967
 2244TIP3    H230928   1.709   1.774  19.624  0.5300  0.8268 -0.2345
 2245TIP3   OH230929   2.413   3.161  19.413 -0.4163  0.3023 -0.0716
 2245TIP3    H130930   2.502   3.136  19.439 -0.2393  0.9392 -0.0381
 2245TIP3    H230931   2.380   3.085  19.365  0.9069  0.7808 -1.9023
 2246TIP3   OH230932   5.470   3.317  18.207  0.0690 -0.0449  0.1476
 2246TIP3    H130933   5.484   3.293  18.298 -2.0305 -1.3534  0.1861
 2246TIP3    H230934   5.376   3.310  18.194  0.4130 -1.0491 -2.4216
 2247TIP3   OH230935   4.687   7.178  19.197 -0.1147 -0.2066  0.1503
 2247TIP3    H130936   4.737   7.117  19.251  0.8130  0.5880  0.2148
 2247TIP3    H230937   4.604   7.188  19.242 -0.1428 -1.1357  0.3269
 2248TIP3   OH230938   0.717   1.131  17.785 -0.5852  0.1957 -0.0442
 2248TIP3    H130939   0.730   1.081  17.866  0.3765  0.8104  0.2043
 2248TIP3    H230940   0.653   1.199  17.808  0.2382  0.8316  0.4325
 2249TIP3   OH230941   0.439   4.587  19.364 -0.2995 -0.5210  0.4775
 2249TIP3    H130942   0.419   4.674  19.330 -0.8313 -1.1177 -0.7970
 2249TIP3    H230943   0.531   4.573  19.340 -0.3539 -0.5006  0.2571
 2250TIP3   OH230944   0.067   7.310  18.515  0.6989  0.2199  0.6806
 2250TIP3    H130945   0.162   7.318  18.508  0.8404 -0.7305  1.2629
 2250TIP3    H230946   0.037   7.398  18.538  1.9226 -0.2254  4.9671
 2251TIP3   OH230947   1.135   1.589  18.448  0.0678  0.2878  0.1135
 2251TIP3    H130948   1.226   1.612  18.468  0.1049 -0.5735  1.0633
 2251TIP3    H230949   1.098   1.565  18.533 -0.3220 -1.7479 -0.5612
 2252TIP3   OH230950   0.595   0.486  19.033  0.7393  0.4124  0.3130
 2252TIP3    H130951   0.569   0.411  18.980  1.4367  0.0020  0.5395
 2252TIP3    H230952   0.513   0.532  19.051  0.5614  1.1116 -1.9037
 2253TIP3   OH230953   0.885   5.863  18.334 -0.0248  0.0902  0.1979
 2253TIP3    H130954   0.832   5.941  18.347  0.6357  0.4776  0.6210
 2253TIP3    H230955   0.825   5.790  18.350 -0.4879  0.5189  0.4178
 2254TIP3   OH230956   1.320   4.194  19.009 -0.3317  0.4997 -0.2092
 2254TIP3    H130957   1.288   4.245  19.084 -1.8343  0.2459 -0.6344
 2254TIP3    H230958   1.370   4.256  18.957 -1.3109  1.3122 -0.2145
 2255TIP3   OH230959   6.812   5.416  18.421  0.2744 -0.0764 -0.4018
 2255TIP3    H130960   6.785   5.350  18.485  2.3044 -0.0359  0.5642
 2255TIP3    H230961   6.807   5.499  18.469 -1.2982  0.3848 -1.3092
 2256TIP3   OH230962   7.196   7.008  17.108  0.4686  1.2246 -0.2946
 2256TIP3    H130963   7.201   7.079  17.044  0.3093  1.2338 -0.2972
 2256TIP3    H230964   7.171   6.931  17.057  0.3861  1.2223 -0.2505
 2257TIP3   OH230965   0.508   6.522  17.724 -0.8143 -0.2999  0.4254
 2257TIP3    H130966   0.566   6.586  17.683  1.0962 -0.7074  2.2829
 2257TIP3    H230967   0.501   6.552  17.815 -0.3149 -2.3765  1.2062
 2258TIP3   OH230968   5.571   5.826  18.652 -0.2753  0.3361 -0.7306
 2258TIP3    H130969   5.512   5.901  18.646  0.4955  1.1228  0.8745
 2258TIP3    H230970   5.650   5.854  18.606  0.0966  0.6178  0.0628
 2259TIP3   OH230971   6.970   1.399  17.507 -0.2011  0.3041 -0.0153
 2259TIP3    H130972   7.045   1.446  17.470 -0.0495  0.3135  0.3065
 2259TIP3    H230973   6.897   1.461  17.499  0.1875  0.9481  1.2348
 2260TIP3   OH230974   6.575   2.836  19.464 -0.0055  0.2260 -0.6317
 2260TIP3    H130975   6.638   2.884  19.518 -0.1208  1.4342 -1.5337
 2260TIP3    H230976   6.502   2.898  19.452  0.5941  0.5444 -3.2742
 2261TIP3   OH230977   3.474   4.213  17.318  0.0020  0.3809  0.4584
 2261TIP3    H130978   3.407   4.165  17.366  0.3826 -0.6614 -0.0320
 2261TIP3    H230979   3.490   4.161  17.240  0.5934  1.1938  0.0258
 2262TIP3   OH230980   2.528   1.028  18.911 -0.5017  0.4808  0.3693
 2262TIP3    H130981   2.586   1.031  18.835  2.8992 -0.9236  2.6386
 2262TIP3    H230982   2.485   0.943  18.906 -1.6524  1.1123 -0.8236
 2263TIP3   OH230983   6.346   1.819  18.628 -0.2069  0.6636  0.0747
 2263TIP3    H130984   6.347   1.898  18.682  0.0337  1.3289 -0.8790
 2263TIP3    H230985   6.267   1.772  18.656  0.8908  0.0252  2.3255
 2264TIP3   OH230986   5.955   0.454  17.255  0.1352  0.3619 -0.4083
 2264TIP3    H130987   5.971   0.487  17.344  1.3771 -1.1210 -0.0454
 2264TIP3    H230988   5.998   0.518  17.198  2.7378 -0.6304  0.2866
 2265TIP3   OH230989   6.123   4.056  18.473 -0.3067  0.3911  0.3123
 2265TIP3    H130990   6.064   4.106  18.529 -0.0333  0.5838  0.4287
 2265TIP3    H230991   6.156   3.987  18.530  0.4345  0.9423  0.5665
 2266TIP3   OH230992   3.758   6.253  18.540 -0.7262  0.2574  0.4070
 2266TIP3    H130993   3.801   6.168  18.543  2.3436  1.6903  2.8765
 2266TIP3    H230994   3.775   6.285  18.451  1.5542 -0.1875  0.6077
 2267TIP3   OH230995   4.647   5.468  17.407 -0.2316  0.4021  0.1882
 2267TIP3    H130996   4.616   5.494  17.320  0.8192  1.7818  0.2007
 2267TIP3    H230997   4.584   5.507  17.468 -0.6168 -0.0444  0.0838
 2268TIP3   OH230998   2.287   1.900  18.380  0.5130 -0.3531  0.0737
 2268TIP3    H130999   2.211   1.928  18.330  0.0614  1.0721  1.4831
 2268TIP3    H231000   2.350   1.972  18.372  0.0069  0.4360  2.3526
 2269TIP3   OH231001   5.590   4.320  18.244  0.3658  0.8936 -0.0339
 2269TIP3    H131002   5.503   4.358  18.258  0.5097  0.4557  2.6786
 2269TIP3    H231003   5.585   4.234  18.286  1.8580  0.5024 -0.6066
 2270TIP3   OH231004   0.903   4.780  17.440 -0.4449 -0.4417  0.1931
 2270TIP3    H131005   0.813   4.776  17.471 -0.6449 -2.6867 -0.5401
 2270TIP3    H231006   0.898   4.753  17.348  0.9607 -0.4845  0.1111
 2271TIP3   OH231007   0.619   6.346  18.768  0.2357 -0.1048 -0.3349
 2271TIP3    H131008   0.587   6.284  18.833  0.8887  0.1095  0.2074
 2271TIP3    H231009   0.614   6.431  18.812  1.2552 -0.0333 -0.3250
 2272TIP3   OH231010   3.797   4.963  17.157  0.1453  0.1660 -0.0846
 2272TIP3    H131011   3.838   4.879  17.136  1.5802  0.8548 -0.1878
 2272TIP3    H231012   3.703   4.947  17.150  0.4109 -1.2972 -0.5900
 2273TIP3   OH231013   0.127   3.045  18.636 -0.2668  0.0509 -0.1742
 2273TIP3    H131014   0.113   3.140  18.643  0.7539  0.2014 -0.0188
 2273TIP3    H231015   0.056   3.015  18.578  0.0282  1.0768 -1.1139
 2274TIP3   OH231016   2.716   5.098  18.263 -0.1351 -0.0358  0.0081
 2274TIP3    H131017   2.683   5.186  18.245 -1.2261 -0.5617 -0.6546
 2274TIP3    H231018   2.761   5.073  18.182 -0.4335 -0.3555 -0.0589
 2275TIP3   OH231019   6.245   0.000  17.349  0.4424 -0.5862 -0.1090
 2275TIP3    H131020   6.228   0.084  17.305  0.2033 -1.4142 -1.6781
 2275TIP3    H231021   6.184  -0.000  17.423  0.1621  0.4465 -0.3138
 2276TIP3   OH231022   5.123   6.431  18.652  0.3490 -0.0411 -0.1760
 2276TIP3    H131023   5.205   6.456  18.693 -0.0147 -0.7631  1.0510
 2276TIP3    H231024   5.120   6.336  18.660 -1.3913  0.0927  1.4239
 2277TIP3   OH231025   3.347   6.813  18.342 -0.5843  0.2134 -0.1368
 2277TIP3    H131026   3.309   6.725  18.345 -0.3713  0.1031 -0.4638
 2277TIP3    H231027   3.442   6.797  18.340 -0.4151  0.5208  2.3870
 2278TIP3   OH231028   4.128   6.587  17.449 -0.0655 -0.1951  0.5479
 2278TIP3    H131029   4.211   6.539  17.454  1.3592  2.0999  0.3678
 2278TIP3    H231030   4.070   6.529  17.400  2.5283 -0.4958 -2.5131
 2279TIP3   OH231031   3.590   7.540  18.279  0.4364  0.2340  0.2529
 2279TIP3    H131032   3.624   7.620  18.319 -0.8549  1.9913 -1.9584
 2279TIP3    H231033   3.518   7.569  18.223 -1.1609 -2.6906  0.5775
 2280TIP3   OH231034   0.086   4.727  17.761 -0.0887  0.2608  0.4580
 2280TIP3    H131035   0.132   4.754  17.840 -0.1634 -0.3477  0.7145
 2280TIP3    H231036   0.043   4.645  17.785 -0.6903  0.4288 -0.0028
 2281TIP3   OH231037   7.420   0.098  18.570 -0.0136  0.3250 -0.0473
 2281TIP3    H131038   7.463   0.182  18.554 -1.5056  0.9642 -1.0326
 2281TIP3    H231039   7.327   0.120  18.575 -0.5094 -1.3327 -1.0178
 2282TIP3   OH231040   6.453   4.156  17.624 -0.8066 -0.8704 -0.0114
 2282TIP3    H131041   6.472   4.103  17.702 -1.6370 -1.2885 -0.0749
 2282TIP3    H231042   6.506   4.118  17.555 -0.7884 -1.1085  0.1322
 2283TIP3   OH231043   5.584   6.429  19.229  0.0287  0.5717 -0.2858
 2283TIP3    H131044   5.562   6.348  19.274  1.3171  0.2670 -0.1915
 2283TIP3    H231045   5.601   6.402  19.139 -3.1660  1.2554 -1.2210
 2284TIP3   OH231046   4.187   1.490  18.282  0.7114 -0.2061 -0.0707
 2284TIP3    H131047   4.151   1.439  18.355  1.7447  0.5175  0.9660
 2284TIP3    H231048   4.266   1.531  18.317  0.1317  1.8146 -0.9720
 2285TIP3   OH231049   3.943   5.309  18.959 -0.5963 -0.3009  0.2181
 2285TIP3    H131050   4.030   5.349  18.967  0.0604 -1.1492 -1.8654
 2285TIP3    H231051   3.960   5.215  18.967 -1.6474 -0.3855  1.7741
 2286TIP3   OH231052   4.631   4.170  17.308 -0.2297  0.0851  0.4492
 2286TIP3    H131053   4.688   4.099  17.280 -1.0034  0.8825 -3.7925
 2286TIP3    H231054   4.542   4.134  17.301 -0.5239  0.0689  3.1229
 2287TIP3   OH231055   4.978   0.542  17.839 -0.9065  0.1202  0.0541
 2287TIP3    H131056   4.932   0.583  17.766 -0.2762 -0.2311 -0.5455
 2287TIP3    H231057   5.065   0.582  17.839 -1.2154  0.8688  1.2572
 2288TIP3   OH231058   5.964   0.695  18.030 -0.6350  0.2023  0.0650
 2288TIP3    H131059   5.981   0.718  17.939 -1.4616  0.1617 -0.1065
 2288TIP3    H231060   5.952   0.600  18.028  2.5516 -0.3373  0.7375
 2289TIP3   OH231061   4.263   1.016  18.703 -0.2907 -0.8745  0.8997
 2289TIP3    H131062   4.276   0.936  18.755  1.3252 -1.2002  0.0668
 2289TIP3    H231063   4.349   1.058  18.703 -0.6274 -0.1558 -0.3115
 2290TIP3   OH231064   6.469   5.166  18.286  0.7039 -0.0136 -0.2027
 2290TIP3    H131065   6.390   5.213  18.256  1.6819  1.3666 -0.7099
 2290TIP3    H231066   6.473   5.184  18.380  0.4150 -0.0881 -0.1749
 2291TIP3   OH231067   0.861   6.833  18.763 -0.5206  0.1720  0.3535
 2291TIP3    H131068   0.935   6.870  18.714 -1.6496 -0.6897 -2.1695
 2291TIP3    H231069   0.878   6.739  18.764 -1.2416  0.0360  0.3412
 2292TIP3   OH231070   3.405   6.502  17.792  0.9378 -0.2356 -0.3929
 2292TIP3    H131071   3.339   6.470  17.853  1.4627 -0.4608  0.0697
 2292TIP3    H231072   3.422   6.591  17.820 -0.0952  0.2718 -1.3145
 2293TIP3   OH231073   5.554   1.445  17.542 -0.3843 -0.1914  0.5271
 2293TIP3    H131074   5.639   1.486  17.528 -1.0250  0.5787 -1.4884
 2293TIP3    H231075   5.518   1.434  17.454 -1.3851 -2.7004  1.1843
 2294TIP3   OH231076   1.318   4.160  17.040  0.2779  0.7777 -0.2156
 2294TIP3    H131077   1.259   4.143  16.966 -0.6147  2.2253  0.1204
 2294TIP3    H231078   1.300   4.251  17.064 -0.1792  0.0697  2.4127
 2295TIP3   OH231079   5.670   1.402  18.447 -0.0824  0.4746 -0.2547
 2295TIP3    H131080   5.604   1.391  18.515  0.3077  0.2780  0.0939
 2295TIP3    H231081   5.643   1.482  18.401 -0.3748  0.5799  0.0940
 2296TIP3   OH231082   3.288   7.562  19.416 -0.5447 -0.0401 -0.3282
 2296TIP3    H131083   3.384   7.561  19.420 -0.4789  0.2135 -1.3854
 2296TIP3    H231084   3.262   7.470  19.416 -0.2985 -0.1103 -0.1467
 2297TIP3   OH231085   6.890   4.795  18.648  0.2918 -0.2581  0.2051
 2297TIP3    H131086   6.924   4.846  18.721  0.6477 -2.4176  1.6384
 2297TIP3    H231087   6.855   4.716  18.688 -1.9646 -0.3421 -1.7276
 2298TIP3   OH231088   2.154   5.498  17.386  0.0942  0.1806  0.4238
 2298TIP3    H131089   2.222   5.480  17.452 -0.4454 -2.6137  0.3417
 2298TIP3    H231090   2.075   5.514  17.437 -0.4477 -2.5226  0.5671
 2299TIP3   OH231091   0.334   4.579  18.144 -0.2741  0.0032  0.7468
 2299TIP3    H131092   0.242   4.557  18.135 -1.1458  2.3004  3.0333
 2299TIP3    H231093   0.344   4.663  18.100  0.3255  0.6145  2.0179
 2300TIP3   OH231094   5.526   3.163  17.543  0.4706  0.2367 -0.3188
 2300TIP3    H131095   5.456   3.207  17.496  0.7463  1.3601  0.2995
 2300TIP3    H231096   5.498   3.161  17.634  1.0478  0.3275 -0.1310
 2301TIP3   OH231097   5.827   7.609  19.191  0.0407 -0.6504  0.3867
 2301TIP3    H131098   5.745   7.660  19.194 -0.8291 -2.0081  0.6624
 2301TIP3    H231099   5.816   7.543  19.259  1.5737 -0.6001  0.6987
 2302TIP3   OH231100   5.637   1.216  17.736  0.1643  0.1483 -0.2770
 2302TIP3    H131101   5.544   1.210  17.756 -0.2497  0.7435 -1.9021
 2302TIP3    H231102   5.651   1.308  17.715  1.3752  0.2978  0.9959
 2303TIP3   OH231103   6.101   7.137  18.871  0.3544  0.2782  0.2866
 2303TIP3    H131104   6.015   7.163  18.903 -0.5949 -0.8479 -1.1979
 2303TIP3    H231105   6.162   7.170  18.937 -1.3758 -1.1731  2.8083
 2304TIP3   OH231106   2.422   0.615  18.229  0.1506  0.5801  0.5715
 2304TIP3    H131107   2.442   0.706  18.210  0.2843  0.7273  1.3901
 2304TIP3    H231108   2.370   0.586  18.154  3.7215  0.0099 -1.9445
 2305TIP3   OH231109   0.639   4.736  19.073 -0.3342  0.4475  0.0546
 2305TIP3    H131110   0.558   4.755  19.120 -1.4856  0.0110 -1.6505
 2305TIP3    H231111   0.695   4.693  19.137 -1.3190  1.0504  1.3597
 2306TIP3   OH231112   2.709   6.859  19.301 -0.0798  0.1737 -0.5430
 2306TIP3    H131113   2.792   6.874  19.347 -0.2089  0.0534 -0.2621
 2306TIP3    H231114   2.722   6.778  19.252  0.5630  1.0877 -1.9276
 2307TIP3   OH231115   2.460   2.164  19.382 -0.2485  0.0582 -0.0125
 2307TIP3    H131116   2.503   2.133  19.461  1.0851 -2.1583 -1.5044
 2307TIP3    H231117   2.456   2.259  19.394  0.7505 -0.1098  2.2903
 2308TIP3   OH231118   1.938   2.877  18.964  0.1369 -0.3555  0.0079
 2308TIP3    H131119   2.013   2.828  18.931 -0.4656 -1.8663  0.8151
 2308TIP3    H231120   1.893   2.906  18.885  2.9776  3.0446 -0.6247
 2309TIP3   OH231121   4.601   6.058  18.970  0.3827 -0.1725 -0.2786
 2309TIP3    H131122   4.576   5.970  18.944  0.0286  0.2995 -1.6115
 2309TIP3    H231123   4.522   6.110  18.958  0.9290  0.5757 -0.7377
 2310TIP3   OH231124   3.948   2.184  18.786 -0.2279  0.6673  0.1111
 2310TIP3    H131125   3.974   2.092  18.786  1.1373  0.8056 -4.0010
 2310TIP3    H231126   4.021   2.230  18.828 -0.8928 -0.0345  2.1326
 2311TIP3   OH231127   3.212   6.986  16.956 -0.3121 -0.0956  0.7575
 2311TIP3    H131128   3.257   6.987  16.871 -0.2262  0.2576  0.8093
 2311TIP3    H231129   3.195   6.893  16.972  0.8225 -0.2828  0.9623
 2312TIP3   OH231130   0.015   3.933  19.630 -0.1399 -0.3706 -0.6548
 2312TIP3    H131131  -0.020   4.004  19.578  0.9136 -0.6249 -1.7475
 2312TIP3    H231132   0.109   3.949  19.633  0.0825 -1.5492 -0.6793
 2313TIP3   OH231133   1.434   0.282  18.288  0.1292 -0.1177  0.7656
 2313TIP3    H131134   1.433   0.202  18.235  0.0455  0.8817 -0.8215
 2313TIP3    H231135   1.494   0.340  18.242 -0.6082  1.1060  1.2992
 2314TIP3   OH231136   0.981   7.091  18.447 -0.1924 -0.4174  0.6671
 2314TIP3    H131137   0.978   7.065  18.539 -2.1765 -2.4999  0.0854
 2314TIP3    H231138   0.976   7.187  18.449 -1.9050 -0.4907  2.7041
 2315TIP3   OH231139   2.151   6.638  17.574 -0.5390  0.1634  0.0059
 2315TIP3    H131140   2.245   6.649  17.560 -0.1778 -0.4182  1.6266
 2315TIP3    H231141   2.117   6.609  17.490  0.4866  1.7068 -0.9835
 2316TIP3   OH231142   0.068   1.830  18.323 -0.2288 -0.0542 -0.5794
 2316TIP3    H131143   0.148   1.872  18.291 -0.0544  0.2484  0.2355
 2316TIP3    H231144   0.080   1.825  18.418 -0.6501 -1.1297 -0.5769
 2317TIP3   OH231145   5.654   7.197  19.115  0.7243 -0.3108 -0.2473
 2317TIP3    H131146   5.719   7.129  19.127  0.3032 -0.6063  0.3842
 2317TIP3    H231147   5.577   7.151  19.082  1.4529  0.3032 -3.0698
 2318TIP3   OH231148   6.031   5.670  17.044  0.1466 -0.1085 -0.3691
 2318TIP3    H131149   6.053   5.579  17.063  0.9392 -0.0753 -1.0683
 2318TIP3    H231150   6.105   5.720  17.079 -1.3602  0.5115  2.1710
 2319TIP3   OH231151   1.475   4.036  17.966 -0.5190 -0.2288 -0.5244
 2319TIP3    H131152   1.522   4.113  17.999 -1.3220 -0.3001  0.8495
 2319TIP3    H231153   1.543   3.969  17.955  0.0864  0.4702 -1.1260
 2320TIP3   OH231154   5.309   6.423  19.147  0.4496 -0.0387  0.0582
 2320TIP3    H131155   5.255   6.405  19.224 -0.2548  0.3034 -0.3412
 2320TIP3    H231156   5.377   6.482  19.179 -0.0028  0.3226  0.3660
 2321TIP3   OH231157   0.031   6.100  17.555 -0.2650 -0.1968 -0.1758
 2321TIP3    H131158  -0.060   6.075  17.574 -0.3451 -0.4192 -0.8308
 2321TIP3    H231159   0.054   6.049  17.478  0.7680 -0.9137  0.5965
 2322TIP3   OH231160   5.424   4.546  17.008 -0.5582 -0.2081 -0.1523
 2322TIP3    H131161   5.506   4.596  17.007 -0.6953  0.0422  0.6940
 2322TIP3    H231162   5.389   4.558  17.096 -2.1041  0.6578 -0.8392
 2323TIP3   OH231163   5.962   3.650  19.394 -0.6044  0.0645  0.1041
 2323TIP3    H131164   5.877   3.620  19.425  0.0602 -0.8854  1.0801
 2323TIP3    H231165   5.991   3.583  19.332 -0.4602  0.2611 -0.0435
 2324TIP3   OH231166   4.019   3.065  19.254 -0.3766 -0.5460  0.5430
 2324TIP3    H131167   4.032   2.971  19.262 -1.7501 -0.8166 -0.0352
 2324TIP3    H231168   3.969   3.089  19.332 -0.1458 -0.3164  0.6216
 2325TIP3   OH231169   6.137   0.553  18.434  0.2529  0.4216  0.0766
 2325TIP3    H131170   6.090   0.475  18.463 -0.1111  0.6150  0.0099
 2325TIP3    H231171   6.198   0.571  18.506 -0.3658  0.6656  0.5581
 2326TIP3   OH231172   5.627   3.461  16.820 -0.0082 -0.5028  0.2606
 2326TIP3    H131173   5.632   3.532  16.756 -0.5270 -1.1858 -0.5678
 2326TIP3    H231174   5.541   3.472  16.860 -0.1712 -0.7801 -0.0124
 2327TIP3   OH231175   2.164   3.639  17.831  0.3196  0.0436  0.0313
 2327TIP3    H131176   2.196   3.569  17.888  0.0034 -0.4123 -0.3398
 2327TIP3    H231177   2.115   3.593  17.763 -0.9545  0.7153  0.4724
 2328TIP3   OH231178   4.318   6.308  18.428  0.7056  0.1463 -0.0494
 2328TIP3    H131179   4.272   6.340  18.350  1.3774 -0.3489 -0.6580
 2328TIP3    H231180   4.344   6.388  18.474  0.2906  0.4461 -0.3171
 2329TIP3   OH231181   5.491   1.947  16.996  0.2369 -0.2104  0.0252
 2329TIP3    H131182   5.405   1.909  16.978 -0.7697  1.3885  1.2375
 2329TIP3    H231183   5.501   1.939  17.091  1.3237 -0.1416 -0.0739
 2330TIP3   OH231184   7.593   5.749  18.936  0.0831 -0.6844  0.3659
 2330TIP3    H131185   7.660   5.705  18.989  1.3322  0.2834 -0.3717
 2330TIP3    H231186   7.524   5.770  18.999  1.7879  1.0030  1.8133
 2331TIP3   OH231187   5.761   3.163  18.753 -0.0357  0.0796  0.4962
 2331TIP3    H131188   5.685   3.108  18.733  0.0645 -0.0145  0.3705
 2331TIP3    H231189   5.836   3.103  18.750  0.1246  0.3000 -0.0692
 2332TIP3   OH231190   6.518   3.756  17.150 -0.2376  0.3442 -0.2518
 2332TIP3    H131191   6.424   3.775  17.151 -0.5540 -1.0248 -0.6810
 2332TIP3    H231192   6.522   3.660  17.145  1.1483  0.4394 -1.8991
 2333TIP3   OH231193   3.081   3.553  19.477  0.2362  0.0451  0.2576
 2333TIP3    H131194   3.104   3.595  19.560  0.5080  1.7889 -0.6410
 2333TIP3    H231195   2.986   3.561  19.472  0.2641  0.3781  0.2004
 2334TIP3   OH231196   5.026   5.662  18.285 -0.0519 -0.1607 -0.5280
 2334TIP3    H131197   4.973   5.705  18.219 -0.9887  1.4899  1.2072
 2334TIP3    H231198   4.976   5.584  18.310 -0.3722 -0.0275 -0.7574
 2335TIP3   OH231199   4.086   2.069  18.520  0.3947 -0.5928 -0.2855
 2335TIP3    H131200   4.022   2.006  18.552  1.1661 -0.3238  1.9336
 2335TIP3    H231201   4.171   2.028  18.535  0.8970  0.7561  0.7946
 2336TIP3   OH231202   5.814   5.971  17.564 -0.3874 -1.1929  0.1100
 2336TIP3    H131203   5.740   5.967  17.624 -1.6474  0.8306 -1.1958
 2336TIP3    H231204   5.789   5.915  17.491  0.4433 -2.3628  0.6825
 2337TIP3   OH231205   0.426   5.523  17.878  0.3461  0.3394  0.6811
 2337TIP3    H131206   0.345   5.473  17.872  1.3131 -1.2023 -0.2742
 2337TIP3    H231207   0.420   5.587  17.807  1.2038 -1.7846 -1.4430
 2338TIP3   OH231208   4.555   0.513  17.667  0.7331  0.1639 -0.4898
 2338TIP3    H131209   4.569   0.451  17.596 -0.3094 -0.4283 -0.2026
 2338TIP3    H231210   4.566   0.599  17.626 -0.5156 -0.1440 -1.5559
 2339TIP3   OH231211   4.297   4.534  18.486  0.2015  0.2516 -0.2307
 2339TIP3    H131212   4.393   4.536  18.496  0.2359 -0.1929 -0.4346
 2339TIP3    H231213   4.265   4.594  18.553  0.5301 -0.9900  1.0910
 2340TIP3   OH231214   1.865   7.422  18.208 -0.4997 -0.0764 -0.4349
 2340TIP3    H131215   1.947   7.380  18.185 -0.0321  0.1124  0.8590
 2340TIP3    H231216   1.809   7.352  18.240 -1.3791 -0.4493 -2.6015
 2341TIP3   OH231217   6.792   6.086  18.131  0.4870  0.5395 -0.1260
 2341TIP3    H131218   6.764   6.046  18.049  2.7166  0.2049 -0.7793
 2341TIP3    H231219   6.710   6.115  18.172 -0.7119  0.5868 -2.3654
 2342TIP3   OH231220   6.528   0.975  18.665 -0.0229 -0.1844  0.1864
 2342TIP3    H131221   6.501   0.885  18.648 -0.0726 -0.7333  2.7966
 2342TIP3    H231222   6.447   1.026  18.663  0.0150 -0.1394 -1.3642
 2343TIP3   OH231223   2.049   4.766  18.198  0.3801  0.0455  0.4409
 2343TIP3    H131224   2.091   4.842  18.237 -0.0922  0.2749  0.5088
 2343TIP3    H231225   1.959   4.768  18.232  0.8464 -1.5928  2.0115
 2344TIP3   OH231226   5.863   1.429  16.510 -0.0133 -0.6277  0.2597
 2344TIP3    H131227   5.820   1.459  16.589  1.4327  0.3888  0.7105
 2344TIP3    H231228   5.807   1.359  16.476 -1.5232  0.0714  1.2469
 2345TIP3   OH231229   4.142   3.066  17.779  0.2423  0.6524 -0.6561
 2345TIP3    H131230   4.202   3.113  17.836  1.2530 -0.5001 -0.7153
 2345TIP3    H231231   4.097   3.005  17.837  0.5727  0.1482 -0.9182
 2346TIP3   OH231232   3.969   6.542  19.559  0.2773 -0.4605 -0.4016
 2346TIP3    H131233   3.990   6.558  19.467 -2.8420  0.5136 -1.0396
 2346TIP3    H231234   3.930   6.454  19.560 -3.4130  0.9938 -0.8634
 2347TIP3   OH231235   7.234   3.285  19.560 -0.1014  0.0802  0.0250
 2347TIP3    H131236   7.305   3.224  19.584  0.7654  1.5465  1.3456
 2347TIP3    H231237   7.249   3.303  19.467  1.4201  0.5384  0.3310
 2348TIP3   OH231238   1.968   5.095  17.685 -0.0413  0.3947 -0.3244
 2348TIP3    H131239   1.989   5.129  17.598 -2.6708 -0.3112 -1.3420
 2348TIP3    H231240   1.916   5.164  17.726 -0.0784  0.1235  0.0985
 2349TIP3   OH231241   4.243   4.932  18.713  0.0639  0.1163 -0.8912
 2349TIP3    H131242   4.262   4.983  18.791  2.2145 -0.5724 -0.9103
 2349TIP3    H231243   4.274   4.986  18.640 -0.6341  0.1422 -1.1848
 2350TIP3   OH231244   6.667   3.112  17.124 -0.5978  0.1868  0.4487
 2350TIP3    H131245   6.581   3.107  17.083 -0.5475 -1.1532  0.4432
 2350TIP3    H231246   6.649   3.106  17.218 -0.5283  0.2103  0.4626
 2351TIP3   OH231247   1.772   6.372  18.252 -0.5807 -0.3808  0.4827
 2351TIP3    H131248   1.717   6.298  18.227 -1.2695 -0.0793  1.0731
 2351TIP3    H231249   1.843   6.372  18.188 -1.2333 -0.8093 -0.2551
 2352TIP3   OH231250   5.063   0.755  17.280  0.5133 -0.3638  0.5770
 2352TIP3    H131251   5.080   0.663  17.298  2.2277  0.0523  1.2338
 2352TIP3    H231252   5.124   0.778  17.210 -1.5650 -0.2991 -1.3227
 2353TIP3   OH231253   6.180   6.285  17.082 -0.0680 -0.0646  0.1510
 2353TIP3    H131254   6.272   6.287  17.107 -0.1816  0.5752  0.5234
 2353TIP3    H231255   6.162   6.372  17.046 -0.3600 -0.3971 -0.5435
 2354TIP3   OH231256   0.827   3.386  17.265  0.5911  0.2392 -0.3324
 2354TIP3    H131257   0.919   3.360  17.269  0.2256 -1.0983 -0.3232
 2354TIP3    H231258   0.829   3.472  17.223  1.8645  0.3527 -0.0944
 2355TIP3   OH231259   4.622   6.474  17.748 -0.1286  0.6049  0.8028
 2355TIP3    H131260   4.605   6.416  17.823  1.2061 -0.1799  0.5236
 2355TIP3    H231261   4.600   6.421  17.671 -0.1476  0.9266  0.5864
 2356TIP3   OH231262   1.905   3.999  18.241  0.0544 -0.0057  0.5462
 2356TIP3    H131263   1.919   4.056  18.316 -0.3740  0.0509  0.5887
 2356TIP3    H231264   1.978   3.938  18.243  0.1171  0.0797  0.9351
 2357TIP3   OH231265   0.266   4.066  17.124  0.4750 -0.2947 -0.4282
 2357TIP3    H131266   0.358   4.046  17.143  0.6655 -1.2820 -2.2308
 2357TIP3    H231267   0.232   3.986  17.085 -0.6548  0.6546 -1.4559
 2358TIP3   OH231268   1.668   6.267  17.503 -0.2402 -0.3348 -0.0084
 2358TIP3    H131269   1.597   6.307  17.452 -0.3926  0.2929  0.6770
 2358TIP3    H231270   1.647   6.174  17.503 -1.7675 -0.0478  1.1853
 2359TIP3   OH231271   7.419   5.508  19.292  0.3456 -0.4443 -0.1629
 2359TIP3    H131272   7.350   5.513  19.226  1.4233  0.2102 -1.2791
 2359TIP3    H231273   7.408   5.587  19.345 -0.1001 -0.6252  0.0164
 2360TIP3   OH231274   4.000   3.256  18.566  0.3643  0.4348 -0.9590
 2360TIP3    H131275   4.089   3.281  18.589  0.5762 -1.2588  0.2938
 2360TIP3    H231276   4.004   3.161  18.555 -1.8848 -0.2512  2.6080
 2361TIP3   OH231277   1.155   1.576  19.319  0.2969 -0.0451  0.2372
 2361TIP3    H131278   1.203   1.648  19.277  1.9470 -0.9348  0.4857
 2361TIP3    H231279   1.215   1.501  19.312 -1.5452 -1.5159 -0.4094
 2362TIP3   OH231280   2.475   5.845  18.144  0.7678  0.1962 -0.6666
 2362TIP3    H131281   2.413   5.788  18.100  0.2135  1.2310 -1.2754
 2362TIP3    H231282   2.537   5.786  18.187 -2.2245 -0.9882  2.4390
 2363TIP3   OH231283   4.704   4.524  18.156 -0.4118  0.1314  0.3794
 2363TIP3    H131284   4.686   4.513  18.249  2.7380 -0.4872  1.0186
 2363TIP3    H231285   4.703   4.434  18.121  0.9226  0.0946  0.3924
 2364TIP3   OH231286   2.023   0.179  17.417  0.2529  0.6746  0.2419
 2364TIP3    H131287   1.933   0.204  17.400  0.0583 -0.1475 -0.0133
 2364TIP3    H231288   2.063   0.172  17.330 -0.4442 -2.4793  0.0447
 2365TIP3   OH231289   4.895   6.981  17.900  0.4165  0.0174  0.1324
 2365TIP3    H131290   4.903   6.886  17.891 -0.5310 -0.1012  0.3677
 2365TIP3    H231291   4.816   7.004  17.850  0.1557  0.5510  0.7585
 2366TIP3   OH231292   7.260   3.894  18.533 -0.4578  0.7231  0.5567
 2366TIP3    H131293   7.327   3.920  18.596  0.9112 -0.1219 -0.4824
 2366TIP3    H231294   7.300   3.821  18.485 -1.7667  0.8171 -0.7324
 2367TIP3   OH231295   0.520   2.598  19.197 -0.0580 -0.2782  0.5598
 2367TIP3    H131296   0.526   2.513  19.153  0.5296  0.0784 -0.0850
 2367TIP3    H231297   0.517   2.577  19.290  0.3101 -1.0025  0.4170
 2368TIP3   OH231298   1.832   1.657  17.234  0.0303  0.3366 -0.5652
 2368TIP3    H131299   1.792   1.592  17.177 -0.8405  1.8501 -1.7384
 2368TIP3    H231300   1.912   1.615  17.266 -1.2582 -1.8796 -0.0170
 2369TIP3   OH231301   0.555   7.676  18.896  0.2067  0.0048 -0.6755
 2369TIP3    H131302   0.626   7.672  18.961 -1.0314 -0.8675  0.6725
 2369TIP3    H231303   0.571   7.601  18.838  0.7011  0.1606 -0.7536
 2370TIP3   OH231304   5.946   4.681  17.862  1.0140 -0.3577  0.2056
 2370TIP3    H131305   5.976   4.671  17.952 -0.3649 -0.0072  0.7228
 2370TIP3    H231306   5.956   4.594  17.824 -0.6414 -1.1320  1.4311
 2371TIP3   OH231307   4.781   0.788  17.342 -0.5456 -0.8194  0.2576
 2371TIP3    H131308   4.863   0.748  17.312 -1.1450 -0.7880 -1.5493
 2371TIP3    H231309   4.743   0.826  17.263 -1.3901  0.8524  1.4180
 2372TIP3   OH231310   1.350   1.358  19.390  0.4540  0.3185 -0.4260
 2372TIP3    H131311   1.344   1.301  19.313 -0.6122 -0.9695  0.5688
 2372TIP3    H231312   1.406   1.310  19.451 -1.3001 -0.1956  0.8390
 2373TIP3   OH231313   0.676   3.362  17.553 -0.1034 -0.5802  0.0703
 2373TIP3    H131314   0.705   3.368  17.462 -1.3854  0.4840 -0.3094
 2373TIP3    H231315   0.580   3.354  17.547 -0.2780  0.2045  1.3158
 2374TIP3   OH231316   6.107   3.467  16.823  0.4018  0.2484 -0.3782
 2374TIP3    H131317   6.016   3.476  16.794  0.6924  2.3431 -0.8129
 2374TIP3    H231318   6.148   3.409  16.760 -0.6549 -0.8713 -0.0705
 2375TIP3   OH231319   5.844   4.178  17.565  0.3700 -0.5065  0.4663
 2375TIP3    H131320   5.781   4.210  17.630  2.5129  1.2190  1.8398
 2375TIP3    H231321   5.801   4.194  17.481 -1.0963  0.4542  1.3403
 2376TIP3   OH231322   6.088   3.192  17.789  0.0117  0.1428 -0.4766
 2376TIP3    H131323   6.110   3.164  17.701  0.4237  1.4298 -0.8042
 2376TIP3    H231324   6.159   3.158  17.844  0.1474 -0.0202 -0.7519
 2377TIP3   OH231325   6.347   1.193  19.679  0.0899 -0.3595  0.1452
 2377TIP3    H131326   6.432   1.235  19.664 -0.4598  0.2606 -1.4472
 2377TIP3    H231327   6.358   1.104  19.644 -0.1611  0.0017 -0.8856
 2378TIP3   OH231328   2.236   7.182  18.936 -0.1437 -0.0025 -0.3311
 2378TIP3    H131329   2.197   7.202  18.851 -0.8222  0.6879  0.1318
 2378TIP3    H231330   2.168   7.135  18.984 -0.5723  1.4916  0.5977
 2379TIP3   OH231331   5.872   0.021  18.601 -0.3815 -0.1556 -0.0098
 2379TIP3    H131332   5.951   0.040  18.652  0.9973 -1.3417 -1.5882
 2379TIP3    H231333   5.809   0.088  18.628  2.0555  2.6186 -0.6525
 2380TIP3   OH231334   6.389   3.233  18.740 -0.0061 -0.7311  0.9771
 2380TIP3    H131335   6.316   3.279  18.698 -0.4132 -2.3528 -0.2124
 2380TIP3    H231336   6.366   3.141  18.733  3.7353 -1.7375 -2.9685
 2381TIP3   OH231337   7.410   1.587  17.897 -0.1609  0.3250 -0.5217
 2381TIP3    H131338   7.351   1.571  17.971  1.4657  0.1922  0.8258
 2381TIP3    H231339   7.382   1.671  17.862 -1.7918 -0.2168 -0.6031
 2382TIP3   OH231340   2.209   5.759  17.294  0.1902  0.1678  0.1914
 2382TIP3    H131341   2.142   5.691  17.297  1.7947 -1.4700  1.1338
 2382TIP3    H231342   2.271   5.728  17.227  0.5622  1.1081  0.0850
 2383TIP3   OH231343   7.492   6.471  18.671 -0.1644  0.0059  0.1129
 2383TIP3    H131344   7.405   6.493  18.703 -0.6099 -1.3250 -0.1400
 2383TIP3    H231345   7.478   6.401  18.608  1.2373 -1.9285  1.7896
 2384TIP3   OH231346   4.525   4.803  16.840 -0.0278  0.2823  0.1644
 2384TIP3    H131347   4.561   4.878  16.793  0.6182 -0.6124 -0.8079
 2384TIP3    H231348   4.449   4.838  16.886  0.4986  1.6147  0.0602
 2385TIP3   OH231349   3.361   3.734  17.537 -0.6219  0.0975  1.1505
 2385TIP3    H131350   3.290   3.781  17.582 -1.8560 -0.5249 -0.0646
 2385TIP3    H231351   3.318   3.692  17.462  1.5210  2.1472 -1.4294
 2386TIP3   OH231352   2.713   0.836  18.158 -0.0576 -0.1605 -0.4231
 2386TIP3    H131353   2.676   0.789  18.083 -1.3231  0.5669 -0.2814
 2386TIP3    H231354   2.796   0.872  18.125  0.1485 -1.1325 -1.0041
 2387TIP3   OH231355   4.013   2.063  17.544 -0.3734 -1.0253  0.0963
 2387TIP3    H131356   3.957   2.041  17.469  0.6597 -1.4089 -0.5979
 2387TIP3    H231357   4.070   2.133  17.511 -0.7663 -0.2892  0.9446
 2388TIP3   OH231358   0.260   1.637  18.700  0.4744  0.1717 -0.5759
 2388TIP3    H131359   0.245   1.704  18.767  0.3163  0.5189 -0.9519
 2388TIP3    H231360   0.173   1.614  18.669  0.5998  1.7523 -2.3385
 2389TIP3   OH231361   4.347   4.228  18.164 -0.0516 -0.6411  0.0757
 2389TIP3    H131362   4.379   4.318  18.158  0.1033 -0.7739 -1.5688
 2389TIP3    H231363   4.425   4.174  18.151 -0.0035 -1.0420  1.8632
 2390TIP3   OH231364   1.424   5.338  18.560 -0.4202  0.0288  0.1456
 2390TIP3    H131365   1.463   5.328  18.647 -1.1513  1.5733  0.6891
 2390TIP3    H231366   1.343   5.287  18.565 -1.0058  0.9716  0.7752
 2391TIP3   OH231367   0.256   4.148  19.033  0.3013 -0.6026  0.5415
 2391TIP3    H131368   0.235   4.082  19.099  0.2522 -0.2487  0.8886
 2391TIP3    H231369   0.343   4.124  19.001 -0.2732 -1.6181 -0.3210
 2392TIP3   OH231370   4.050   2.636  19.539  0.1633 -0.5223  0.0228
 2392TIP3    H131371   3.963   2.615  19.506  0.0699 -0.0741 -0.0136
 2392TIP3    H231372   4.056   2.589  19.623 -0.6112  0.4817  0.6623
 2393TIP3   OH231373   2.206   4.510  18.783 -0.0805  0.4082 -0.3715
 2393TIP3    H131374   2.166   4.565  18.715  1.2238  1.5629 -0.2538
 2393TIP3    H231375   2.189   4.557  18.865  0.6788  0.4478 -0.2265
 2394TIP3   OH231376   3.676   5.446  17.637  0.1199  0.5648  0.6478
 2394TIP3    H131377   3.660   5.479  17.549  2.1653  1.3678  0.5119
 2394TIP3    H231378   3.695   5.524  17.689  3.9107 -0.1504  0.5957
 2395TIP3   OH231379   1.109   3.886  18.525  0.7911  0.4792  0.1554
 2395TIP3    H131380   1.047   3.888  18.598  0.4711 -0.4115 -0.0811
 2395TIP3    H231381   1.192   3.913  18.564  0.6074  0.0854  0.8409
 2396TIP3   OH231382   7.223   5.580  19.105 -0.0929  0.0645 -0.0907
 2396TIP3    H131383   7.159   5.611  19.041 -0.6356  1.6849  1.1560
 2396TIP3    H231384   7.252   5.496  19.071 -2.3900 -0.4288 -1.0537
 2397TIP3   OH231385   0.589   1.827  17.583  0.3219  0.9782 -1.0038
 2397TIP3    H131386   0.642   1.760  17.626 -1.5334  0.2052  0.1859
 2397TIP3    H231387   0.648   1.866  17.519  1.8406 -0.9291 -0.8673
 2398TIP3   OH231388   4.185   4.038  18.989 -0.0767 -0.2459 -0.6496
 2398TIP3    H131389   4.152   3.951  18.966  2.8463 -2.1745  1.7438
 2398TIP3    H231390   4.241   4.063  18.915  0.9901 -1.5787 -0.3286
 2399TIP3   OH231391   2.629   5.109  19.176 -0.5724  0.3281  0.1246
 2399TIP3    H131392   2.597   5.078  19.261  0.9383 -0.9435  0.2739
 2399TIP3    H231393   2.616   5.036  19.117  2.2852 -0.4329  0.2853
 2400TIP3   OH231394   0.534   4.377  19.121 -0.6215 -0.0358 -0.1358
 2400TIP3    H131395   0.471   4.406  19.188 -1.5617 -1.8329 -0.1739
 2400TIP3    H231396   0.597   4.323  19.169 -1.7927 -2.0516 -0.7489
 2401TIP3   OH231397   4.100   0.534  17.891 -0.4468  0.2077 -0.0083
 2401TIP3    H131398   4.066   0.446  17.874 -0.9898 -0.2958  3.1207
 2401TIP3    H231399   4.024   0.584  17.921 -0.0308  1.6188 -1.1775
 2402TIP3   OH231400   7.071   7.032  17.880  0.1250 -0.6522  0.2311
 2402TIP3    H131401   7.098   7.122  17.863 -1.5776 -0.2870 -0.7327
 2402TIP3    H231402   7.080   7.022  17.975 -1.0348  1.0274  0.5577
 2403TIP3   OH231403   1.367   4.942  17.493 -0.1020  0.1993  0.6164
 2403TIP3    H131404   1.272   4.945  17.499 -0.1164 -0.4049  0.6696
 2403TIP3    H231405   1.386   4.859  17.451  0.4704 -0.4108  2.0187
 2404TIP3   OH231406   1.664   3.600  19.154  0.4602 -0.2311 -0.1909
 2404TIP3    H131407   1.712   3.611  19.072  1.8719 -0.9517  0.5150
 2404TIP3    H231408   1.635   3.509  19.154 -0.6058  0.0853 -0.4189
 2405TIP3   OH231409   6.275   2.189  17.101  0.1993 -0.3978 -0.6287
 2405TIP3    H131410   6.265   2.163  17.192 -1.1358 -3.5995 -1.5214
 2405TIP3    H231411   6.331   2.267  17.103  0.1904 -0.3466  2.8612
 2406TIP3   OH231412   6.001   3.914  18.035 -0.3365  0.1054 -0.0039
 2406TIP3    H131413   5.987   3.838  18.091 -0.3976  0.1986  0.1069
 2406TIP3    H231414   6.014   3.987  18.096 -1.3119  0.3798 -0.1067
 2407TIP3   OH231415   3.152   2.719  19.446 -0.7686  0.7472 -0.1585
 2407TIP3    H131416   3.191   2.793  19.493  0.2162  0.5959 -0.6914
 2407TIP3    H231417   3.190   2.724  19.358 -0.7996 -0.2947 -0.2478
 2408TIP3   OH231418   7.556   5.077  17.721 -0.1851 -0.4240  0.7349
 2408TIP3    H131419   7.528   5.161  17.758  0.8079 -0.2805  1.1825
 2408TIP3    H231420   7.488   5.015  17.749 -1.4326  0.3718 -0.3756
 2409TIP3   OH231421   7.337   3.310  16.972 -0.3355  0.2187  0.2999
 2409TIP3    H131422   7.331   3.305  16.876 -2.0988 -2.3711  0.4477
 2409TIP3    H231423   7.430   3.325  16.989 -0.0064  0.9417 -1.8070
 2410TIP3   OH231424   5.229   1.691  18.962  0.3158 -0.0815  0.1929
 2410TIP3    H131425   5.207   1.623  18.899  0.6947 -1.2466  1.2867
 2410TIP3    H231426   5.276   1.757  18.911 -2.0306  0.4978 -1.3488
 2411TIP3   OH231427   2.554   5.461  19.407 -0.4152 -0.0128  0.1587
 2411TIP3    H131428   2.561   5.443  19.313 -0.6690  1.4126 -0.1437
 2411TIP3    H231429   2.644   5.449  19.440 -0.0675  0.7218 -0.4951
 2412TIP3   OH231430   3.921   4.796  18.479  0.3945  0.8831  0.3146
 2412TIP3    H131431   3.975   4.752  18.544  0.7881  1.5947  0.4765
 2412TIP3    H231432   3.959   4.773  18.395  0.2218  0.4139  0.3644
 2413TIP3   OH231433   0.431   5.455  19.492  1.1430 -0.0180  0.4309
 2413TIP3    H131434   0.505   5.452  19.553  1.4961  0.5720  0.0348
 2413TIP3    H231435   0.429   5.545  19.461  0.8241 -0.2620 -0.2648
 2414TIP3   OH231436   4.587   0.177  19.527  0.0542  0.5504  0.5246
 2414TIP3    H131437   4.512   0.198  19.471 -0.5073 -0.9560  0.6592
 2414TIP3    H231438   4.549   0.154  19.611  0.5706 -0.9409  0.3893
 2415TIP3   OH231439   2.226   2.825  17.876 -0.0448  0.1815 -0.0475
 2415TIP3    H131440   2.236   2.906  17.825 -0.7240  1.2841  1.5096
 2415TIP3    H231441   2.184   2.853  17.957  1.7179 -1.3868  1.4841
 2416TIP3   OH231442   3.263   4.912  19.207  0.0307 -0.3575 -0.0584
 2416TIP3    H131443   3.192   4.882  19.150  0.3443 -1.0487 -0.0989
 2416TIP3    H231444   3.340   4.862  19.177  0.2866 -0.4254  0.6958
 2417TIP3   OH231445   0.521   3.491  19.073  0.5849 -0.4705  0.4173
 2417TIP3    H131446   0.592   3.429  19.056  1.4964  0.1428  1.8384
 2417TIP3    H231447   0.472   3.451  19.145  0.8939  0.2121  1.0191
 2418TIP3   OH231448   3.711   4.105  17.965 -0.0305  0.0252 -0.1699
 2418TIP3    H131449   3.617   4.087  17.972 -0.0138 -1.6001 -2.8219
 2418TIP3    H231450   3.748   4.067  18.045 -1.6598  1.5248  1.3868
 2419TIP3   OH231451   4.693   7.329  18.280  0.3360  0.8331  0.0448
 2419TIP3    H131452   4.789   7.332  18.289  0.5627  1.4114 -2.0156
 2419TIP3    H231453   4.666   7.420  18.289 -0.1688  0.5437  1.6660
 2420TIP3   OH231454   5.438   4.079  18.040  0.5697  0.4297  0.0118
 2420TIP3    H131455   5.388   4.105  18.117  0.9740 -0.0607  0.4453
 2420TIP3    H231456   5.398   3.997  18.011 -0.7226  1.4882 -1.3752
 2421TIP3   OH231457   0.740   1.787  18.565  0.6987 -0.1646 -0.2585
 2421TIP3    H131458   0.712   1.696  18.577 -0.8710  0.1705 -1.1925
 2421TIP3    H231459   0.763   1.816  18.653 -2.3513 -0.3580  0.7229
 2422TIP3   OH231460   1.256   2.263  16.897 -0.5746 -0.1636  0.3771
 2422TIP3    H131461   1.233   2.297  16.811  0.0998  0.5913  0.4778
 2422TIP3    H231462   1.188   2.298  16.955 -0.7894 -0.3207  0.2214
 2423TIP3   OH231463   1.103   0.586  17.867 -0.2089 -0.1130 -0.0199
 2423TIP3    H131464   1.199   0.582  17.864 -0.2353 -0.6452 -0.3502
 2423TIP3    H231465   1.083   0.595  17.960  0.1637  0.0445  0.0481
 2424TIP3   OH231466   2.562   2.225  19.111 -0.3436 -0.0458  0.3790
 2424TIP3    H131467   2.550   2.317  19.131  1.2717  0.4006 -0.5046
 2424TIP3    H231468   2.493   2.180  19.160 -1.5335  1.6615  0.3482
 2425TIP3   OH231469   5.615   3.870  19.176 -0.0030 -0.0652  0.1583
 2425TIP3    H131470   5.702   3.858  19.137  0.2360  1.3075  0.2304
 2425TIP3    H231471   5.632   3.893  19.268 -0.1701  3.9578 -0.6268
 2426TIP3   OH231472   7.508   4.506  18.678  0.0621 -0.3023  0.1552
 2426TIP3    H131473   7.468   4.517  18.592 -0.9880 -1.8642  0.4015
 2426TIP3    H231474   7.438   4.530  18.740  1.6910  3.8974  0.7170
 2427TIP3   OH231475   1.217   1.408  16.950  0.1425 -0.6191  0.5526
 2427TIP3    H131476   1.152   1.344  16.979  1.2381 -1.5368  1.0501
 2427TIP3    H231477   1.172   1.493  16.956 -1.2990 -1.3074 -0.0121
 2428TIP3   OH231478   6.890   2.874  17.580  0.2330  0.3623  0.6323
 2428TIP3    H131479   6.832   2.862  17.504  1.6173 -0.1439 -0.3801
 2428TIP3    H231480   6.880   2.794  17.630  1.5028 -0.6062 -0.5849
 2429TIP3   OH231481   1.911   6.529  18.032 -0.1515 -0.0363  0.0729
 2429TIP3    H131482   1.967   6.592  18.077 -0.0177 -0.3600  0.3719
 2429TIP3    H231483   1.859   6.581  17.972  0.6556  0.2476 -0.4004
 2430TIP3   OH231484   1.590   4.816  17.954  0.2210 -0.0704 -0.3910
 2430TIP3    H131485   1.616   4.741  17.900 -0.7728  0.7774 -2.1558
 2430TIP3    H231486   1.495   4.808  17.961  0.3029 -0.0223  1.0890
 2431TIP3   OH231487   5.934   3.425  18.076 -0.3484 -0.6134 -0.1934
 2431TIP3    H131488   5.972   3.358  18.132 -0.4884 -0.3527  0.2121
 2431TIP3    H231489   5.845   3.393  18.056 -0.8045 -0.0505  0.8680
 2432TIP3   OH231490   4.392   4.745  17.663  0.0411  0.2244  0.8416
 2432TIP3    H131491   4.440   4.746  17.580  0.3855 -1.0754  0.9943
 2432TIP3    H231492   4.306   4.709  17.641  1.1832 -3.3023  1.4777
 2433TIP3   OH231493   0.396   5.154  19.534  0.0318 -0.6323 -0.0922
 2433TIP3    H131494   0.347   5.156  19.617  0.1469 -2.6796  0.0705
 2433TIP3    H231495   0.420   5.245  19.519 -1.1246 -0.0183  1.4537
 2434TIP3   OH231496   2.117   2.538  18.750 -0.0741 -0.0896  0.1279
 2434TIP3    H131497   2.149   2.447  18.743 -1.1620 -0.5334  0.7847
 2434TIP3    H231498   2.168   2.585  18.684  1.5831 -0.8621  0.7952
 2435TIP3   OH231499   2.474   7.039  19.045 -0.1304 -0.4414 -0.0680
 2435TIP3    H131500   2.517   7.124  19.032  0.5981 -0.6806  0.6551
 2435TIP3    H231501   2.387   7.050  19.006  0.2439  0.3664 -0.7154
 2436TIP3   OH231502   6.654   6.332  17.578 -0.2711 -0.4656  0.4498
 2436TIP3    H131503   6.728   6.275  17.597 -0.9986 -1.8623 -0.6972
 2436TIP3    H231504   6.670   6.364  17.490  0.2011  1.2715  1.1404
 2437TIP3   OH231505   5.953   5.541  19.373 -0.0341  0.2015 -0.2496
 2437TIP3    H131506   5.947   5.559  19.279 -0.4303 -3.1331 -1.0012
 2437TIP3    H231507   5.867   5.566  19.407  0.2628  1.8625 -0.6159
 2438TIP3   OH231508   2.973   7.330  18.781 -0.4612  0.2777  0.2361
 2438TIP3    H131509   3.047   7.304  18.725 -1.3822 -0.6794 -0.5845
 2438TIP3    H231510   2.975   7.267  18.853  0.6070  1.3898  1.2184
 2439TIP3   OH231511   4.342   3.791  18.838 -0.1942  0.2411 -0.2275
 2439TIP3    H131512   4.350   3.778  18.933  0.7785 -0.6008 -0.4124
 2439TIP3    H231513   4.370   3.882  18.824 -1.4559  0.7519  0.4081
 2440TIP3   OH231514   5.960   2.495  17.622  0.1349 -0.0865 -0.8398
 2440TIP3    H131515   5.964   2.405  17.589  1.7633 -0.5490  0.5267
 2440TIP3    H231516   6.036   2.538  17.583  1.4892 -0.3557  1.3534
 2441TIP3   OH231517   2.651   7.322  17.615  0.4997  0.1579  0.2526
 2441TIP3    H131518   2.615   7.278  17.538  0.3258  0.3845  0.2032
 2441TIP3    H231519   2.606   7.281  17.690 -0.4103  0.9457  0.1542
 2442TIP3   OH231520   3.783   4.202  19.225 -0.7171 -0.3434 -0.1170
 2442TIP3    H131521   3.755   4.293  19.237 -0.6106 -0.0820 -1.6263
 2442TIP3    H231522   3.876   4.208  19.201 -0.9830 -0.7554 -1.3169
 2443TIP3   OH231523   6.811   4.651  17.178  0.1933 -0.0589  0.3338
 2443TIP3    H131524   6.875   4.681  17.242 -0.6912  1.0555  0.7317
 2443TIP3    H231525   6.842   4.685  17.094 -0.0158  0.7188  0.5668
 2444TIP3   OH231526   7.072   5.255  18.791  0.5103  0.2524 -0.3882
 2444TIP3    H131527   7.155   5.299  18.775  0.3140  0.1781 -1.7622
 2444TIP3    H231528   7.074   5.233  18.884  2.6453 -1.0076 -0.6643
 2445TIP3   OH231529   2.508   1.730  17.651 -0.0725 -0.0228  0.2071
 2445TIP3    H131530   2.599   1.718  17.679 -0.0989 -2.7446 -0.6347
 2445TIP3    H231531   2.507   1.701  17.560 -1.6259  0.8727 -0.0920
 2446TIP3   OH231532   5.532   6.493  17.039 -0.3778  0.6000  0.3426
 2446TIP3    H131533   5.482   6.415  17.060 -0.1435  0.5342  0.6622
 2446TIP3    H231534   5.599   6.463  16.977 -0.5795  0.6432  0.0994
 2447TIP3   OH231535   6.649   3.999  18.165  0.2193 -0.4803 -0.3572
 2447TIP3    H131536   6.735   3.960  18.146  0.7711  0.5450 -0.0604
 2447TIP3    H231537   6.606   3.935  18.223  1.7670  0.0432  1.4995
 2448TIP3   OH231538   2.875   4.042  19.112 -0.1408 -0.1876 -0.2609
 2448TIP3    H131539   2.801   4.103  19.112  0.4069  0.4946 -0.0323
 2448TIP3    H231540   2.836   3.957  19.135 -1.0733 -0.1480 -1.5972
 2449TIP3   OH231541   6.260   4.697  16.769 -0.1475 -0.3949  0.0601
 2449TIP3    H131542   6.341   4.744  16.786 -0.1915  0.0772 -0.9755
 2449TIP3    H231543   6.259   4.684  16.674 -0.8643 -1.1580  0.1592
 2450TIP3   OH231544   1.302   6.282  18.759  0.5114 -0.5988 -0.7023
 2450TIP3    H131545   1.336   6.196  18.736 -1.3704 -1.8322  0.7837
 2450TIP3    H231546   1.260   6.269  18.844  1.2152  2.0966  0.1439
 2451TIP3   OH231547   7.064   4.257  17.035  0.0362  0.3658  0.4602
 2451TIP3    H131548   7.037   4.233  17.124 -1.2882 -0.7925 -0.2039
 2451TIP3    H231549   6.982   4.281  16.991  0.9385  3.2971  0.1746
 2452TIP3   OH231550   4.745   3.447  17.634 -0.4844  0.0525  0.2653
 2452TIP3    H131551   4.712   3.537  17.634  0.5930  0.4772  1.7554
 2452TIP3    H231552   4.840   3.456  17.634 -0.3426 -1.0461  2.1727
 2453TIP3   OH231553   7.649   3.510  17.445 -0.2628  0.3006  0.3314
 2453TIP3    H131554   7.633   3.604  17.450  0.5590  0.5746 -1.5332
 2453TIP3    H231555   7.564   3.472  17.421 -0.2564  0.7456 -0.4250
 2454TIP3   OH231556   2.124   1.662  18.624 -0.3518  0.4427 -0.4854
 2454TIP3    H131557   2.086   1.628  18.705 -0.9509 -0.0224 -0.9539
 2454TIP3    H231558   2.065   1.734  18.598 -1.6272 -1.0057 -1.8185
 2455TIP3   OH231559   2.743   4.031  17.491 -0.6702 -0.3124 -0.0748
 2455TIP3    H131560   2.670   3.975  17.520  0.1807 -1.4542 -0.0885
 2455TIP3    H231561   2.758   4.005  17.400  0.7980 -1.2686  0.4023
 2456TIP3   OH231562   3.549   5.262  18.197 -0.1170 -0.2107 -0.4106
 2456TIP3    H131563   3.635   5.231  18.169  0.0935 -0.2416  0.2477
 2456TIP3    H231564   3.558   5.357  18.201 -0.6691 -0.0546 -2.1217
 2457TIP3   OH231565   6.670   7.085  18.060 -0.0074  0.2396 -0.1616
 2457TIP3    H131566   6.599   7.136  18.100 -1.1650 -0.3062 -1.4504
 2457TIP3    H231567   6.631   7.001  18.039  0.8821  0.0968 -1.3589
 2458TIP3   OH231568   5.515   6.728  17.539 -0.0392 -0.1366  0.1888
 2458TIP3    H131569   5.448   6.729  17.471 -0.6243 -0.0809  0.7508
 2458TIP3    H231570   5.487   6.796  17.600 -0.2193 -1.0263  1.1260
 2459TIP3   OH231571   1.429   3.056  17.165 -0.3521  0.1948  0.3386
 2459TIP3    H131572   1.502   3.100  17.208 -0.6203  1.0608 -0.0817
 2459TIP3    H231573   1.351   3.098  17.200 -0.5839  0.5920 -0.6310
 2460TIP3   OH231574   6.263   1.746  18.972 -0.0653  0.0040 -0.6301
 2460TIP3    H131575   6.233   1.833  18.944  1.2241  0.5008 -0.5359
 2460TIP3    H231576   6.261   1.750  19.067 -1.8728 -0.7731 -0.5816
 2461TIP3   OH231577   0.478   3.700  18.560  0.0382  0.0901  0.7765
 2461TIP3    H131578   0.448   3.777  18.609  0.2792 -0.0099  1.0839
 2461TIP3    H231579   0.532   3.652  18.622 -0.1416 -0.3503  0.5963
 2462TIP3   OH231580   5.635   3.530  19.221 -0.0051 -0.3947  0.1269
 2462TIP3    H131581   5.662   3.543  19.312  0.7362 -2.9813  0.3376
 2462TIP3    H231582   5.706   3.479  19.182 -1.2330 -1.0365 -1.3548
 2463TIP3   OH231583   5.178   6.739  18.906  0.0278  0.0347  0.3550
 2463TIP3    H131584   5.090   6.701  18.906 -0.4433  0.8595 -2.8596
 2463TIP3    H231585   5.164   6.832  18.921  0.3350  0.1623 -0.1382
 2464TIP3   OH231586   7.295   5.338  19.069  0.1640  0.0887  0.0483
 2464TIP3    H131587   7.344   5.321  18.988 -1.9385  0.4955 -1.3952
 2464TIP3    H231588   7.286   5.252  19.110 -0.3193 -0.4593 -1.1458
 2465TIP3   OH231589   7.608   2.995  17.370 -0.5048 -0.3931  0.1257
 2465TIP3    H131590   7.621   2.900  17.361  0.1946 -0.4141  1.2530
 2465TIP3    H231591   7.665   3.033  17.303 -0.6529 -0.7470 -0.2107
 2466TIP3   OH231592   3.236   2.073  18.359  0.4702 -0.4652 -0.6021
 2466TIP3    H131593   3.187   2.047  18.437  0.1576  0.9692 -0.2911
 2466TIP3    H231594   3.177   2.053  18.286 -0.1624  0.2345 -0.3011
 2467TIP3   OH231595   2.670   0.518  18.873  0.1790  0.7795  0.4349
 2467TIP3    H131596   2.592   0.537  18.925 -0.1908  2.8463 -0.7678
 2467TIP3    H231597   2.637   0.505  18.784  1.1328  1.0536  0.0299
 2468TIP3   OH231598   2.162   2.258  18.771  0.1620 -0.5144 -0.0959
 2468TIP3    H131599   2.241   2.204  18.772 -0.1357 -0.9641 -0.2796
 2468TIP3    H231600   2.107   2.221  18.840  0.7195  0.7540  1.0662
 2469TIP3   OH231601   2.331   7.271  18.311  0.9008  0.3869  0.0529
 2469TIP3    H131602   2.371   7.337  18.255 -2.0611  1.3074 -1.1657
 2469TIP3    H231603   2.276   7.320  18.371  0.6682 -0.8510  0.8818
 2470TIP3   OH231604   7.105   0.193  18.902  0.9452  0.0799  0.4470
 2470TIP3    H131605   7.182   0.232  18.862 -0.7014  2.4631 -0.6552
 2470TIP3    H231606   7.092   0.242  18.983 -0.9502  1.7506 -0.7755
 2471TIP3   OH231607   2.828   6.543  18.584 -0.1403  0.2428  0.1293
 2471TIP3    H131608   2.830   6.620  18.528 -0.3116  0.1680  0.0212
 2471TIP3    H231609   2.743   6.546  18.628 -0.2742 -0.0447 -0.1023
 2472TIP3   OH231610   0.291   0.784  18.324 -0.1207 -0.5559  0.0698
 2472TIP3    H131611   0.278   0.692  18.303  1.1436 -1.0013  1.1004
 2472TIP3    H231612   0.381   0.803  18.297 -0.4713  0.4890 -0.4427
 2473TIP3   OH231613   5.876   4.245  18.327 -0.1360 -0.0026  0.2868
 2473TIP3    H131614   5.784   4.250  18.302  0.1003  0.7349 -0.4786
 2473TIP3    H231615   5.875   4.236  18.422 -1.0177 -1.1238  0.1929
 2474TIP3   OH231616   6.982   6.987  17.452  0.0721  0.1553 -0.6617
 2474TIP3    H131617   6.965   7.060  17.392 -0.5578  0.9776  0.4746
 2474TIP3    H231618   7.063   7.011  17.497  0.7814 -0.6648 -1.4644
 2475TIP3   OH231619   7.317   4.545  17.372  0.6502  0.2855  0.1764
 2475TIP3    H131620   7.266   4.465  17.378  0.6542  0.1875 -0.8627
 2475TIP3    H231621   7.352   4.559  17.460 -0.1881 -0.2894  0.6035
 2476TIP3   OH231622   1.380   4.610  17.543  0.1516  0.1039  0.1733
 2476TIP3    H131623   1.344   4.644  17.461 -0.6088  0.8517  0.7962
 2476TIP3    H231624   1.470   4.643  17.545  0.3320 -0.3161 -0.5718
 2477TIP3   OH231625   3.049   6.118  18.079 -0.1984  0.1898  0.0690
 2477TIP3    H131626   2.959   6.093  18.059  0.0875 -1.4124  0.6444
 2477TIP3    H231627   3.046   6.152  18.168 -0.3166  0.6652 -0.1144
 2478TIP3   OH231628   3.854   2.001  17.950 -0.2042 -0.1239  0.3742
 2478TIP3    H131629   3.879   2.089  17.922  0.7962 -0.3334  0.5612
 2478TIP3    H231630   3.923   1.944  17.915 -1.0196 -0.8845 -0.0407
 2479TIP3   OH231631   7.659   1.563  18.675  0.4271  0.0805  0.0501
 2479TIP3    H131632   7.627   1.478  18.647  1.1554 -0.0081 -0.5533
 2479TIP3    H231633   7.622   1.625  18.613 -0.3104  0.2415  0.6417
 2480TIP3   OH231634   2.306   5.439  17.857  0.1480 -0.2560 -0.5718
 2480TIP3    H131635   2.216   5.410  17.842 -0.0758  0.3280 -0.4065
 2480TIP3    H231636   2.359   5.382  17.802 -0.1337 -1.8361  0.7283
 2481TIP3   OH231637   5.369   1.086  18.697 -0.1334 -0.3399  0.2338
 2481TIP3    H131638   5.329   1.001  18.681 -1.3456  0.2585 -0.0388
 2481TIP3    H231639   5.377   1.092  18.792 -1.0287 -0.3252  0.3119
 2482TIP3   OH231640   3.194   3.273  18.801  0.3285  0.0643  0.2859
 2482TIP3    H131641   3.149   3.304  18.879  1.2197  1.2903  0.3406
 2482TIP3    H231642   3.144   3.195  18.774  0.1364 -0.5239  2.1758
 2483TIP3   OH231643   2.406   1.665  18.306  0.0704  0.0090  0.1492
 2483TIP3    H131644   2.357   1.643  18.227  1.7349  0.4986 -1.0845
 2483TIP3    H231645   2.361   1.742  18.341 -1.0105 -0.5401 -0.0108
 2484TIP3   OH231646   2.413   3.011  18.734 -0.1500 -0.4949  0.7705
 2484TIP3    H131647   2.481   3.077  18.728 -0.1520 -0.5304  0.3423
 2484TIP3    H231648   2.428   2.953  18.659 -1.4017  0.2153 -0.0711
 2485TIP3   OH231649   5.441   0.186  18.533  0.3083  0.3533 -0.2073
 2485TIP3    H131650   5.432   0.280  18.546 -0.5165  0.0763  1.4195
 2485TIP3    H231651   5.439   0.175  18.438 -0.2770  1.9120 -0.4015
 2486TIP3   OH231652   7.141   3.620  17.486 -0.2871  0.1668  0.3202
 2486TIP3    H131653   7.201   3.688  17.455  0.1966 -0.3049  0.2144
 2486TIP3    H231654   7.084   3.603  17.411 -0.4976  0.5429  0.3888
 2487TIP3   OH231655   3.253   7.251  19.459  0.0075 -0.1043 -0.2527
 2487TIP3    H131656   3.328   7.257  19.518 -0.9516 -1.0942  1.1156
 2487TIP3    H231657   3.229   7.158  19.460 -1.7879  0.3248  0.0451
 2488TIP3   OH231658   2.338   4.757  19.246  0.3536 -0.1715  0.0136
 2488TIP3    H131659   2.352   4.663  19.252  1.3346 -0.0949 -0.7639
 2488TIP3    H231660   2.299   4.770  19.159 -1.4117 -0.0178  0.7934
 2489TIP3   OH231661   2.914   2.595  18.187 -0.0751  0.1447  0.3648
 2489TIP3    H131662   2.903   2.670  18.246 -0.2833 -0.1940  0.7620
 2489TIP3    H231663   2.939   2.522  18.245 -0.4268 -0.2248  0.0566
 2490TIP3   OH231664   4.694   5.183  18.349  0.0946 -0.3100  0.0397
 2490TIP3    H131665   4.722   5.121  18.282 -0.6289 -0.5287 -0.0712
 2490TIP3    H231666   4.607   5.211  18.322 -1.0331 -1.8224  1.8019
 2491TIP3   OH231667   6.117   2.073  19.570  0.3893 -0.1194 -0.0903
 2491TIP3    H131668   6.029   2.103  19.549  0.1409  0.5049  1.6808
 2491TIP3    H231669   6.104   1.993  19.620  0.8035  0.0563  0.3087
 2492TIP3   OH231670   4.778   6.355  18.605  0.5024 -0.5416 -0.3351
 2492TIP3    H131671   4.752   6.363  18.514  0.4157 -0.5420 -0.3113
 2492TIP3    H231672   4.695   6.345  18.653  0.3680  1.6542 -0.0150
 2493TIP3   OH231673   6.668   2.067  19.018  0.0227 -0.3722 -0.0701
 2493TIP3    H131674   6.698   1.976  19.016  0.0432 -0.3617 -0.2371
 2493TIP3    H231675   6.658   2.091  18.926  1.9598  0.4384 -0.1147
 2494TIP3   OH231676   7.536   6.682  18.082  0.0868 -0.6775 -0.6657
 2494TIP3    H131677   7.511   6.694  17.990  1.3142  1.0103 -0.8271
 2494TIP3    H231678   7.514   6.765  18.123  0.2553 -1.1547  0.4138
 2495TIP3   OH231679   1.285   4.211  17.709  0.0160  0.4250 -0.5135
 2495TIP3    H131680   1.273   4.205  17.803 -0.6849  1.2453 -0.5345
 2495TIP3    H231681   1.250   4.129  17.674 -1.5580  0.9459 -0.2122
 2496TIP3   OH231682   6.465   7.386  18.890  0.2345  0.3853  0.1584
 2496TIP3    H131683   6.542   7.417  18.939 -0.3800  0.2467  1.2458
 2496TIP3    H231684   6.423   7.323  18.949 -0.3738 -0.0100 -0.6752
 2497TIP3   OH231685   5.536   3.590  18.470 -0.0893  0.1081  0.0605
 2497TIP3    H131686   5.538   3.504  18.512 -0.6180  0.1828  0.2438
 2497TIP3    H231687   5.505   3.650  18.538  0.2323  0.4359 -0.0801
 2498TIP3   OH231688   6.809   5.735  17.883  0.3358 -0.3966 -0.1926
 2498TIP3    H131689   6.797   5.670  17.813 -0.9798 -0.4901  0.0875
 2498TIP3    H231690   6.757   5.811  17.854  1.5723  0.4169 -0.3526
 2499TIP3   OH231691   5.342   5.946  18.880 -0.2326 -0.3821  0.1577
 2499TIP3    H131692   5.376   6.015  18.937  0.4716 -0.7359  0.1834
 2499TIP3    H231693   5.348   5.982  18.791 -2.9670  0.8504  0.3834
 2500TIP3   OH231694   1.293   6.770  18.658 -0.6982 -0.2357  0.1829
 2500TIP3    H131695   1.375   6.765  18.609 -0.7751  0.6528 -0.0579
 2500TIP3    H231696   1.290   6.689  18.708 -0.0068 -0.5898 -0.3288
 2501TIP3   OH231697   5.381   0.867  18.900 -0.1032 -0.3046  0.4998
 2501TIP3    H131698   5.362   0.790  18.953  0.1836 -2.3079 -2.1176
 2501TIP3    H231699   5.390   0.833  18.811 -0.3150  2.8176 -0.8320
 2502TIP3   OH231700   2.833   7.542  17.074  0.2169 -0.0881  0.6197
 2502TIP3    H131701   2.886   7.494  17.138  1.1687 -0.2283 -0.2476
 2502TIP3    H231702   2.896   7.597  17.027 -0.3048 -0.6113 -0.7579
 2503TIP3   OH231703   1.348   3.883  18.235  0.5054  0.2383  0.0549
 2503TIP3    H131704   1.364   3.866  18.327  1.5420  2.1127  0.2856
 2503TIP3    H231705   1.434   3.878  18.193  0.1943  0.3507 -0.6252
 2504TIP3   OH231706   2.574   3.226  17.835  0.1623 -1.0997  0.3250
 2504TIP3    H131707   2.485   3.229  17.868  0.2583  0.9498  0.4856
 2504TIP3    H231708   2.621   3.293  17.883  1.1904 -0.4837 -1.4280
 2505TIP3   OH231709   7.603   7.061  19.291 -0.1376  0.4702  0.1051
 2505TIP3    H131710   7.534   7.119  19.324 -0.4105  0.5650 -0.6276
 2505TIP3    H231711   7.673   7.120  19.264 -0.6638  0.5071 -1.2216
 2506TIP3   OH231712   7.325   1.537  18.172 -0.7323 -0.3908 -0.3704
 2506TIP3    H131713   7.342   1.573  18.259  0.9754 -1.7869 -0.0563
 2506TIP3    H231714   7.242   1.490  18.181 -1.1244  0.3823  0.1909
 2507TIP3   OH231715   1.460   6.386  17.372  0.1570 -0.2752  0.0550
 2507TIP3    H131716   1.428   6.472  17.398  0.8787 -0.4816  1.8007
 2507TIP3    H231717   1.381   6.335  17.354 -0.5093 -0.2196  2.4108
 2508TIP3   OH231718   1.320   1.434  19.074 -0.8069 -0.0735 -0.3314
 2508TIP3    H131719   1.332   1.424  18.980 -0.4006 -2.4561 -0.1123
 2508TIP3    H231720   1.381   1.503  19.099 -0.1284 -0.1406 -1.6788
 2509TIP3   OH231721   0.528   1.033  17.239 -0.0181  0.0276  0.5151
 2509TIP3    H131722   0.439   1.051  17.211  0.7823  1.1934 -1.5457
 2509TIP3    H231723   0.539   0.939  17.227 -0.1829  0.2545 -1.9862
 2510TIP3   OH231724   7.091   5.041  17.215 -0.5637 -0.1998 -0.3489
 2510TIP3    H131725   7.082   4.981  17.141 -0.5682 -1.5740  0.7339
 2510TIP3    H231726   7.159   5.102  17.188  1.6370 -2.5092 -0.3536
 2511TIP3   OH231727   6.496   2.822  17.173 -0.6035  0.1951 -0.0019
 2511TIP3    H131728   6.492   2.895  17.111 -2.2410 -0.5108 -0.7904
 2511TIP3    H231729   6.491   2.743  17.118  1.8387 -0.6060  0.7690
 2512TIP3   OH231730   2.819   0.550  17.937 -0.3749  0.5332 -0.2138
 2512TIP3    H131731   2.855   0.536  18.024 -0.9062 -1.6312 -0.2964
 2512TIP3    H231732   2.873   0.498  17.879  0.0919  2.1005 -1.2595
 2513TIP3   OH231733   4.074   6.193  18.928 -0.5500  0.2915 -0.0219
 2513TIP3    H131734   4.005   6.220  18.868  1.7761  0.2363 -2.9505
 2513TIP3    H231735   4.135   6.267  18.930 -0.2863  0.0840  1.9415
 2514TIP3   OH231736   5.513   0.860  17.149  0.3085 -0.3064  0.0490
 2514TIP3    H131737   5.428   0.904  17.141  0.5710  0.2539  0.2976
 2514TIP3    H231738   5.575   0.921  17.110  0.9680  0.4767  2.1829
 2515TIP3   OH231739   2.645   6.835  18.922 -0.5582  0.2967  0.3310
 2515TIP3    H131740   2.607   6.757  18.961 -0.9762  0.1564 -0.3238
 2515TIP3    H231741   2.603   6.908  18.968 -1.6032  0.1434 -0.3293
 2516TIP3   OH231742   1.982   3.621  19.039 -0.1680 -0.2283  0.1393
 2516TIP3    H131743   2.063   3.570  19.041 -0.6384 -1.1701 -1.6891
 2516TIP3    H231744   1.918   3.561  19.001 -1.7597  0.4793  1.5591
 2517TIP3   OH231745   1.975   3.291  19.059 -0.3464  0.2003 -0.8983
 2517TIP3    H131746   2.027   3.248  19.127  0.9901  1.1139 -1.3093
 2517TIP3    H231747   1.919   3.221  19.024 -1.3246 -0.2160  1.3215
 2518TIP3   OH231748   1.826   0.727  18.148  0.1561  0.1726 -0.0945
 2518TIP3    H131749   1.783   0.793  18.203  0.5764 -0.4530  1.0124
 2518TIP3    H231750   1.910   0.712  18.190  0.6421 -0.0673 -1.1275
 2519TIP3   OH231751   0.682   3.981  19.189 -0.3773 -0.0631  0.2550
 2519TIP3    H131752   0.774   3.967  19.210 -0.5004 -1.5290 -0.1373
 2519TIP3    H231753   0.653   3.901  19.147 -1.8091  0.4236  0.2350
 2520TIP3   OH231754   1.897   4.638  17.898  0.3197 -0.0500 -0.3209
 2520TIP3    H131755   1.861   4.693  17.828  0.0364 -0.1663 -0.2707
 2520TIP3    H231756   1.926   4.559  17.852 -2.2768 -1.2847 -0.0365
 2521TIP3   OH231757   2.579   4.147  18.378  0.4696  0.0395  0.5435
 2521TIP3    H131758   2.504   4.171  18.433  0.2384 -0.3052  0.3819
 2521TIP3    H231759   2.654   4.185  18.424  0.1171  1.1233  0.2636
 2522TIP3   OH231760   7.401   1.747  16.645  0.0163  0.3572 -0.2273
 2522TIP3    H131761   7.342   1.674  16.662  0.8594 -0.2050  0.3735
 2522TIP3    H231762   7.385   1.809  16.716  0.1602  0.1945 -0.0510
 2523TIP3   OH231763   6.927   6.065  16.686 -0.6377  0.2071  0.1967
 2523TIP3    H131764   6.940   5.974  16.715  0.4089  0.3226  0.1387
 2523TIP3    H231765   6.833   6.072  16.670 -0.6235 -1.1067 -0.5728
 2524TIP3   OH231766   0.034   4.702  19.694 -0.3486 -0.0952 -0.1500
 2524TIP3    H131767  -0.055   4.730  19.718 -0.6594  0.2319 -1.5797
 2524TIP3    H231768   0.085   4.713  19.774 -1.2560  1.2129  0.2788
 2525TIP3   OH231769   2.200   2.843  18.210 -0.0501  0.3226  0.0427
 2525TIP3    H131770   2.252   2.784  18.265 -0.7489  0.9193  1.3698
 2525TIP3    H231771   2.260   2.916  18.191  0.9954 -0.9625 -2.0318
 2526TIP3   OH231772   7.502   7.351  19.178  0.0814  0.3135  0.0254
 2526TIP3    H131773   7.528   7.353  19.270  1.2430  1.2945 -0.3023
 2526TIP3    H231774   7.503   7.443  19.151 -0.8969  0.0999 -0.7983
 2527TIP3   OH231775   6.755   1.380  18.267  0.0587 -0.3387  0.5668
 2527TIP3    H131776   6.680   1.440  18.272 -0.3700 -0.8565  0.5259
 2527TIP3    H231777   6.832   1.435  18.277 -0.2796  0.3849 -0.5880
 2528TIP3   OH231778   6.255   7.425  17.250 -0.0351  0.6803  0.0079
 2528TIP3    H131779   6.261   7.515  17.282 -0.4074  0.9766 -0.7360
 2528TIP3    H231780   6.334   7.414  17.197  0.1939  0.4432  0.3919
 2529TIP3   OH231781   0.889   3.971  18.757  0.8017  0.1339 -0.0041
 2529TIP3    H131782   0.912   4.045  18.701 -0.9373  0.9431  0.3135
 2529TIP3    H231783   0.893   4.005  18.846  0.5849 -0.3396  0.1902
 2530TIP3   OH231784   1.620   6.577  18.174 -0.1068 -0.1979 -0.1349
 2530TIP3    H131785   1.681   6.504  18.178 -0.6807 -0.6310  1.5623
 2530TIP3    H231786   1.533   6.536  18.176 -0.4901  0.4400 -1.7298
 2531TIP3   OH231787   3.371   3.666  19.355  0.0356  0.1956  0.9535
 2531TIP3    H131788   3.450   3.707  19.320 -0.1942  0.8947  1.2395
 2531TIP3    H231789   3.316   3.739  19.384 -0.9235 -0.2618  0.3287
 2532TIP3   OH231790   7.320   0.417  19.118 -0.1688  0.0736 -0.6175
 2532TIP3    H131791   7.278   0.502  19.132 -2.1257 -0.7203 -1.2523
 2532TIP3    H231792   7.377   0.431  19.042  3.1388  1.9235  1.9736
 2533TIP3   OH231793   1.853   5.312  18.572  0.1259 -0.1291 -0.0476
 2533TIP3    H131794   1.920   5.277  18.631 -0.9852 -0.7705  0.8690
 2533TIP3    H231795   1.786   5.244  18.569 -0.9120  0.8762 -0.2166
 2534TIP3   OH231796   6.629   6.786  19.082  0.4675  0.5697  0.5396
 2534TIP3    H131797   6.664   6.870  19.111  0.3456  0.4489  1.0409
 2534TIP3    H231798   6.600   6.742  19.162 -1.5441  0.9814  0.1127
 2535TIP3   OH231799   3.267   5.207  18.900  0.7054 -0.1975  0.1113
 2535TIP3    H131800   3.316   5.235  18.823  1.5194 -0.4862  0.5088
 2535TIP3    H231801   3.296   5.117  18.916  0.0601 -0.3657  0.3728
 2536TIP3   OH231802   0.458   6.378  18.322 -0.3476 -0.1494  0.1148
 2536TIP3    H131803   0.478   6.284  18.326 -1.3493 -0.3606  0.7141
 2536TIP3    H231804   0.399   6.386  18.247 -0.0508  0.0370 -0.0935
 2537TIP3   OH231805   0.132   3.522  17.132  0.0289  0.4316  0.4710
 2537TIP3    H131806   0.178   3.581  17.192  2.4297  0.8967 -1.6653
 2537TIP3    H231807   0.196   3.456  17.109 -1.2370 -0.4736 -0.5889
 2538TIP3   OH231808   7.541   4.554  16.772 -0.6652 -0.4936 -0.2207
 2538TIP3    H131809   7.458   4.554  16.724 -0.0546  0.9398 -1.3625
 2538TIP3    H231810   7.542   4.638  16.818  0.2057 -0.4544 -0.3039
 2539TIP3   OH231811   5.296   1.040  17.134 -0.2656 -0.4840  0.3389
 2539TIP3    H131812   5.247   1.063  17.055  0.0397  0.3987  0.4022
 2539TIP3    H231813   5.274   1.108  17.197 -0.1234 -0.9133  0.8601
 2540TIP3   OH231814   6.075   6.842  18.453 -0.7955  0.3917 -0.6225
 2540TIP3    H131815   6.126   6.914  18.415  0.1088 -0.1922 -0.5578
 2540TIP3    H231816   6.043   6.877  18.536 -1.3507  1.1020 -1.1191
 2541TIP3   OH231817   2.466   4.988  19.374  0.4154 -0.6432  0.1677
 2541TIP3    H131818   2.404   5.018  19.440 -0.7052  1.5243 -1.7375
 2541TIP3    H231819   2.430   4.904  19.344 -1.7248  0.5743 -0.9139
 2542TIP3   OH231820   4.557   4.452  17.643 -0.0463 -0.8910 -0.5376
 2542TIP3    H131821   4.541   4.537  17.685  1.1761 -0.6697 -0.4990
 2542TIP3    H231822   4.513   4.389  17.701 -0.4643 -0.3546 -0.2548
 2543TIP3   OH231823   0.034   5.742  18.342 -0.4777 -0.3489  0.0189
 2543TIP3    H131824   0.015   5.796  18.419  0.0167 -1.3503  0.8622
 2543TIP3    H231825  -0.053   5.718  18.308 -0.7454 -1.3350  1.3127
 2544TIP3   OH231826   7.278   5.842  17.055  0.3889  0.0307  0.3000
 2544TIP3    H131827   7.362   5.812  17.020  1.0941  2.1548 -0.0137
 2544TIP3    H231828   7.216   5.773  17.032  1.5232 -0.3433 -1.9138
 2545TIP3   OH231829   0.774   4.168  18.084 -0.2384  0.0546 -0.0135
 2545TIP3    H131830   0.782   4.077  18.113 -0.1871 -0.3749 -1.3369
 2545TIP3    H231831   0.849   4.182  18.027 -0.3470  0.8814  0.0424
 2546TIP3   OH231832   0.581   2.618  18.878 -0.5809 -0.0121  0.0053
 2546TIP3    H131833   0.634   2.555  18.927 -1.1280 -0.2506  0.3033
 2546TIP3    H231834   0.529   2.565  18.818 -1.5511  0.0751  0.7374
 2547TIP3   OH231835   7.474   5.057  19.577 -0.5136 -0.0460  0.1655
 2547TIP3    H131836   7.494   5.050  19.483 -1.6255  0.3137 -0.1050
 2547TIP3    H231837   7.453   5.150  19.590  2.0193  0.4652  1.2844
 2548TIP3   OH231838   3.213   5.869  17.804  0.1343 -0.7111 -0.1803
 2548TIP3    H131839   3.202   5.953  17.848 -0.1984 -1.2430  0.7762
 2548TIP3    H231840   3.255   5.891  17.720 -1.0517  0.5255 -0.4796
 2549TIP3   OH231841   2.658   1.409  19.443  0.0509  0.1348 -0.1880
 2549TIP3    H131842   2.636   1.328  19.397 -2.1864  1.6126 -2.0090
 2549TIP3    H231843   2.574   1.441  19.477  1.0377  1.1597  1.4411
 2550TIP3   OH231844   6.719   5.016  18.188  0.4522 -0.1939 -0.2662
 2550TIP3    H131845   6.706   5.053  18.101  0.2178  0.2523 -0.0441
 2550TIP3    H231846   6.642   5.044  18.238  0.4345 -0.7025 -0.0022
 2551TIP3   OH231847   2.934   3.504  18.795 -0.1311 -0.0285  0.0429
 2551TIP3    H131848   2.851   3.494  18.750 -0.5062 -0.0910  0.7261
 2551TIP3    H231849   2.979   3.575  18.749 -0.8875  0.5164  0.1351
 2552TIP3   OH231850   6.153   5.990  17.878  0.0872 -0.3529  0.1098
 2552TIP3    H131851   6.087   5.988  17.947  0.9952 -0.3804  0.9962
 2552TIP3    H231852   6.168   5.898  17.857 -0.2777 -0.3404 -0.2264
 2553TIP3   OH231853   1.540   2.589  18.149 -0.5523  0.2219 -0.4103
 2553TIP3    H131854   1.516   2.529  18.078 -0.2679 -0.0458 -0.2837
 2553TIP3    H231855   1.474   2.657  18.146  0.3987  1.1611 -2.0695
 2554TIP3   OH231856   5.945   2.227  18.355 -0.1938  0.5877 -0.0170
 2554TIP3    H131857   5.895   2.147  18.336 -1.2547  1.5655 -1.4700
 2554TIP3    H231858   6.030   2.194  18.387 -0.6469 -1.1194 -0.4487
 2555TIP3   OH231859   7.361   7.443  19.718 -0.3279  1.3009 -1.0358
 2555TIP3    H131860   7.294   7.397  19.668 -1.8931  3.0278 -0.6260
 2555TIP3    H231861   7.316   7.474  19.796  1.9411 -0.9544  1.3869
 2556TIP3   OH231862   7.555   1.810  19.138 -0.1401 -0.1218 -0.0019
 2556TIP3    H131863   7.575   1.730  19.089  1.1336 -1.1511  2.0755
 2556TIP3    H231864   7.620   1.873  19.107 -1.1281  0.1897 -1.6224
 2557TIP3   OH231865   3.382   2.736  19.272 -0.0218  0.5110  0.3107
 2557TIP3    H131866   3.388   2.830  19.286 -0.3628  0.5122  0.4447
 2557TIP3    H231867   3.350   2.727  19.182 -0.2076  0.5250  0.3753
 2558TIP3   OH231868   4.308   7.114  19.633 -0.4065  0.2510 -0.2436
 2558TIP3    H131869   4.338   7.126  19.543  0.0198  0.9510 -0.0129
 2558TIP3    H231870   4.365   7.046  19.669 -1.4030 -0.9794 -0.8769
 2559TIP3   OH231871   1.712   3.419  18.533  0.1875 -0.7415 -0.6111
 2559TIP3    H131872   1.717   3.437  18.439 -0.1802 -1.6126 -0.8068
 2559TIP3    H231873   1.787   3.362  18.551 -0.0943 -1.0814 -0.5015
 2560TIP3   OH231874   6.385   5.761  17.471  0.0981 -0.1253  0.2445
 2560TIP3    H131875   6.347   5.832  17.523 -1.3725 -0.8786  0.2552
 2560TIP3    H231876   6.387   5.686  17.530 -0.8572 -0.7777 -0.5167
 2561TIP3   OH231877   3.528   1.971  18.261  0.2547  0.2233 -0.1768
 2561TIP3    H131878   3.528   2.047  18.203 -2.1588  1.4311  1.2351
 2561TIP3    H231879   3.437   1.939  18.259  0.9602 -1.9824  0.1123
 2562TIP3   OH231880   0.496   6.069  17.839  0.2784 -0.4292 -0.0037
 2562TIP3    H131881   0.545   6.136  17.887 -1.0488  1.5812 -1.3189
 2562TIP3    H231882   0.409   6.069  17.879  0.4425 -1.8656  0.3940
 2563TIP3   OH231883   6.513   2.390  19.240  0.3909 -0.5216 -0.3280
 2563TIP3    H131884   6.589   2.332  19.247  0.0025 -0.9695  0.3195
 2563TIP3    H231885   6.480   2.397  19.329 -1.2757 -1.6278 -0.8149
 2564TIP3   OH231886   2.252   2.740  18.582 -0.2727  0.1358  0.0651
 2564TIP3    H131887   2.272   2.833  18.578 -0.2002  0.1125 -0.1078
 2564TIP3    H231888   2.270   2.707  18.494  0.6343 -0.2282  0.3736
 2565TIP3   OH231889   1.691   2.522  18.635 -0.7938 -0.1459  0.1538
 2565TIP3    H131890   1.722   2.610  18.617  0.3954 -0.9921 -2.2977
 2565TIP3    H231891   1.595   2.529  18.635 -0.7092  1.3266  1.2304
 2566TIP3   OH231892   4.594   0.271  18.516  0.1323 -0.0772  0.4118
 2566TIP3    H131893   4.662   0.325  18.476 -0.1076 -0.7437 -0.9851
 2566TIP3    H231894   4.584   0.305  18.605  2.2284  0.0707  0.6287
 2567TIP3   OH231895   1.806   3.491  18.820 -0.0816 -0.3493 -0.8726
 2567TIP3    H131896   1.820   3.404  18.857 -2.4866  0.0759  1.3421
 2567TIP3    H231897   1.720   3.485  18.778 -0.3351  0.9834 -0.5808
 2568TIP3   OH231898   1.040   6.369  17.611 -0.5707  0.0346  0.0051
 2568TIP3    H131899   1.068   6.451  17.572 -0.9777 -0.8799 -2.4039
 2568TIP3    H231900   0.956   6.350  17.568 -1.7188 -0.4398  2.3281
 2569TIP3   OH231901   2.541   2.940  18.503  0.0198 -0.1366 -0.7069
 2569TIP3    H131902   2.588   3.021  18.482  0.5509 -0.5916 -1.2972
 2569TIP3    H231903   2.544   2.889  18.422  2.1208 -1.9514  0.4015
 2570TIP3   OH231904   0.094   2.198  17.260 -0.4178  0.3509  0.3447
 2570TIP3    H131905   0.170   2.166  17.309  0.4548 -1.0588 -1.8118
 2570TIP3    H231906   0.080   2.133  17.192 -0.8624  2.7389 -2.0001
 2571TIP3   OH231907   2.201   1.911  19.673 -0.3046 -0.1767 -0.2871
 2571TIP3    H131908   2.204   1.974  19.601 -0.4356 -0.0149 -0.1527
 2571TIP3    H231909   2.163   1.960  19.746  0.7856 -0.0338  0.2070
 2572TIP3   OH231910   2.045   2.368  16.608  0.0054 -0.4721 -0.3379
 2572TIP3    H131911   2.063   2.437  16.544 -1.4773  1.7265  1.4674
 2572TIP3    H231912   2.131   2.336  16.633  0.6949  0.0466 -1.9205
 2573TIP3   OH231913   3.824   5.726  18.556 -0.3167  0.0797  0.2984
 2573TIP3    H131914   3.914   5.750  18.535  0.0836 -1.9142 -0.5104
 2573TIP3    H231915   3.832   5.651  18.615 -1.4359 -0.1439  0.1955
 2574TIP3   OH231916   4.612   2.119  19.405 -0.1616  0.3574  0.5199
 2574TIP3    H131917   4.600   2.078  19.319 -0.4767 -1.2121  1.2743
 2574TIP3    H231918   4.553   2.072  19.463  0.1729  1.2672  1.6520
 2575TIP3   OH231919   0.182   5.602  18.789 -0.1024  0.6456 -0.1038
 2575TIP3    H131920   0.233   5.589  18.709 -1.8381  0.0878 -1.1799
 2575TIP3    H231921   0.131   5.681  18.773 -1.8960 -0.5099 -0.4036
 2576TIP3   OH231922   5.105   5.655  19.400  0.6619 -0.2560 -0.0432
 2576TIP3    H131923   5.076   5.583  19.344  1.9191  0.7532 -2.1417
 2576TIP3    H231924   5.201   5.653  19.394  0.7382  1.3191  0.1681
 2577TIP3   OH231925   6.790   3.083  17.973 -0.7746 -0.0950  0.0566
 2577TIP3    H131926   6.849   3.031  18.028  0.3366  0.1815 -0.8361
 2577TIP3    H231927   6.782   3.166  18.020  1.2023  0.6262 -0.7549
 2578TIP3   OH231928   1.374   1.666  18.555 -0.2148 -0.3008 -0.4877
 2578TIP3    H131929   1.461   1.630  18.571  1.3863  1.8031 -3.4890
 2578TIP3    H231930   1.390   1.756  18.527 -3.5873  0.9494  1.0351
 2579TIP3   OH231931   4.682   3.771  16.836 -0.4918 -0.3968  0.2405
 2579TIP3    H131932   4.587   3.773  16.836 -0.4974  0.7612  1.1094
 2579TIP3    H231933   4.707   3.848  16.888  0.8921 -1.3830  1.0876
 2580TIP3   OH231934   0.974   5.225  18.363 -0.4343  0.1351  0.3397
 2580TIP3    H131935   0.895   5.278  18.365  0.7213  1.9871 -0.5592
 2580TIP3    H231936   1.022   5.255  18.286  0.7346 -1.6026  0.3138
 2581TIP3   OH231937   1.535   1.567  17.317  0.3138 -0.1513 -0.4177
 2581TIP3    H131938   1.593   1.644  17.312 -1.7657  1.4382 -1.3923
 2581TIP3    H231939   1.510   1.550  17.226 -0.6007 -0.9147 -0.0384
 2582TIP3   OH231940   5.347   7.533  19.015  0.5245  0.1614 -0.7766
 2582TIP3    H131941   5.324   7.458  19.069  1.2623  0.2647 -0.2973
 2582TIP3    H231942   5.315   7.511  18.927 -0.0100 -0.3366 -0.4601
 2583TIP3   OH231943   7.101   3.267  18.090 -0.2257  0.0889 -0.1737
 2583TIP3    H131944   7.107   3.280  18.184 -1.1119 -1.1620  0.0779
 2583TIP3    H231945   7.078   3.175  18.079  0.0777  0.1531 -1.6233
 2584TIP3   OH231946   5.758   4.627  19.595  0.3753 -0.5721  0.3823
 2584TIP3    H131947   5.820   4.678  19.543  1.8297 -0.0998  2.4828
 2584TIP3    H231948   5.785   4.536  19.580  1.3330 -0.3962  0.9264
 2585TIP3   OH231949   4.467   4.054  19.397  0.0550  0.3138 -0.2972
 2585TIP3    H131950   4.443   3.991  19.330  1.1935 -0.2069 -0.2455
 2585TIP3    H231951   4.554   4.084  19.372 -0.3014  1.5692 -0.0931
 2586TIP3   OH231952   2.163   3.938  18.738 -0.3532  0.4853  0.1217
 2586TIP3    H131953   2.178   3.844  18.751  1.8127  0.2007 -3.1088
 2586TIP3    H231954   2.225   3.981  18.796  0.6970 -0.2269 -0.4436
 2587TIP3   OH231955   0.650   3.440  18.034  0.1341 -0.4360 -0.0947
 2587TIP3    H131956   0.609   3.415  18.116  2.4163 -0.4981  1.0997
 2587TIP3    H231957   0.720   3.500  18.058  1.0884 -0.7066 -1.9414
 2588TIP3   OH231958   2.871   1.494  18.754 -0.8898  0.2446 -0.3868
 2588TIP3    H131959   2.919   1.425  18.800 -1.1509  0.9067  0.9414
 2588TIP3    H231960   2.809   1.447  18.698 -0.1338 -0.6030 -0.5283
 2589TIP3   OH231961   3.124   1.867  17.257 -0.1446 -0.1297  0.4328
 2589TIP3    H131962   3.218   1.874  17.240  0.0439 -0.3462  1.3452
 2589TIP3    H231963   3.085   1.941  17.210  0.3657 -0.5942 -0.7682
 2590TIP3   OH231964   7.677   1.651  17.976  0.2418  0.1735 -0.0738
 2590TIP3    H131965   7.717   1.564  17.974 -1.1760 -0.4917 -0.3521
 2590TIP3    H231966   7.587   1.638  17.946 -0.7370  1.3549  2.0884
 2591TIP3   OH231967   4.787   1.117  17.010 -0.3137  0.3609 -0.3827
 2591TIP3    H131968   4.717   1.064  17.049 -0.2656  1.3277  1.0900
 2591TIP3    H231969   4.861   1.108  17.070 -0.0517  1.4541 -0.5307
 2592TIP3   OH231970   1.049   1.959  16.741  0.2411  0.2156  0.4002
 2592TIP3    H131971   1.058   2.015  16.664 -1.6134 -0.0692 -0.0737
 2592TIP3    H231972   0.967   1.911  16.727 -0.2389  0.2636  2.6003
 2593TIP3   OH231973   3.780   6.136  17.661 -0.2325 -0.0230 -0.3090
 2593TIP3    H131974   3.795   6.128  17.566 -1.0671  0.1472 -0.4643
 2593TIP3    H231975   3.695   6.179  17.668 -0.0201  0.2860  0.5252
 2594TIP3   OH231976   4.017   5.555  18.737 -0.0012  0.1274  0.1764
 2594TIP3    H131977   4.008   5.498  18.813  0.4015  0.8397  0.7709
 2594TIP3    H231978   3.987   5.641  18.767 -0.9781  0.1570 -0.8183
 2595TIP3   OH231979   6.639   2.211  17.304  0.0969 -0.2387  0.0532
 2595TIP3    H131980   6.561   2.253  17.268 -0.2885  0.0500  1.2133
 2595TIP3    H231981   6.712   2.264  17.270 -0.4367  2.7590  3.0997
 2596TIP3   OH231982   2.215   0.094  18.417 -0.0752 -0.1997 -0.0254
 2596TIP3    H131983   2.298   0.046  18.405 -0.6352 -1.2551  0.2050
 2596TIP3    H231984   2.218   0.163  18.351 -0.2015 -1.9073 -1.9096
 2597TIP3   OH231985   3.059   4.329  18.954 -0.1716 -0.3040 -0.1335
 2597TIP3    H131986   3.041   4.354  18.864 -1.5966 -1.6718 -0.2721
 2597TIP3    H231987   3.092   4.409  18.995 -0.9809  0.7622 -1.4699
 2598TIP3   OH231988   7.297   1.678  19.370 -0.0132  0.3596  0.6034
 2598TIP3    H131989   7.332   1.630  19.445 -2.2763  0.5522  1.8981
 2598TIP3    H231990   7.245   1.613  19.323  1.3315  0.2583 -0.8234
 2599TIP3   OH231991   0.950   2.619  19.164  0.5207 -0.9294  0.0086
 2599TIP3    H131992   0.890   2.638  19.236 -0.5297 -2.2567 -0.4717
 2599TIP3    H231993   0.980   2.530  19.181  1.8344 -0.5350 -0.1406
 2600TIP3   OH231994   6.807   5.221  18.785 -0.1458  0.1156 -0.6665
 2600TIP3    H131995   6.902   5.229  18.788  0.0112 -0.9438 -2.1217
 2600TIP3    H231996   6.776   5.297  18.835  1.4390  0.5583 -0.2745
 2601TIP3   OH231997   4.982   6.635  19.243 -0.8632 -0.4680 -0.2312
 2601TIP3    H131998   4.929   6.579  19.300  0.4220 -1.7454 -0.2266
 2601TIP3    H231999   5.014   6.576  19.175 -0.8173  0.6380 -1.2070
 2602TIP3   OH232000   2.117   3.834  18.316 -0.0485 -0.2949 -0.4880
 2602TIP3    H132001   2.157   3.765  18.369 -0.1294  0.5718  0.7365
 2602TIP3    H232002   2.186   3.900  18.308 -0.8433  0.7197  0.7128
 2603TIP3   OH232003   4.651   4.772  18.029 -0.6046 -0.1849 -0.2898
 2603TIP3    H132004   4.656   4.690  18.078  0.1205  0.1848  0.2760
 2603TIP3    H232005   4.673   4.839  18.093 -1.7862  0.5221 -0.6009
 2604TIP3   OH232006   1.665   3.027  18.263  0.0644  0.0063  0.0400
 2604TIP3    H132007   1.586   3.072  18.232  0.2778  2.5607  2.7877
 2604TIP3    H232008   1.633   2.945  18.301 -1.2948  0.8788  0.8711
 2605TIP3   OH232009   4.118   1.781  17.531  0.1600  0.5471 -0.0513
 2605TIP3    H132010   4.079   1.869  17.538 -1.0219  0.1874 -1.5999
 2605TIP3    H232011   4.062   1.726  17.586 -0.6676  0.3130 -1.0953
 2606TIP3   OH232012   7.329   7.525  18.091  0.3670  0.0530 -0.7380
 2606TIP3    H132013   7.410   7.517  18.141 -0.8751 -3.8863  1.0759
 2606TIP3    H232014   7.260   7.531  18.157 -1.0515 -0.7601 -2.0594
 2607TIP3   OH232015   6.817   0.763  18.915 -0.1589  0.4433 -0.8031
 2607TIP3    H132016   6.817   0.843  18.862 -0.4926  1.5948  0.8417
 2607TIP3    H232017   6.726   0.753  18.943  0.5399  2.0531  2.5424
 2608TIP3   OH232018   2.033   7.210  18.395  0.4106 -0.4271 -0.0050
 2608TIP3    H132019   2.060   7.203  18.304 -0.4794  0.8729 -0.4006
 2608TIP3    H232020   1.970   7.140  18.408 -1.0374  0.6321 -1.0241
 2609TIP3   OH232021   6.980   1.091  18.501  0.1565  0.0696  0.1449
 2609TIP3    H132022   6.916   1.108  18.431 -1.7108 -0.5425  1.6125
 2609TIP3    H232023   7.060   1.135  18.471 -0.5416 -0.1981 -2.3719
 2610TIP3   OH232024   5.870   6.803  19.463  0.0961  0.0385  0.0122
 2610TIP3    H132025   5.811   6.849  19.522 -0.3876  0.0094 -0.4330
 2610TIP3    H232026   5.826   6.719  19.446 -0.0052  0.2294 -0.7375
 2611TIP3   OH232027   0.971   7.288  17.333 -0.0724  0.2312 -0.5588
 2611TIP3    H132028   0.900   7.224  17.328 -2.0943  2.3857 -1.8704
 2611TIP3    H232029   0.937   7.365  17.287  1.5734  2.8119  2.1440
 2612TIP3   OH232030   5.303   3.885  17.904  0.4754  0.2882 -0.4227
 2612TIP3    H132031   5.296   3.937  17.823  0.6438 -0.2303 -0.7739
 2612TIP3    H232032   5.388   3.841  17.896  0.5812  0.3916  0.1370
 2613TIP3   OH232033   4.979   0.511  17.063 -0.2612 -0.1218  0.4303
 2613TIP3    H132034   4.967   0.606  17.060 -1.6275 -0.2589 -2.5735
 2613TIP3    H232035   5.072   0.499  17.081  0.7123  1.9628 -2.4772
 2614TIP3   OH232036   4.806   0.101  17.384  0.0070 -0.7038 -0.0743
 2614TIP3    H132037   4.718   0.123  17.353 -0.2759  0.3727  1.3575
 2614TIP3    H232038   4.791   0.037  17.454  0.0809  1.1943  1.8134
 2615TIP3   OH232039   1.864   3.814  17.750 -0.2190  0.2091 -0.3435
 2615TIP3    H132040   1.831   3.872  17.818  0.9527  0.1955  0.2691
 2615TIP3    H232041   1.894   3.736  17.797 -0.3915 -0.2589 -0.9944
 2616TIP3   OH232042   2.440   7.613  19.453 -0.2535  0.5668 -0.3889
 2616TIP3    H132043   2.353   7.648  19.432 -0.3896  1.0771  0.9482
 2616TIP3    H232044   2.465   7.658  19.533  1.3809  0.6236 -0.9037
 2617TIP3   OH232045   5.040   4.742  17.837  0.1583  0.3022  0.1162
 2617TIP3    H132046   5.102   4.815  17.847  1.4312 -0.7205 -0.0805
 2617TIP3    H232047   5.005   4.728  17.924 -0.5995  1.5730  0.0328
 2618TIP3   OH232048   3.544   6.300  17.725  0.2694  1.0547  0.6088
 2618TIP3    H132049   3.498   6.274  17.645  1.0700  0.7063  0.2556
 2618TIP3    H232050   3.494   6.375  17.757 -1.0951  0.1284  0.7418
 2619TIP3   OH232051   4.305   7.332  19.145 -0.0203 -0.1157  0.0222
 2619TIP3    H132052   4.228   7.389  19.142 -0.7320 -1.0056  0.7817
 2619TIP3    H232053   4.282   7.257  19.090 -0.6715 -1.5120  2.1030
 2620TIP3   OH232054   0.933   6.563  18.777 -0.3795  0.0683  0.0407
 2620TIP3    H132055   0.877   6.569  18.699  0.8129  2.2546 -0.7298
 2620TIP3    H232056   0.974   6.476  18.770 -1.0093 -0.1503 -1.2527
 2621TIP3   OH232057   6.550   6.594  19.676  0.1756 -0.8432 -0.5989
 2621TIP3    H132058   6.472   6.649  19.685  1.4968  1.0964 -0.4397
 2621TIP3    H232059   6.516   6.504  19.678 -1.7930 -0.1883  2.2780
 2622TIP3   OH232060   6.962   6.578  18.157 -0.4298 -0.3350 -0.1297
 2622TIP3    H132061   6.975   6.570  18.063  1.0382 -1.9410  0.1688
 2622TIP3    H232062   6.872   6.611  18.166 -0.8782 -0.9302 -2.0592
 2623TIP3   OH232063   3.498   2.348  16.608  0.1168  0.2152  0.5960
 2623TIP3    H132064   3.593   2.332  16.611  0.1418  0.3563  0.5902
 2623TIP3    H232065   3.484   2.389  16.523  0.0927  0.4541  0.7131
 2624TIP3   OH232066   5.338   3.011  18.188  0.3492 -0.5900 -0.3120
 2624TIP3    H132067   5.327   3.071  18.114  1.0126  0.3091  0.2889
 2624TIP3    H232068   5.387   2.938  18.152 -0.8964 -1.0204 -1.1773
 2625TIP3   OH232069   7.337   4.409  17.817 -0.5089 -0.0731  0.6174
 2625TIP3    H132070   7.356   4.401  17.911  1.5639 -0.4560  0.2099
 2625TIP3    H232071   7.388   4.339  17.776  1.2590  2.0941 -1.0978
 2626TIP3   OH232072   7.371   2.148  18.735 -0.2557  0.2265 -0.0052
 2626TIP3    H132073   7.404   2.216  18.793 -1.0625  0.3537  0.3297
 2626TIP3    H232074   7.284   2.179  18.709  0.3118  0.4662 -1.7832
 2627TIP3   OH232075   0.235   0.460  18.777  0.1697 -0.0925 -0.5211
 2627TIP3    H132076   0.324   0.470  18.742 -0.3463  1.3030 -1.5289
 2627TIP3    H232077   0.179   0.500  18.711 -1.1693 -0.3998  0.3888
 2628TIP3   OH232078   4.296   3.375  18.290  0.0635  0.5495 -0.2350
 2628TIP3    H132079   4.237   3.442  18.257  0.1839  0.9035  0.2620
 2628TIP3    H232080   4.264   3.294  18.250 -0.3724  0.8263 -0.4613
 2629TIP3   OH232081   5.069   5.926  19.399 -0.1484  0.2789 -0.1102
 2629TIP3    H132082   5.003   5.934  19.331 -0.8555 -0.8604  0.4059
 2629TIP3    H232083   5.062   5.835  19.428  0.0262  0.7759  1.5828
 2630TIP3   OH232084   6.331   1.238  17.491  0.3078 -0.5182 -0.0523
 2630TIP3    H132085   6.414   1.193  17.509  1.0148  1.1535  1.1338
 2630TIP3    H232086   6.357   1.314  17.438 -0.1176  1.1212  1.9480
 2631TIP3   OH232087   0.595   6.097  18.928 -0.0451 -0.1054  0.2161
 2631TIP3    H132088   0.586   6.081  19.022  0.8398 -2.0346  0.0013
 2631TIP3    H232089   0.540   6.031  18.886 -2.8998  2.5851 -0.6642
 2632TIP3   OH232090   0.268   1.090  17.143 -0.4396 -0.2429  0.5837
 2632TIP3    H132091   0.308   1.175  17.127 -0.1796 -0.6988 -1.4447
 2632TIP3    H232092   0.194   1.086  17.082 -0.1182 -1.6732  0.2502
 2633TIP3   OH232093   2.276   6.832  17.925 -0.3673  0.1079  0.3040
 2633TIP3    H132094   2.243   6.826  18.014 -0.4475  0.9955  0.3402
 2633TIP3    H232095   2.202   6.865  17.874 -0.3815 -0.5693 -0.1341
 2634TIP3   OH232096   4.135   5.183  18.429  0.4783 -0.0735  0.0164
 2634TIP3    H132097   4.131   5.269  18.386 -2.7340 -0.0086  0.1878
 2634TIP3    H232098   4.142   5.204  18.522 -0.2610  0.0446  0.0545
 2635TIP3   OH232099   4.412   2.368  17.482  0.4314 -0.0228 -0.1321
 2635TIP3    H132100   4.349   2.430  17.518  0.4455  0.6974 -1.2979
 2635TIP3    H232101   4.449   2.413  17.406  1.0746 -1.1219 -0.4865
 2636TIP3   OH232102   1.605   1.895  18.595 -0.4458 -0.4450  0.8425
 2636TIP3    H132103   1.576   1.986  18.586 -0.3803 -0.6752 -2.8434
 2636TIP3    H232104   1.676   1.899  18.659  0.4709  2.3541 -0.2032
 2637TIP3   OH232105   1.174   7.457  18.822  0.5164  0.0219 -0.3441
 2637TIP3    H132106   1.262   7.436  18.793 -0.1076  0.0348 -2.4299
 2637TIP3    H232107   1.125   7.375  18.812 -0.3139  0.6729 -1.8424
 2638TIP3   OH232108   3.691   1.241  19.445 -0.3755 -0.0304  0.3195
 2638TIP3    H132109   3.662   1.319  19.399  0.1563  0.4321  0.7404
 2638TIP3    H232110   3.672   1.260  19.537  1.0823  0.2436  0.5990
 2639TIP3   OH232111   0.990   3.002  18.692  0.3183  0.5950 -0.3507
 2639TIP3    H132112   1.077   3.033  18.664  0.8995 -0.7247 -0.0695
 2639TIP3    H232113   0.973   2.926  18.638 -0.8935  1.1108 -0.7231
 2640TIP3   OH232114   0.324   5.998  18.791  0.6425 -0.2116  0.3338
 2640TIP3    H132115   0.312   6.078  18.842  0.9290  0.5187 -0.7228
 2640TIP3    H232116   0.234   5.968  18.773  0.5369 -0.4106  1.1295
 2641TIP3   OH232117   6.331   1.512  18.621 -0.3663 -0.7758 -0.4343
 2641TIP3    H132118   6.375   1.430  18.596  1.7686 -0.0348  0.6158
 2641TIP3    H232119   6.380   1.543  18.697 -1.5864  1.1212 -0.3593
 2642TIP3   OH232120   5.548   6.336  18.047 -0.3731 -0.3518  0.9305
 2642TIP3    H132121   5.574   6.418  18.004  0.8898 -1.5384 -0.6804
 2642TIP3    H232122   5.454   6.346  18.061 -0.2081  1.4644  0.9797
 2643TIP3   OH232123   7.187   1.854  17.865  0.1977  0.4134  0.0673
 2643TIP3    H132124   7.132   1.777  17.881 -0.7044  1.3405  1.7869
 2643TIP3    H232125   7.141   1.902  17.796 -0.1361  0.2176  0.1501
 2644TIP3   OH232126   1.513   5.300  18.058  0.3703 -0.1823  0.2941
 2644TIP3    H132127   1.567   5.226  18.085 -0.1274  0.1361  2.4167
 2644TIP3    H232128   1.434   5.261  18.023 -0.0152 -0.7012  1.6784
 2645TIP3   OH232129   2.288   3.297  18.527 -0.0518 -0.0703 -0.6738
 2645TIP3    H132130   2.234   3.267  18.600  0.8373  2.2497  1.0943
 2645TIP3    H232131   2.255   3.250  18.451 -0.3585 -3.4068  1.3347
 2646TIP3   OH232132   2.401   0.521  18.975  0.1250 -0.3229 -0.4137
 2646TIP3    H132133   2.436   0.445  19.020  1.3172  1.1196  1.2527
 2646TIP3    H232134   2.314   0.534  19.012  0.7539  0.3279  0.9181
 2647TIP3   OH232135   7.001   4.959  18.835  0.2270  0.2440  0.0738
 2647TIP3    H132136   7.088   4.955  18.876 -0.3773 -0.5331  1.3429
 2647TIP3    H232137   6.977   5.052  18.842 -0.0556  0.0710  1.9951
 2648TIP3   OH232138   0.121   2.902  17.655 -0.3403  0.3317  0.1495
 2648TIP3    H132139   0.210   2.898  17.619  1.1603 -2.2621  3.5408
 2648TIP3    H232140   0.085   2.814  17.642 -1.2144  0.4732  1.4048
 2649TIP3   OH232141   5.067   7.284  19.344 -0.2837 -0.0065 -0.4174
 2649TIP3    H132142   5.024   7.355  19.296 -3.0623 -1.4610 -0.3004
 2649TIP3    H232143   5.067   7.313  19.435  0.6545  0.7567 -0.6481
 2650TIP3   OH232144   2.673   0.436  17.683 -0.1931  0.1606 -0.0007
 2650TIP3    H132145   2.746   0.454  17.743 -0.6185 -0.3542  0.6794
 2650TIP3    H232146   2.638   0.523  17.662  0.6256  0.4194 -0.3624
 2651TIP3   OH232147   2.677   7.598  18.076 -0.3869 -0.4192  0.0915
 2651TIP3    H132148   2.695   7.590  17.982  2.0267  1.2922  0.3169
 2651TIP3    H232149   2.616   7.671  18.083 -1.0882 -0.9655 -0.1450
 2652TIP3   OH232150   2.385   3.898  18.494 -0.4725  0.2323  0.0351
 2652TIP3    H132151   2.353   3.952  18.422  0.4217 -0.0021 -0.5663
 2652TIP3    H232152   2.311   3.889  18.553 -1.1113  0.7500 -0.6723
 2653TIP3   OH232153   0.949   2.803  17.713  0.4963 -0.2488 -0.1578
 2653TIP3    H132154   0.923   2.889  17.746  1.2880  0.2330 -0.7778
 2653TIP3    H232155   0.908   2.796  17.627 -1.2324 -1.3427  0.6946
 2654TIP3   OH232156   2.297   2.667  17.198 -0.1455  0.3750 -0.1652
 2654TIP3    H132157   2.335   2.628  17.119  1.9327  2.0149 -0.0599
 2654TIP3    H232158   2.258   2.749  17.167  2.1443  1.8776  0.6356
 2655TIP3   OH232159   2.453   2.431  19.284 -0.2205 -0.1778 -0.0514
 2655TIP3    H132160   2.542   2.464  19.297 -1.0197  1.7619  0.8844
 2655TIP3    H232161   2.402   2.509  19.260 -2.0884 -0.8199  1.5798
 2656TIP3   OH232162   7.566   4.101  19.454 -0.6285 -0.3540 -0.1561
 2656TIP3    H132163   7.567   4.176  19.396  1.2918 -1.1132 -1.1899
 2656TIP3    H232164   7.501   4.042  19.416 -0.5743 -0.1480 -0.5700
 2657TIP3   OH232165   3.689   3.943  17.290 -0.0367  0.2493 -0.5776
 2657TIP3    H132166   3.634   3.977  17.219  2.1504  3.1663 -1.0508
 2657TIP3    H232167   3.779   3.955  17.259  0.9679 -0.5259  1.7804
 2658TIP3   OH232168   2.266   3.417  17.965  0.1213 -0.2711 -0.0312
 2658TIP3    H132169   2.204   3.344  17.957  0.2582 -0.3014 -0.9953
 2658TIP3    H232170   2.307   3.404  18.051 -2.9388  1.1735  1.8167
 2659TIP3   OH232171   4.429   0.578  18.540 -0.6602  0.0011  0.0652
 2659TIP3    H132172   4.450   0.619  18.623  0.7539  0.3466 -0.4202
 2659TIP3    H232173   4.377   0.501  18.563  3.0179 -2.2989  1.7379
 2660TIP3   OH232174   5.207   2.528  17.775  0.1107 -0.0363 -0.0176
 2660TIP3    H132175   5.147   2.459  17.747  0.5601 -1.0180  1.3537
 2660TIP3    H232176   5.224   2.579  17.695 -0.3566 -1.3987 -1.0195
 2661TIP3   OH232177   2.437   0.764  18.865  0.5588  0.6628 -0.5830
 2661TIP3    H132178   2.424   0.760  18.770  1.6339  0.0975 -0.7166
 2661TIP3    H232179   2.420   0.674  18.895  2.4607  0.2890 -0.5519
 2662TIP3   OH232180   1.143   0.999  18.838 -0.8590  0.1377 -0.0036
 2662TIP3    H132181   1.091   0.992  18.918 -1.7023  3.0557 -0.1624
 2662TIP3    H232182   1.233   1.007  18.868 -1.2362  1.9276  0.7568
 2663TIP3   OH232183   6.830   2.737  18.158 -0.3528 -0.1220 -0.1121
 2663TIP3    H132184   6.840   2.816  18.211 -1.5640 -0.0545  0.0311
 2663TIP3    H232185   6.797   2.671  18.219 -1.2156 -0.1989 -0.6480
 2664TIP3   OH232186   7.168   7.648  17.164 -0.2206 -0.8118  0.1199
 2664TIP3    H132187   7.125   7.718  17.212 -1.6788 -0.1064 -2.0352
 2664TIP3    H232188   7.247   7.628  17.214 -0.6211  1.2250  1.6585
 2665TIP3   OH232189   7.109   6.189  16.849 -0.4955  0.3866 -0.1795
 2665TIP3    H132190   7.047   6.164  16.781 -0.8151  2.1577 -0.5807
 2665TIP3    H232191   7.054   6.214  16.924 -0.2252  0.7295 -0.0934
 2666TIP3   OH232192   5.491   7.283  18.838 -0.0296 -0.0641  0.8069
 2666TIP3    H132193   5.556   7.354  18.837  1.6469 -1.4392  2.6991
 2666TIP3    H232194   5.517   7.225  18.767 -0.0463  0.0905  0.6744
 2667TIP3   OH232195   6.450   5.837  17.956 -0.0511  0.3370 -0.8464
 2667TIP3    H132196   6.502   5.916  17.970  1.2158 -0.4844 -0.7292
 2667TIP3    H232197   6.460   5.786  18.037 -2.8953  1.1144  0.1321
 2668TIP3   OH232198   0.136   4.953  18.801  0.4362  0.2066 -0.1883
 2668TIP3    H132199   0.144   4.860  18.780  0.9075  0.2506 -0.2165
 2668TIP3    H232200   0.087   4.990  18.727 -0.6898 -0.2009  0.3265
 2669TIP3   OH232201   4.726   4.915  18.894  0.0430 -0.4719  0.0509
 2669TIP3    H132202   4.724   4.995  18.947  1.8058  0.2171 -0.8421
 2669TIP3    H232203   4.677   4.851  18.946 -2.9011  1.5549  0.0563
 2670TIP3   OH232204   1.868   1.399  17.771 -0.1418  0.0721 -0.0856
 2670TIP3    H132205   1.946   1.353  17.805 -0.4445  1.1893  2.3076
 2670TIP3    H232206   1.904   1.464  17.710  0.8005  0.3112  0.6857
 2671TIP3   OH232207   4.865   0.551  16.717 -0.5715 -0.1926 -0.0152
 2671TIP3    H132208   4.840   0.621  16.657  0.2094  0.5039  0.4620
 2671TIP3    H232209   4.959   0.560  16.727 -0.5258 -1.0468  0.3928
 2672TIP3   OH232210   0.876   4.008  16.485  0.0363 -0.6645  0.7138
 2672TIP3    H132211   0.880   3.942  16.417 -2.7930  0.7807 -1.0460
 2672TIP3    H232212   0.935   4.077  16.456 -1.2398 -0.0038 -0.4553
 2673TIP3   OH232213   6.470   3.599  18.508 -0.0717  0.1178  0.8617
 2673TIP3    H132214   6.410   3.582  18.581 -0.5731  2.3086  1.0073
 2673TIP3    H232215   6.556   3.573  18.541 -0.5392 -0.5095  1.6152
 2674TIP3   OH232216   5.322   2.227  17.216  0.0440 -0.4781 -0.5572
 2674TIP3    H132217   5.271   2.148  17.197  0.0001 -0.7630  0.6803
 2674TIP3    H232218   5.370   2.206  17.296  1.6596  0.0075 -1.3487
 2675TIP3   OH232219   3.714   6.623  16.948 -0.1991 -0.0771  0.5382
 2675TIP3    H132220   3.668   6.703  16.975 -0.2059 -0.1359  0.7063
 2675TIP3    H232221   3.804   6.637  16.975 -0.1047  0.0584  0.1638
 2676TIP3   OH232222   7.123   6.686  17.889 -0.3363  0.3026  0.2942
 2676TIP3    H132223   7.192   6.751  17.904  0.0253  0.2979 -1.2364
 2676TIP3    H232224   7.052   6.735  17.847 -0.1664 -0.2303 -0.6294
 2677TIP3   OH232225   2.732   4.747  18.065  0.0018  0.4255  0.1926
 2677TIP3    H132226   2.681   4.690  18.008 -0.3863  0.5712  0.3921
 2677TIP3    H232227   2.719   4.835  18.029 -1.8204  0.8010  1.6047
 2678TIP3   OH232228   2.033   1.746  17.708  0.1106  0.1347 -0.1333
 2678TIP3    H132229   2.007   1.656  17.686 -0.2004  0.0104  0.6717
 2678TIP3    H232230   2.117   1.758  17.665  0.5272 -0.8255  0.3693
 2679TIP3   OH232231   5.035   3.931  18.878 -0.4967  0.4365  0.7007
 2679TIP3    H132232   5.122   3.972  18.885 -1.0252  1.5078  1.1276
 2679TIP3    H232233   5.011   3.911  18.968 -2.2724  3.5851  1.0830
 2680TIP3   OH232234   4.583   3.158  18.649 -0.4080  0.2243  0.1829
 2680TIP3    H132235   4.547   3.119  18.569 -0.2766 -0.0968  0.2797
 2680TIP3    H232236   4.516   3.143  18.716 -0.4123  0.2750  0.1904
 2681TIP3   OH232237   4.834   2.612  17.721 -0.3651 -0.7037 -0.4979
 2681TIP3    H132238   4.791   2.644  17.642 -1.0644 -0.0107  0.1401
 2681TIP3    H232239   4.773   2.549  17.759  0.2129 -1.4500 -0.7998
 2682TIP3   OH232240   5.977   1.859  19.299  0.6479 -0.2803  0.3744
 2682TIP3    H132241   5.934   1.943  19.281 -1.5499 -1.6503 -1.2643
 2682TIP3    H232242   6.069   1.876  19.282  0.2430  1.7368 -0.1563
 2683TIP3   OH232243   3.041   3.829  16.947 -0.0249  0.8802 -0.2954
 2683TIP3    H132244   3.034   3.915  16.990  1.7759 -0.0788  2.1133
 2683TIP3    H232245   3.133   3.806  16.953 -0.4853 -1.3215 -0.7525
 2684TIP3   OH232246   0.042   3.443  19.404  0.0696 -0.3685 -0.3528
 2684TIP3    H132247   0.076   3.388  19.474  0.1287 -0.7340 -0.6647
 2684TIP3    H232248   0.056   3.533  19.435  0.4001 -0.5235 -0.0436
 2685TIP3   OH232249   2.805   6.457  19.391 -0.8098  0.3187  0.3997
 2685TIP3    H132250   2.833   6.369  19.365 -0.5908  0.5203 -0.0681
 2685TIP3    H232251   2.720   6.444  19.432 -0.6583 -0.1418  0.5715
 2686TIP3   OH232252   6.641   7.626  17.763 -0.2661  0.3522  0.2527
 2686TIP3    H132253   6.726   7.604  17.801  0.3363  1.3502 -0.4624
 2686TIP3    H232254   6.641   7.585  17.677 -0.4578  0.4567  0.2006
 2687TIP3   OH232255   1.339   6.576  18.865 -0.2725  0.4103  0.2374
 2687TIP3    H132256   1.316   6.485  18.845  1.6009  0.2383 -1.4662
 2687TIP3    H232257   1.272   6.605  18.927 -1.2504 -1.9378  0.3729
 2688TIP3   OH232258   6.265   1.879  19.227  0.2365 -0.4083  0.3344
 2688TIP3    H132259   6.329   1.948  19.214 -0.6370  0.2736 -0.5602
 2688TIP3    H232260   6.297   1.829  19.302  0.7384  1.1402  1.1904
 2689TIP3   OH232261   0.328   2.465  18.841 -0.1578  0.1054 -0.4777
 2689TIP3    H132262   0.365   2.470  18.753 -0.5100 -0.9882 -0.7099
 2689TIP3    H232263   0.262   2.396  18.835  2.6136 -3.0297  1.5767
 2690TIP3   OH232264   2.261   5.156  17.240  0.0343  0.1555  0.2325
 2690TIP3    H132265   2.277   5.062  17.243 -0.2162 -0.0142 -2.1813
 2690TIP3    H232266   2.345   5.194  17.267 -0.5085 -0.6329  3.5838
 2691TIP3   OH232267   3.576   1.766  19.037 -0.1462  0.0681 -0.1434
 2691TIP3    H132268   3.522   1.713  18.980 -0.2668  0.0804 -0.0406
 2691TIP3    H232269   3.606   1.839  18.982 -0.4740  0.2206 -0.1219
 2692TIP3   OH232270   3.956   0.989  17.921  0.3981  0.0069  0.4633
 2692TIP3    H132271   3.889   1.052  17.897  0.0878 -0.1651  0.8515
 2692TIP3    H232272   3.907   0.909  17.943  0.7684 -0.3043  0.1731
 2693TIP3   OH232273   2.586   1.091  18.299  0.1463 -0.0028  0.3423
 2693TIP3    H132274   2.638   1.035  18.357 -1.1692 -1.3089  0.3204
 2693TIP3    H232275   2.630   1.085  18.214 -1.3079 -3.1178 -0.3226
 2694TIP3   OH232276   3.158   4.642  18.511 -0.0316  0.4852  0.7516
 2694TIP3    H132277   3.247   4.677  18.505  0.0937  0.3148  1.4913
 2694TIP3    H232278   3.122   4.682  18.590 -0.4527  0.1867  0.7143
 2695TIP3   OH232279   5.871   5.794  18.537  0.2891 -0.1446  0.3482
 2695TIP3    H132280   5.819   5.853  18.482 -0.7692 -1.3020  0.0494
 2695TIP3    H232281   5.910   5.732  18.475 -1.7481 -2.1118  0.8655
 2696TIP3   OH232282   6.946   6.844  17.725  0.4535  0.5401 -0.0871
 2696TIP3    H132283   6.951   6.895  17.644 -0.6789  0.3935 -0.2737
 2696TIP3    H232284   6.969   6.906  17.795  0.8523  0.8222 -0.4635
 2697TIP3   OH232285   5.027   7.460  17.928  0.0218 -0.2638  0.1070
 2697TIP3    H132286   4.950   7.470  17.985  0.7484  1.1566  0.9075
 2697TIP3    H232287   5.011   7.379  17.881 -1.4075 -0.6312  1.1301
 2698TIP3   OH232288   0.802   7.606  17.588  0.0113  0.0722  0.0591
 2698TIP3    H132289   0.824   7.698  17.602 -1.4448  0.8124 -2.1144
 2698TIP3    H232290   0.707   7.602  17.594 -0.0536 -1.0123 -1.2642
 2699TIP3   OH232291   7.585   1.602  18.944 -0.1445 -0.2197 -0.5815
 2699TIP3    H132292   7.517   1.537  18.958  1.0540 -1.3650  0.1198
 2699TIP3    H232293   7.606   1.595  18.851 -0.6822 -0.1410 -0.7140
 2700TIP3   OH232294   0.374   2.474  16.852  0.2000  0.2841  0.2766
 2700TIP3    H132295   0.361   2.379  16.845 -0.8291  0.4498 -0.1422
 2700TIP3    H232296   0.451   2.492  16.799  0.4701 -0.3316  0.4518
 2701TIP3   OH232297   6.539   3.032  19.732 -0.0260  0.2533  0.3712
 2701TIP3    H132298   6.449   3.065  19.740 -0.2649  0.1577 -1.4745
 2701TIP3    H232299   6.530   2.937  19.740  0.2399  0.3470  2.3798
 2702TIP3   OH232300   3.141   4.885  18.768  0.1391 -0.0505 -0.3554
 2702TIP3    H132301   3.224   4.902  18.813 -0.1991 -0.8546  0.5915
 2702TIP3    H232302   3.154   4.922  18.681  1.6737 -0.5788 -0.3829
 2703TIP3   OH232303   0.224   6.864  19.631  0.3665 -0.6688 -0.4378
 2703TIP3    H132304   0.159   6.913  19.680  0.1450 -0.9241 -0.4765
 2703TIP3    H232305   0.216   6.774  19.661  0.7620 -0.6885 -0.3775
 2704TIP3   OH232306   4.808   1.076  16.681  0.3873  0.3196 -0.0099
 2704TIP3    H132307   4.865   1.140  16.724  0.1735  0.8989 -0.5790
 2704TIP3    H232308   4.722   1.090  16.721  0.6390 -0.6142  0.9107
 2705TIP3   OH232309   3.509   0.492  19.181 -0.6727 -0.1874  0.1870
 2705TIP3    H132310   3.596   0.467  19.212 -1.4512 -1.2529  1.6154
 2705TIP3    H232311   3.522   0.513  19.089  0.8681 -1.5404  0.0519
 2706TIP3   OH232312   1.062   1.313  19.096 -0.7762  0.6666 -0.5430
 2706TIP3    H132313   1.036   1.317  19.188 -1.7392  1.2994 -0.8262
 2706TIP3    H232314   1.158   1.310  19.098 -0.3293  6.0980  0.4297
 2707TIP3   OH232315   0.241   7.539  16.969 -0.4655  0.2746 -0.1862
 2707TIP3    H132316   0.231   7.548  17.064  0.4788  0.9111 -0.1327
 2707TIP3    H232317   0.244   7.629  16.937  2.7674  0.2170 -0.3878
 2708TIP3   OH232318   7.384   2.428  19.527  0.1623  0.5987 -0.4657
 2708TIP3    H132319   7.399   2.335  19.542 -0.8258  0.2155 -1.7359
 2708TIP3    H232320   7.462   2.458  19.481  1.6680  1.0302  2.1357
 2709TIP3   OH232321   3.901   1.065  19.373  0.5261  0.0149  0.1032
 2709TIP3    H132322   3.844   1.136  19.405  0.1883  0.2718 -1.0168
 2709TIP3    H232323   3.948   1.104  19.300 -0.9246 -1.3798 -1.6521
 2710TIP3   OH232324   2.578   0.481  18.612 -0.0846  0.1171  0.1298
 2710TIP3    H132325   2.526   0.560  18.599 -1.0478 -0.3370  1.1445
 2710TIP3    H232326   2.638   0.480  18.537 -0.6999  1.2962 -0.4062
 2711TIP3   OH232327   4.355   4.804  19.194 -0.3776  0.6665  0.2963
 2711TIP3    H132328   4.431   4.760  19.231  0.3331  1.9964  0.4864
 2711TIP3    H232329   4.284   4.740  19.201  1.1302 -1.3858 -1.7787
 2712TIP3   OH232330   5.713   4.535  19.195  0.0989 -0.1284 -0.0405
 2712TIP3    H132331   5.806   4.557  19.200  0.3140 -0.7413 -1.0907
 2712TIP3    H232332   5.670   4.618  19.176  0.3649  0.2510  0.9676
 2713TIP3   OH232333   1.209   5.061  18.671  0.4496 -0.1530 -0.9729
 2713TIP3    H132334   1.188   5.122  18.601 -2.4688 -0.3892 -0.4335
 2713TIP3    H232335   1.232   4.980  18.626  0.2973  0.1903 -1.6868
 2714TIP3   OH232336   1.390   2.373  18.766  0.1916 -0.4205  0.1219
 2714TIP3    H132337   1.434   2.290  18.780  2.4523  0.7465  0.5028
 2714TIP3    H232338   1.386   2.413  18.854 -2.0822 -0.6545  0.1734
 2715TIP3   OH232339   7.040   5.398  19.267  0.7191  0.3725  0.6097
 2715TIP3    H132340   7.030   5.460  19.340 -0.8914  0.0137  0.7445
 2715TIP3    H232341   7.106   5.437  19.211  0.9533  1.3724  1.5456
 2716TIP3   OH232342   6.351   7.062  17.828  0.4988  0.1162 -0.3604
 2716TIP3    H132343   6.334   7.147  17.868  0.8947 -1.0280  2.4477
 2716TIP3    H232344   6.444   7.046  17.844  0.8113 -0.2092 -2.2714
 2717TIP3   OH232345   4.228   4.145  17.450 -0.0053  0.0446 -0.3287
 2717TIP3    H132346   4.265   4.233  17.458  1.0950 -0.3819 -0.5898
 2717TIP3    H232347   4.222   4.131  17.355 -0.1841 -0.1696 -0.2858
 2718TIP3   OH232348   2.062   6.043  18.493  0.3639 -0.7899 -0.8766
 2718TIP3    H132349   2.087   6.070  18.404 -1.0018  1.2033 -0.7258
 2718TIP3    H232350   2.145   6.021  18.535  1.3381  0.6759 -1.9112
 2719TIP3   OH232351   2.460   2.511  16.387  0.1739 -0.1754 -0.2674
 2719TIP3    H132352   2.515   2.551  16.321  0.2466 -0.0110 -0.1111
 2719TIP3    H232353   2.520   2.461  16.442  0.0212 -0.8984 -0.7465
 2720TIP3   OH232354   5.509   2.865  19.354 -0.2260 -0.1374 -1.0071
 2720TIP3    H132355   5.483   2.887  19.444  2.0411 -0.5288 -0.1901
 2720TIP3    H232356   5.474   2.777  19.340  0.5523 -0.6297  0.0238
 2721TIP3   OH232357   1.074   2.548  17.473  0.0273  0.3023  0.2110
 2721TIP3    H132358   1.107   2.608  17.540 -0.0875  1.4692 -0.7382
 2721TIP3    H232359   1.144   2.482  17.464  0.9105  1.2209  0.1189
 2722TIP3   OH232360   6.665   3.898  16.960  0.0712  0.8393  0.3353
 2722TIP3    H132361   6.685   3.839  16.887 -2.4657  2.6201 -2.0256
 2722TIP3    H232362   6.591   3.856  17.005 -0.2137  1.0842  0.1000
 2723TIP3   OH232363   5.303   2.508  18.692  0.2905  0.3695 -0.3803
 2723TIP3    H132364   5.380   2.508  18.636  0.3547  0.5738 -0.2916
 2723TIP3    H232365   5.254   2.430  18.665  2.0899 -1.6319  1.6787
 2724TIP3   OH232366   4.096   2.328  18.456  0.0925 -0.3668  0.3304
 2724TIP3    H132367   4.086   2.237  18.486 -1.9669 -0.4100 -0.3599
 2724TIP3    H232368   4.169   2.362  18.508 -1.6675 -1.1801  3.6290
 2725TIP3   OH232369   4.137   6.604  17.727 -0.1155  0.4664 -0.1528
 2725TIP3    H132370   4.182   6.612  17.643 -0.4231  1.1627 -0.2640
 2725TIP3    H232371   4.088   6.686  17.735 -1.1232 -0.1473  0.0971
 2726TIP3   OH232372   6.830   5.902  18.686 -0.1443 -0.0650 -0.7020
 2726TIP3    H132373   6.868   5.984  18.653 -0.1184  0.8097  1.3514
 2726TIP3    H232374   6.764   5.930  18.749  0.1931 -1.6216  0.3986
 2727TIP3   OH232375   1.302   4.515  17.816  0.3561 -0.0439  0.3024
 2727TIP3    H132376   1.280   4.511  17.723 -1.3766 -1.1580  0.7120
 2727TIP3    H232377   1.246   4.584  17.851  0.7920  0.1715  0.5847
 2728TIP3   OH232378   1.615   5.357  18.764 -0.5503 -0.3115 -0.0526
 2728TIP3    H132379   1.705   5.381  18.743 -0.7409  0.1620 -0.3512
 2728TIP3    H232380   1.582   5.432  18.814 -0.4695 -0.9126  0.9395
 2729TIP3   OH232381   3.760   3.305  17.970 -0.3428  0.0778 -0.3207
 2729TIP3    H132382   3.669   3.320  17.945  0.0051  0.5251 -1.3424
 2729TIP3    H232383   3.791   3.239  17.908  0.8011  1.8722 -1.7180
 2730TIP3   OH232384   2.853   6.786  18.407 -0.1773 -0.2582  0.1392
 2730TIP3    H132385   2.837   6.773  18.313  0.0468 -2.4588  0.3505
 2730TIP3    H232386   2.796   6.859  18.431 -1.7975 -0.9746 -1.3025
 2731TIP3   OH232387   6.634   4.429  17.210  0.3782  0.1396 -0.1940
 2731TIP3    H132388   6.703   4.493  17.190  1.7027 -0.9582  0.6638
 2731TIP3    H232389   6.682   4.348  17.228 -1.0307 -0.2861  1.9824
 2732TIP3   OH232390   3.400   4.444  16.709 -0.4290 -0.2064  0.0595
 2732TIP3    H132391   3.413   4.352  16.688 -0.3954 -0.1653 -0.1073
 2732TIP3    H232392   3.489   4.481  16.710 -0.5290  0.1220 -1.2891
 2733TIP3   OH232393   4.108   3.871  18.783 -0.2403  0.2998  0.4764
 2733TIP3    H132394   4.038   3.824  18.829  0.4358  0.4980  1.7551
 2733TIP3    H232395   4.186   3.819  18.800  0.3522  1.3644  1.1035
 2734TIP3   OH232396   6.038   0.689  17.125  0.5418 -0.4609 -0.6191
 2734TIP3    H132397   5.992   0.741  17.059 -0.6600 -0.8093 -0.0913
 2734TIP3    H232398   6.091   0.753  17.173  0.9364 -0.1101 -1.4895
 2735TIP3   OH232399   1.992   3.844  17.528 -0.0022 -0.3644 -0.0311
 2735TIP3    H132400   1.935   3.831  17.604  0.8568  0.1379  0.7295
 2735TIP3    H232401   2.018   3.936  17.533 -0.3367 -0.1868 -1.2442
 2736TIP3   OH232402   2.391   0.026  18.093 -0.4135  0.1196  0.7300
 2736TIP3    H132403   2.377   0.019  17.998 -0.3318 -0.9096  0.7857
 2736TIP3    H232404   2.376  -0.062  18.126  0.5057  0.2588  1.5525
 2737TIP3   OH232405   0.631   1.281  18.920  0.2442 -0.1855  0.0549
 2737TIP3    H132406   0.625   1.342  18.846  0.9571 -0.1644  0.0125
 2737TIP3    H232407   0.714   1.235  18.907 -0.2674 -1.1533  0.1078
 2738TIP3   OH232408   5.708   3.220  18.395  0.7081 -0.2061 -0.5088
 2738TIP3    H132409   5.685   3.131  18.423  0.6673  0.4415  1.6899
 2738TIP3    H232410   5.767   3.207  18.321  1.3692 -2.1089  0.2817
 2739TIP3   OH232411   6.111   0.466  19.071  0.5258 -0.2146  0.3656
 2739TIP3    H132412   6.100   0.493  19.162 -0.3188  0.3914  0.0974
 2739TIP3    H232413   6.111   0.548  19.022 -2.1335 -0.6214 -0.4729
 2740TIP3   OH232414   5.532   0.008  18.908 -0.3901 -0.2273 -0.1429
 2740TIP3    H132415   5.478  -0.053  18.960  1.0389 -0.9055  0.6043
 2740TIP3    H232416   5.505   0.095  18.937 -1.4805 -0.5275 -0.2084
 2741TIP3   OH232417   3.575   0.275  17.939 -0.2530  0.1707  0.1228
 2741TIP3    H132418   3.596   0.346  17.878 -0.8386 -0.9050 -1.3906
 2741TIP3    H232419   3.649   0.215  17.933 -0.3305  0.0420  0.4376
 2742TIP3   OH232420   2.303   0.744  19.657  0.1725 -0.4713 -0.0170
 2742TIP3    H132421   2.372   0.686  19.689 -0.8796 -1.2270  0.9386
 2742TIP3    H232422   2.312   0.741  19.561  2.1312  0.3147  0.0979
 2743TIP3   OH232423   2.686   5.597  18.683 -0.4911 -0.5294 -0.1933
 2743TIP3    H132424   2.745   5.526  18.710 -1.6572 -1.0850  0.9504
 2743TIP3    H232425   2.600   5.556  18.677 -1.0179  0.5873 -0.4797
 2744TIP3   OH232426   7.069   7.432  17.546  0.2994  0.0358  0.1849
 2744TIP3    H132427   7.113   7.501  17.497  0.1753 -0.9858 -1.4398
 2744TIP3    H232428   6.976   7.451  17.535  0.2762  0.1501  0.5629
 2745TIP3   OH232429   0.917   6.708  18.247 -0.4233 -0.2286  0.0504
 2745TIP3    H132430   0.979   6.722  18.318 -1.5254 -0.1844  1.0401
 2745TIP3    H232431   0.832   6.701  18.290 -0.9682 -1.6061 -1.1373
 2746TIP3   OH232432   5.795   0.819  19.025 -0.1538 -0.2048  0.0273
 2746TIP3    H132433   5.814   0.746  18.965 -0.1448 -1.4116  1.4506
 2746TIP3    H232434   5.702   0.807  19.048 -1.0372  1.9913 -1.9859
 2747TIP3   OH232435   1.701   4.905  18.997  0.4512 -0.1323 -0.2292
 2747TIP3    H132436   1.612   4.928  19.023  1.0501  0.4873  1.3793
 2747TIP3    H232437   1.743   4.989  18.978  1.0632 -0.3243  0.2605
 2748TIP3   OH232438   0.380   7.038  17.359 -0.0088  0.6187 -0.3637
 2748TIP3    H132439   0.453   6.996  17.312 -1.0218 -0.4318 -1.0487
 2748TIP3    H232440   0.385   7.130  17.333 -0.9085 -0.0122 -3.1436
 2749TIP3   OH232441   5.079   3.498  18.734 -0.4392 -0.6197 -0.2913
 2749TIP3    H132442   5.136   3.520  18.660 -0.3563  1.3017  0.2909
 2749TIP3    H232443   5.005   3.453  18.694 -0.6584  0.8328 -1.6429
 2750TIP3   OH232444   2.548   6.053  17.657  0.4291 -0.6380 -0.0686
 2750TIP3    H132445   2.566   6.072  17.565 -0.2619 -0.4418 -0.1668
 2750TIP3    H232446   2.479   6.114  17.682 -0.2239 -1.4740  0.2438
 2751TIP3   OH232447   6.396   1.008  18.143 -0.2831 -0.0908 -0.0459
 2751TIP3    H132448   6.363   0.942  18.204  1.3779  0.0527  1.0644
 2751TIP3    H232449   6.403   1.088  18.195 -1.0066  0.6509 -1.0446
 2752TIP3   OH232450   6.148   6.496  19.059  0.2402  0.1060 -0.2075
 2752TIP3    H132451   6.142   6.401  19.060 -0.1070  0.1006 -1.3519
 2752TIP3    H232452   6.059   6.527  19.075  0.2792  0.2406 -0.2475
 2753TIP3   OH232453   4.572   4.519  18.451  0.2182 -0.4454  0.4728
 2753TIP3    H132454   4.608   4.564  18.527 -1.1916 -0.7344  1.3648
 2753TIP3    H232455   4.557   4.429  18.481  1.2802 -1.0442 -0.7114
 2754TIP3   OH232456   4.776   4.331  19.492  0.3960  0.4459  0.1054
 2754TIP3    H132457   4.823   4.249  19.507 -1.2660 -0.3221  1.4455
 2754TIP3    H232458   4.704   4.330  19.555 -1.8386  1.2232 -2.2461
 2755TIP3   OH232459   2.314   7.226  17.387  0.5002 -0.6651  0.3398
 2755TIP3    H132460   2.355   7.192  17.307  0.9463 -0.2189  0.3762
 2755TIP3    H232461   2.262   7.300  17.358  0.3042 -0.7778  0.4022
 2756TIP3   OH232462   4.734   2.358  17.815 -0.1262 -0.5681  0.2981
 2756TIP3    H132463   4.737   2.308  17.896 -1.0426  1.0260  1.3677
 2756TIP3    H232464   4.685   2.303  17.754  2.3488 -2.7023  0.0843
 2757TIP3   OH232465   5.818   5.811  17.899 -0.3443  0.3926 -0.0518
 2757TIP3    H132466   5.841   5.868  17.972 -1.0345  0.6635 -0.0393
 2757TIP3    H232467   5.864   5.729  17.917 -0.5867  0.4202  0.7352
 2758TIP3   OH232468   0.335   0.839  17.737 -0.0250 -0.6755  0.5383
 2758TIP3    H132469   0.373   0.926  17.725  0.9241 -1.2572 -1.0056
 2758TIP3    H232470   0.241   0.854  17.738  0.1308  0.3999  0.5316
 2759TIP3   OH232471   0.159   7.180  19.231  0.4960  0.1456 -0.6421
 2759TIP3    H132472   0.210   7.139  19.301  0.7101 -0.4086 -1.1194
 2759TIP3    H232473   0.198   7.147  19.150  1.0952  1.7865 -1.0621
 2760TIP3   OH232474   5.629   4.887  18.551  0.2725  0.1364 -0.0515
 2760TIP3    H132475   5.639   4.981  18.566 -1.6068  0.0284  2.5498
 2760TIP3    H232476   5.711   4.849  18.582  0.3784  0.7768  0.4641
 2761TIP3   OH232477   5.378   0.092  17.811 -0.8938  0.0442 -0.4659
 2761TIP3    H132478   5.461   0.077  17.765 -0.9137  1.1090 -0.8621
 2761TIP3    H232479   5.403   0.135  17.893 -0.9758 -0.6108 -0.0864
 2762TIP3   OH232480   6.040   4.723  18.922  0.1359  0.1661  0.0397
 2762TIP3    H132481   6.032   4.630  18.946  0.6518 -0.5927 -2.4823
 2762TIP3    H232482   5.950   4.756  18.924 -0.1790 -0.6604 -0.0553
 2763TIP3   OH232483   1.305   7.177  18.912  0.3450  0.4946  0.5975
 2763TIP3    H132484   1.383   7.147  18.868  0.0833  0.0127  0.4601
 2763TIP3    H232485   1.312   7.142  19.001 -1.0287 -1.9534 -0.1570
 2764TIP3   OH232486   1.134   2.250  18.722  0.2136 -0.1504  0.3049
 2764TIP3    H132487   1.214   2.218  18.679 -0.5710  0.0058 -1.3146
 2764TIP3    H232488   1.165   2.319  18.781  1.1870  0.5106 -0.9354
 2765TIP3   OH232489   6.215   3.395  18.533  0.1291 -0.4091  0.5828
 2765TIP3    H132490   6.281   3.351  18.479  1.4114  0.4317  1.3844
 2765TIP3    H232491   6.266   3.452  18.591 -1.3980  1.4822  0.1747
 2766TIP3   OH232492   6.703   5.961  19.547 -0.4180 -0.1219  0.2089
 2766TIP3    H132493   6.657   6.046  19.547 -0.7812 -0.2959 -1.2755
 2766TIP3    H232494   6.648   5.904  19.494  0.4606 -0.9438  0.1561
 2767TIP3   OH232495   3.545   4.988  18.679  0.3280  0.0191  0.4996
 2767TIP3    H132496   3.553   5.034  18.596  1.9257 -0.7927  0.1745
 2767TIP3    H232497   3.616   5.024  18.733 -0.9485  0.8443  1.6867
 2768TIP3   OH232498   3.050   2.370  19.322 -0.0263 -0.3043 -0.2590
 2768TIP3    H132499   3.089   2.334  19.242  0.6175 -2.0152  0.7894
 2768TIP3    H232500   3.097   2.328  19.393  1.0520  2.9147  1.1268
 2769TIP3   OH232501   3.620   2.750  17.104 -0.2221 -0.2424 -0.0820
 2769TIP3    H132502   3.686   2.789  17.048  0.9887 -3.2592 -0.9389
 2769TIP3    H232503   3.537   2.781  17.068  0.5965 -0.3460 -2.1884
 2770TIP3   OH232504   7.120   4.126  19.099  0.0751  0.3815  0.4678
 2770TIP3    H132505   7.181   4.078  19.043 -1.2309 -0.2044 -0.4954
 2770TIP3    H232506   7.176   4.171  19.162  1.4313 -1.7357  0.8971
 2771TIP3   OH232507   7.564   4.700  18.073  0.1796 -0.1379  0.1045
 2771TIP3    H132508   7.524   4.614  18.086 -0.5620  0.3692  1.3661
 2771TIP3    H232509   7.657   4.686  18.091  0.1750 -0.7901 -0.3202
 2772TIP3   OH232510   6.975   5.971  19.653 -0.0523 -0.2526  0.1658
 2772TIP3    H132511   7.009   6.055  19.621  0.3588 -0.9835 -1.4008
 2772TIP3    H232512   6.881   5.978  19.642  0.0329 -0.2420 -0.6510
 2773TIP3   OH232513   7.269   1.722  18.931  0.1818 -0.2130 -0.6048
 2773TIP3    H132514   7.198   1.707  18.993  1.6755  1.5517  1.7082
 2773TIP3    H232515   7.338   1.661  18.958  0.1775 -0.7905 -1.8140
 2774TIP3   OH232516   0.204   3.738  18.144  0.0036  0.2665  0.1525
 2774TIP3    H132517   0.121   3.725  18.190  0.2875 -1.6364  0.2021
 2774TIP3    H232518   0.269   3.694  18.199  0.9528  1.2009 -0.2001
 2775TIP3   OH232519   5.247   5.076  17.107  0.0556  0.1321 -0.8418
 2775TIP3    H132520   5.291   5.001  17.069 -1.4988 -0.8127 -0.8681
 2775TIP3    H232521   5.172   5.039  17.153 -0.0129  1.5535  0.2709
 2776TIP3   OH232522   1.014   0.074  19.210  0.0320  0.1468 -0.7249
 2776TIP3    H132523   1.000   0.127  19.132 -2.5754  0.7765  0.0564
 2776TIP3    H232524   1.052   0.134  19.274 -1.9166  0.8895 -0.1865
 2777TIP3   OH232525   2.539   6.418  17.880 -0.7017 -0.0649  0.3833
 2777TIP3    H132526   2.516   6.508  17.857  0.4307  0.1982  0.2449
 2777TIP3    H232527   2.471   6.365  17.839 -1.8442  0.7669  1.1394
 2778TIP3   OH232528   6.316   2.089  17.510  0.2564  0.0893 -0.1249
 2778TIP3    H132529   6.345   2.035  17.584  0.9224  0.8988  0.2174
 2778TIP3    H232530   6.391   2.143  17.488 -0.8702  2.0554  0.5976
 2779TIP3   OH232531   6.238   4.448  18.115 -0.0972  0.1942 -0.1211
 2779TIP3    H132532   6.207   4.479  18.200  0.2098 -1.5317  0.6712
 2779TIP3    H232533   6.164   4.399  18.078  0.2334 -0.2536 -0.1995
 2780TIP3   OH232534   4.988   4.692  18.604  0.2521  1.1172  0.2069
 2780TIP3    H132535   4.916   4.629  18.614  0.8612  0.0398 -1.5781
 2780TIP3    H232536   4.946   4.778  18.610 -1.0047  0.5237  0.3137
 2781TIP3   OH232537   1.663   4.177  18.122 -0.2625  0.2846  0.6740
 2781TIP3    H132538   1.741   4.128  18.148  0.0435 -0.0504 -0.7678
 2781TIP3    H232539   1.606   4.174  18.198  0.7195 -0.3269  1.4132
 2782TIP3   OH232540   3.629   7.267  18.436 -0.4037 -0.0074 -0.0895
 2782TIP3    H132541   3.620   7.317  18.355  0.9540 -1.0970 -0.9696
 2782TIP3    H232542   3.634   7.176  18.407 -1.0564 -0.5131  1.3316
 2783TIP3   OH232543   1.311   3.425  18.319  0.5008  0.4239  0.4709
 2783TIP3    H132544   1.281   3.514  18.298 -0.8310 -0.2338 -0.5423
 2783TIP3    H232545   1.250   3.368  18.274  1.8382 -1.0273  0.4080
 2784TIP3   OH232546   7.098   4.295  16.675 -0.6577  0.3729  0.7729
 2784TIP3    H132547   7.063   4.232  16.611  2.2826  0.0625 -0.7175
 2784TIP3    H232548   7.079   4.381  16.637  2.0298  0.1941 -1.3041
 2785TIP3   OH232549   5.689   1.460  19.685  0.7457  0.1746  0.0248
 2785TIP3    H132550   5.644   1.447  19.769 -0.6571  3.7372  0.0045
 2785TIP3    H232551   5.620   1.451  19.620  0.1827  3.9077 -0.1349
 2786TIP3   OH232552   6.892   6.012  19.318  0.1287 -0.5329 -0.5176
 2786TIP3    H132553   6.931   6.099  19.323  0.6038 -0.6759 -1.5236
 2786TIP3    H232554   6.813   6.018  19.371 -0.0510  0.6211 -0.8820
 2787TIP3   OH232555   3.465   7.226  18.930 -0.4861 -0.3800  0.0944
 2787TIP3    H132556   3.403   7.154  18.932  0.5578 -1.3881 -1.3693
 2787TIP3    H232557   3.551   7.184  18.920  0.2486  1.0298  0.1255
 2788TIP3   OH232558   0.199   7.086  16.961 -0.6240  0.2431 -0.3014
 2788TIP3    H132559   0.138   7.022  16.924 -1.6221  1.2197 -0.4033
 2788TIP3    H232560   0.284   7.042  16.958 -1.1183 -0.7056 -1.2856
 2789TIP3   OH232561   3.417   7.466  19.073  0.2661 -0.3903 -0.5996
 2789TIP3    H132562   3.368   7.434  19.149  0.4954  0.2303 -0.1811
 2789TIP3    H232563   3.421   7.392  19.013 -0.8209 -0.5868 -0.4563
 2790TIP3   OH232564   4.487   4.292  18.615  0.3455  0.5159  0.1445
 2790TIP3    H132565   4.405   4.298  18.664  1.0037  1.5289  1.1897
 2790TIP3    H232566   4.478   4.213  18.562 -0.9086  0.0790  0.9637
 2791TIP3   OH232567   2.209   3.131  17.829 -0.1156 -0.3841 -0.5426
 2791TIP3    H132568   2.236   3.146  17.919  0.5518 -1.2592 -0.5849
 2791TIP3    H232569   2.113   3.133  17.831 -0.0977  0.8379 -0.0466
 2792TIP3   OH232570   5.634   1.927  18.407  0.1181 -0.2869 -0.4528
 2792TIP3    H132571   5.543   1.955  18.415  0.7105  1.3775  1.2692
 2792TIP3    H232572   5.677   1.964  18.484  2.7419  0.9307 -2.3463
 2793TIP3   OH232573   2.533   6.594  18.967  0.1971 -0.6016 -0.6034
 2793TIP3    H132574   2.444   6.589  19.002  0.5663 -2.6478  0.1780
 2793TIP3    H232575   2.586   6.542  19.028  1.5515 -1.1188 -2.1349
 2794TIP3   OH232576   7.096   4.841  19.189  0.0389  0.0514  0.1390
 2794TIP3    H132577   7.141   4.877  19.112  2.6448 -1.2351  0.9729
 2794TIP3    H232578   7.128   4.893  19.262 -0.5213 -0.3346  0.6709
 2795TIP3   OH232579   3.307   4.061  18.571 -0.4186 -0.3811 -0.4898
 2795TIP3    H132580   3.372   4.113  18.618  0.8354 -1.9332 -0.4267
 2795TIP3    H232581   3.346   4.044  18.486 -1.2879 -0.3103 -0.9172
 2796TIP3   OH232582   2.707   3.005  17.701 -0.5073 -0.4398  0.1464
 2796TIP3    H132583   2.675   3.093  17.720 -0.6498 -0.6625  1.0193
 2796TIP3    H232584   2.629   2.949  17.707 -0.4240 -0.6242 -0.4243
 2797TIP3   OH232585   5.670   1.221  18.884  0.6800 -0.6209  0.4281
 2797TIP3    H132586   5.642   1.191  18.970  1.7168  0.4059  1.1513
 2797TIP3    H232587   5.601   1.281  18.855 -0.0269 -1.5157  0.1928
 2798TIP3   OH232588   7.650   3.602  18.346 -0.8165 -0.0914 -0.0930
 2798TIP3    H132589   7.567   3.649  18.338 -0.1543  0.8495 -2.2800
 2798TIP3    H232590   7.642   3.529  18.284 -1.3881 -2.3194  2.4371
 2799TIP3   OH232591   4.310   6.981  18.064  0.1023 -0.1194 -0.7169
 2799TIP3    H132592   4.284   6.950  17.978 -0.9181  0.9356 -0.8077
 2799TIP3    H232593   4.400   7.011  18.053 -0.7345  2.1677 -2.0483
 2800TIP3   OH232594   6.850   4.441  18.988 -0.3250 -0.4071  0.6558
 2800TIP3    H132595   6.798   4.368  19.023 -0.3416  0.0753  1.6765
 2800TIP3    H232596   6.802   4.519  19.014 -0.2567 -0.0213 -0.3530
 2801TIP3   OH232597   6.992   5.822  19.075 -0.4360  0.3086  0.9047
 2801TIP3    H132598   7.044   5.867  19.009  0.8806 -2.0032  0.2412
 2801TIP3    H232599   6.999   5.876  19.153  0.9423  1.2930  0.1275
 2802TIP3   OH232600   7.257   3.075  17.869  0.3139 -0.2318 -0.5050
 2802TIP3    H132601   7.342   3.070  17.913  0.8903  4.5020 -0.5571
 2802TIP3    H232602   7.195   3.038  17.932  1.8002  1.1296  1.9032
 2803TIP3   OH232603   4.663   5.244  16.987  0.2493 -0.0224  0.2881
 2803TIP3    H132604   4.682   5.321  16.934 -0.4868  0.0581  0.1317
 2803TIP3    H232605   4.698   5.170  16.935 -0.0407  0.0998 -0.0820
 2804TIP3   OH232606   1.406   0.773  18.283  0.2123 -0.1226 -0.0781
 2804TIP3    H132607   1.484   0.810  18.242  0.7395  0.9079  1.7189
 2804TIP3    H232608   1.438   0.738  18.366 -1.2587  0.4732  0.7674
 2805TIP3   OH232609   1.283   7.119  17.859  0.1402 -0.0294 -0.0993
 2805TIP3    H132610   1.329   7.044  17.819 -0.3199 -0.1766 -0.3560
 2805TIP3    H232611   1.259   7.174  17.784 -1.7817 -0.8898 -0.1569
 2806TIP3   OH232612   3.543   4.947  17.629  0.1560  0.4455 -0.1181
 2806TIP3    H132613   3.597   4.974  17.704 -0.2629  1.2823 -0.0999
 2806TIP3    H232614   3.455   4.975  17.652  0.0904  1.0999 -1.1032
 2807TIP3   OH232615   7.009   2.389  18.430 -0.1590 -1.1713 -0.0853
 2807TIP3    H132616   7.007   2.304  18.384  2.5364 -3.1131  2.9761
 2807TIP3    H232617   6.976   2.369  18.517 -0.1960  1.1581  0.4851
 2808TIP3   OH232618   6.719   3.951  17.700 -0.2079 -0.6049  0.1028
 2808TIP3    H132619   6.798   3.997  17.727  0.7326 -3.2982  2.2817
 2808TIP3    H232620   6.746   3.897  17.626 -0.1596 -1.0437  0.4380
 2809TIP3   OH232621   3.456   2.345  17.761 -0.0842  0.1552 -0.3312
 2809TIP3    H132622   3.519   2.278  17.788  1.1984  1.7085  0.6867
 2809TIP3    H232623   3.472   2.357  17.668  0.3084 -0.2939 -0.3265
 2810TIP3   OH232624   6.772   6.613  17.804  0.2416 -1.0477 -0.4920
 2810TIP3    H132625   6.799   6.703  17.786 -1.6323  0.0005  1.4832
 2810TIP3    H232626   6.683   6.607  17.769 -0.9588 -0.9875  2.3026
 2811TIP3   OH232627   0.055   0.849  17.761  0.2325  0.0422 -0.1211
 2811TIP3    H132628   0.022   0.772  17.806  1.1662 -2.1983 -2.9875
 2811TIP3    H232629   0.011   0.849  17.677  0.6046  2.4452 -0.4049
 2812TIP3   OH232630   3.447   1.294  19.230  0.2443 -0.3249 -0.3929
 2812TIP3    H132631   3.419   1.250  19.150 -0.9883  0.2125 -0.2784
 2812TIP3    H232632   3.541   1.310  19.218  1.1098 -4.1044  0.1036
 2813TIP3   OH232633   2.877   2.941  16.827 -0.0733 -0.0315 -0.0067
 2813TIP3    H132634   2.814   3.013  16.836  0.0642  0.3016 -1.4134
 2813TIP3    H232635   2.962   2.984  16.821  0.1563 -0.4030  0.5021
 2814TIP3   OH232636   3.272   5.633  17.015 -0.0115 -0.2465  0.1720
 2814TIP3    H132637   3.202   5.689  17.047  0.4544 -0.6441  2.0376
 2814TIP3    H232638   3.228   5.552  16.988 -0.3367 -0.3301  0.9235
 2815TIP3   OH232639   0.754   2.056  17.927  0.3236 -0.2449  0.2543
 2815TIP3    H132640   0.736   2.055  17.833  0.1769 -1.1794  0.2829
 2815TIP3    H232641   0.667   2.063  17.967  0.2078 -1.8013  0.3391
 2816TIP3   OH232642   0.351   4.554  19.626 -0.2118 -0.1923 -0.0460
 2816TIP3    H132643   0.378   4.555  19.534 -1.5589 -0.8639 -0.4773
 2816TIP3    H232644   0.418   4.605  19.671  1.2873 -1.0741 -1.1730
 2817TIP3   OH232645   4.939   0.677  19.216  0.2795 -0.1482  0.5770
 2817TIP3    H132646   4.860   0.650  19.263  1.3031 -0.5756  2.1089
 2817TIP3    H232647   4.921   0.768  19.190 -1.1767 -0.6200 -0.1919
 2818TIP3   OH232648   4.365   0.244  18.347 -0.2293  0.5506  0.0827
 2818TIP3    H132649   4.310   0.189  18.402 -0.4359  1.2801  0.6287
 2818TIP3    H232650   4.450   0.244  18.390  0.1103 -0.3102 -0.5785
 2819TIP3   OH232651   1.538   0.683  17.010 -0.0637  0.1104  0.1539
 2819TIP3    H132652   1.596   0.737  16.956  1.9935 -1.7232  0.3692
 2819TIP3    H232653   1.598   0.632  17.065 -1.9941 -0.5366  1.7671
 2820TIP3   OH232654   7.159   6.402  18.289 -0.3123  0.1108 -0.0787
 2820TIP3    H132655   7.207   6.425  18.368  0.3692  1.1319 -0.7690
 2820TIP3    H232656   7.086   6.464  18.287 -1.3190 -1.0020  0.6115
 2821TIP3   OH232657   6.334   6.753  19.681 -0.0709  0.6950  0.0657
 2821TIP3    H132658   6.395   6.817  19.720 -1.2514  2.6142 -1.0879
 2821TIP3    H232659   6.249   6.797  19.684 -1.1260 -1.2531  0.0961
 2822TIP3   OH232660   6.708   1.788  18.346  0.2373  0.0050  0.1686
 2822TIP3    H132661   6.670   1.853  18.287  0.2309  0.4575  0.6624
 2822TIP3    H232662   6.767   1.838  18.403 -0.2568 -0.3057  0.9755
 2823TIP3   OH232663   7.382   2.851  18.454  0.6683  0.0335  0.1103
 2823TIP3    H132664   7.415   2.776  18.403  0.6718  0.0509  0.0874
 2823TIP3    H232665   7.360   2.813  18.539  0.9226  0.0577  0.1871
 2824TIP3   OH232666   3.478   3.997  17.834 -0.1920 -0.1796 -0.0612
 2824TIP3    H132667   3.501   3.973  17.744 -0.2476  0.3779 -0.2226
 2824TIP3    H232668   3.425   4.075  17.826  0.2643  0.1963  0.4875
 2825TIP3   OH232669   4.704   7.571  17.536 -0.4505 -0.0846 -0.4250
 2825TIP3    H132670   4.630   7.610  17.584  0.2621 -0.4611  1.0388
 2825TIP3    H232671   4.696   7.477  17.551 -0.1046 -0.1961 -0.9042
 2826TIP3   OH232672   5.590   5.677  18.034 -0.5915  0.5650  0.1791
 2826TIP3    H132673   5.628   5.633  18.110  0.0730  2.2006  0.8494
 2826TIP3    H232674   5.665   5.716  17.989 -1.1943  1.3996 -0.1151
 2827TIP3   OH232675   0.101   2.846  19.150 -0.6220 -0.4342  0.2551
 2827TIP3    H132676   0.048   2.798  19.212  0.8541  0.2610  2.1498
 2827TIP3    H232677   0.162   2.781  19.115 -0.3150 -0.4880  0.8742
 2828TIP3   OH232678   0.740   0.724  16.751 -0.3851 -0.3661  0.4479
 2828TIP3    H132679   0.664   0.730  16.809  0.6802  0.8097  1.8213
 2828TIP3    H232680   0.707   0.682  16.671 -2.3633 -0.2297  1.1419
 2829TIP3   OH232681   5.487   6.291  19.569  0.3760 -0.1597  0.2404
 2829TIP3    H132682   5.507   6.234  19.495 -0.3990  0.2593 -0.3072
 2829TIP3    H232683   5.548   6.364  19.562  0.7501 -0.4573  0.4058
 2830TIP3   OH232684   3.608   3.038  18.601 -0.1793 -0.0624 -0.0477
 2830TIP3    H132685   3.523   3.082  18.592  0.4170  1.1902  0.1064
 2830TIP3    H232686   3.667   3.108  18.630  0.3536 -1.4581  2.5757
 2831TIP3   OH232687   3.756   6.588  19.009 -0.3542  0.1295  0.2806
 2831TIP3    H132688   3.831   6.577  18.950 -1.0058  4.2180 -1.6549
 2831TIP3    H232689   3.792   6.576  19.097  2.4695  1.2779 -0.6033
 2832TIP3   OH232690   7.264   1.470  16.687  0.2248  0.3328  0.0755
 2832TIP3    H132691   7.315   1.393  16.713  1.0432  0.4903 -0.9840
 2832TIP3    H232692   7.196   1.435  16.630  0.0932  0.2989  0.2535
 2833TIP3   OH232693   2.686   3.169  18.430 -0.5277  0.6069 -0.4679
 2833TIP3    H132694   2.774   3.202  18.448 -0.1689  0.3016 -1.5614
 2833TIP3    H232695   2.657   3.218  18.353 -1.0105  0.1580 -0.5818
 2834TIP3   OH232696   4.370   4.456  19.099 -0.1005 -0.1739  0.8084
 2834TIP3    H132697   4.286   4.479  19.059  0.4240 -2.0898 -1.6782
 2834TIP3    H232698   4.400   4.537  19.139 -2.6397  0.8345  0.8940
 2835TIP3   OH232699   4.600   1.625  16.970 -0.0767 -0.0003 -0.4036
 2835TIP3    H132700   4.676   1.661  17.015 -0.1040 -0.7416  0.2521
 2835TIP3    H232701   4.624   1.534  16.951 -0.1999  0.1955 -1.5840
 2836TIP3   OH232702   1.273   4.891  18.432 -0.0677  0.0492  0.5897
 2836TIP3    H132703   1.367   4.872  18.438 -0.3537 -1.4419  0.8137
 2836TIP3    H232704   1.259   4.918  18.342  0.5273 -0.0428  0.4667
 2837TIP3   OH232705   4.382   1.594  17.210 -0.3432 -0.1843  0.0814
 2837TIP3    H132706   4.471   1.585  17.175  0.2502  2.0708  0.8264
 2837TIP3    H232707   4.382   1.542  17.290  0.1193 -0.6361 -0.2066
 2838TIP3   OH232708   2.454   0.300  18.791  0.2935  0.2098 -0.2671
 2838TIP3    H132709   2.450   0.379  18.845  1.3819  0.1896 -0.1272
 2838TIP3    H232710   2.502   0.327  18.713 -0.7186  0.0750 -0.9431
 2839TIP3   OH232711   6.599   2.429  18.991  0.7308 -0.0246  0.1892
 2839TIP3    H132712   6.672   2.373  19.018  1.2286  0.5305  0.0064
 2839TIP3    H232713   6.546   2.439  19.069 -0.4611 -2.3795 -0.2239
 2840TIP3   OH232714   6.377   6.472  18.591  0.0813 -0.1964  0.1690
 2840TIP3    H132715   6.301   6.438  18.638 -0.1173  0.7077  0.5224
 2840TIP3    H232716   6.376   6.425  18.507 -1.2699  0.2886 -0.1205
 2841TIP3   OH232717   1.265   2.972  17.922  0.1212 -0.0625 -0.4409
 2841TIP3    H132718   1.198   3.018  17.872  0.5739 -0.1931 -1.1975
 2841TIP3    H232719   1.331   2.948  17.856  1.0128  0.2611  0.3071
 2842TIP3   OH232720   0.037   5.131  17.236  0.4410 -0.9900 -0.1639
 2842TIP3    H132721   0.036   5.204  17.175  1.4446 -2.5436 -2.1649
 2842TIP3    H232722   0.074   5.167  17.317  0.9851  0.6534 -1.1119
 2843TIP3   OH232723   7.134   4.621  19.458  0.1004 -0.2605  0.2242
 2843TIP3    H132724   7.214   4.614  19.509  1.2270 -0.5840 -1.5252
 2843TIP3    H232725   7.142   4.703  19.410 -1.3490  0.4892  1.1712
 2844TIP3   OH232726   1.147   2.680  17.228  0.4591  0.2642 -0.0677
 2844TIP3    H132727   1.081   2.659  17.162  0.5589  2.5321 -0.9822
 2844TIP3    H232728   1.123   2.627  17.304 -1.2324 -0.4287 -1.0309
 2845TIP3   OH232729   0.714   7.044  17.907  0.3773  0.1299  0.6443
 2845TIP3    H132730   0.779   7.113  17.922  1.0608 -0.6411  1.3399
 2845TIP3    H232731   0.632   7.080  17.942  0.8630  0.3609  1.5911
 2846TIP3   OH232732   2.130   7.214  18.122  0.3248 -0.4484  0.0987
 2846TIP3    H132733   2.209   7.206  18.176  0.1234  0.9160  0.6523
 2846TIP3    H232734   2.161   7.253  18.040  0.4240 -1.2217 -0.2372
 2847TIP3   OH232735   7.622   2.466  19.421  0.5339 -0.0399  0.1139
 2847TIP3    H132736   7.677   2.398  19.382 -0.0426  0.2457 -1.2210
 2847TIP3    H232737   7.681   2.540  19.435  1.1463 -0.7374  1.4904
 2848TIP3   OH232738   5.147   7.020  18.972  0.0437 -0.0380 -0.5711
 2848TIP3    H132739   5.082   7.050  18.909 -0.5680  1.7410  0.8384
 2848TIP3    H232740   5.097   7.002  19.052  1.2445  1.7112  0.6612
 2849TIP3   OH232741   7.487   4.231  18.618  0.1464 -0.1232  0.7844
 2849TIP3    H132742   7.473   4.325  18.634 -1.9660 -0.0311 -0.9949
 2849TIP3    H232743   7.486   4.223  18.523 -1.1082 -2.0831  0.8954
 2850TIP3   OH232744   6.313   0.447  16.643 -0.2849  0.0755 -0.5035
 2850TIP3    H132745   6.402   0.418  16.624 -1.0227 -0.7283 -3.3059
 2850TIP3    H232746   6.285   0.392  16.716  0.9275 -0.9732 -0.7890
 2851TIP3   OH232747   3.976   3.753  16.642 -0.3353 -0.2817 -0.0384
 2851TIP3    H132748   3.915   3.799  16.700 -0.7583 -0.4949 -0.3119
 2851TIP3    H232749   3.921   3.695  16.589  0.2477 -1.5543  0.7084
 2852TIP3   OH232750   2.180   0.140  17.869  0.3340  0.2051 -0.0532
 2852TIP3    H132751   2.195   0.160  17.776  1.2976  1.2460  0.3078
 2852TIP3    H232752   2.193   0.045  17.875 -0.2568  0.0386 -1.0649
 2853TIP3   OH232753   5.122   6.140  19.136  0.3998 -0.0788 -0.0176
 2853TIP3    H132754   5.079   6.183  19.210  0.7561  1.2509 -0.5524
 2853TIP3    H232755   5.061   6.070  19.110 -0.2496  0.1596  0.8108
 2854TIP3   OH232756   5.107   2.402  18.103  0.4430 -0.0020 -0.1817
 2854TIP3    H132757   5.181   2.426  18.047  0.8999  2.2524  1.2376
 2854TIP3    H232758   5.041   2.469  18.085 -1.3057 -1.9750 -1.4095
 2855TIP3   OH232759   4.625   6.559  18.840  0.0449  1.0768  0.2659
 2855TIP3    H132760   4.610   6.487  18.779 -0.8028  0.6753  0.9211
 2855TIP3    H232761   4.585   6.635  18.798 -0.3174  0.8537  0.1992
 2856TIP3   OH232762   5.842   0.816  18.616  0.4082 -0.0882 -0.4320
 2856TIP3    H132763   5.856   0.895  18.669  2.5251 -0.2568 -0.6276
 2856TIP3    H232764   5.873   0.841  18.529  1.2890 -1.1781 -0.4458
 2857TIP3   OH232765   6.613   0.760  18.292  0.4502  0.2859  0.6703
 2857TIP3    H132766   6.549   0.777  18.223  0.1577 -1.8955  0.3178
 2857TIP3    H232767   6.639   0.669  18.279  2.6994  0.7221  1.6022
 2858TIP3   OH232768   6.051   7.226  17.263 -0.0130  0.1213 -0.1336
 2858TIP3    H132769   6.107   7.304  17.260  1.3025 -0.7919 -2.2466
 2858TIP3    H232770   6.112   7.153  17.269 -1.1850 -0.8015  0.9974
 2859TIP3   OH232771   1.639   0.528  17.595 -0.0451 -0.0359 -0.3074
 2859TIP3    H132772   1.640   0.520  17.500  0.5189 -0.6865 -0.2582
 2859TIP3    H232773   1.563   0.478  17.623  0.2729 -0.5619 -0.3691
 2860TIP3   OH232774   3.304   6.840  18.644 -0.6020  0.6354 -0.0491
 2860TIP3    H132775   3.247   6.917  18.642 -2.3857 -0.6142 -0.0908
 2860TIP3    H232776   3.311   6.814  18.552 -1.9326 -0.5345  0.1369
 2861TIP3   OH232777   3.325   1.386  18.832  0.0481  0.3044 -0.0150
 2861TIP3    H132778   3.402   1.387  18.775  0.2324  0.4915  0.2287
 2861TIP3    H232779   3.251   1.372  18.773  0.2352  0.4821 -0.2996
 2862TIP3   OH232780   4.625   7.215  18.912  0.2182  0.1896  0.1206
 2862TIP3    H132781   4.678   7.271  18.856 -1.7429  1.4545 -0.5785
 2862TIP3    H232782   4.660   7.228  19.000  2.4444 -0.7559 -0.5482
 2863TIP3   OH232783   7.533   3.368  19.083 -0.5220 -0.0546  1.0107
 2863TIP3    H132784   7.580   3.291  19.116  1.9030  0.1967 -1.4671
 2863TIP3    H232785   7.591   3.441  19.102 -0.6240  0.5136 -0.7301
 2864TIP3   OH232786   2.747   0.053  19.251 -0.0727 -0.0054 -0.7248
 2864TIP3    H132787   2.713  -0.026  19.293 -0.1322 -0.4361 -1.5529
 2864TIP3    H232788   2.842   0.047  19.263  0.1293 -1.2695 -2.5032
 2865TIP3   OH232789   0.299   0.593  17.116 -0.1274  0.0639  0.0016
 2865TIP3    H132790   0.230   0.618  17.178  0.7191 -1.8066  1.8427
 2865TIP3    H232791   0.280   0.501  17.094  1.8362 -0.5926  0.7689
 2866TIP3   OH232792   1.376   6.669  17.943  0.2698  0.3342  0.2652
 2866TIP3    H132793   1.286   6.649  17.968 -0.1971  1.8070 -0.1437
 2866TIP3    H232794   1.406   6.591  17.897 -0.8359 -0.1316  0.3083
 2867TIP3   OH232795   0.117   7.209  18.162 -0.2400 -0.3277  0.0423
 2867TIP3    H132796   0.165   7.287  18.189 -0.9831  1.0175 -2.2898
 2867TIP3    H232797   0.179   7.137  18.174  0.9559  0.8108  0.8625
 2868TIP3   OH232798   6.445   4.358  19.299 -0.1925 -0.3643  1.1470
 2868TIP3    H132799   6.383   4.379  19.228  0.5992  0.1924  0.6052
 2868TIP3    H232800   6.422   4.269  19.324 -0.4834 -0.5829  0.1759
 2869TIP3   OH232801   4.302   0.438  18.793  0.5610  0.5892  0.8208
 2869TIP3    H132802   4.346   0.354  18.779 -0.3474  0.2002  0.2317
 2869TIP3    H232803   4.286   0.442  18.888  0.5236  0.0569  0.8352
 2870TIP3   OH232804   6.712   2.548  17.435 -0.1713  0.2733 -0.1765
 2870TIP3    H132805   6.737   2.487  17.504  1.3236  1.4952  0.4072
 2870TIP3    H232806   6.754   2.514  17.356 -1.1450 -0.6262 -0.3323
 2871TIP3   OH232807   0.033   5.306  18.826 -0.3717 -0.3678  0.0479
 2871TIP3    H132808  -0.006   5.379  18.778  1.1054  0.2728 -0.2401
 2871TIP3    H232809  -0.027   5.289  18.899 -1.5965 -0.0018 -0.8500
 2872TIP3   OH232810   4.798   3.079  18.364  0.0439  0.1452  0.3195
 2872TIP3    H132811   4.765   3.022  18.295 -0.6459  0.1169  0.6695
 2872TIP3    H232812   4.824   3.020  18.435 -1.2310  0.2827  0.9192
 2873TIP3   OH232813   3.652   6.793  18.881 -0.2819  0.1865 -0.2168
 2873TIP3    H132814   3.570   6.745  18.878 -0.1657 -0.1401  1.2218
 2873TIP3    H232815   3.714   6.734  18.925  0.0452  1.3498  0.9741
 2874TIP3   OH232816   2.413   3.780  18.064 -0.2416  0.4305 -0.0657
 2874TIP3    H132817   2.499   3.809  18.034 -0.2316  4.3520  2.8882
 2874TIP3    H232818   2.398   3.697  18.019  4.7313 -0.1340 -1.2538
 2875TIP3   OH232819   4.359   5.881  17.901  0.5551  0.0148 -0.5554
 2875TIP3    H132820   4.314   5.797  17.895  0.6303 -0.0609 -0.0519
 2875TIP3    H232821   4.321   5.933  17.830  0.1778 -0.2851 -0.5760
 2876TIP3   OH232822   1.785   5.335  17.604 -0.3342  0.2279  0.3272
 2876TIP3    H132823   1.709   5.301  17.558 -0.6654  2.2832 -0.7292
 2876TIP3    H232824   1.807   5.416  17.558  1.6133  0.4255  1.5035
 2877TIP3   OH232825   3.434   0.954  19.803  0.0750  0.0209  0.2753
 2877TIP3    H132826   3.402   0.902  19.877  0.2315 -0.0791  0.2739
 2877TIP3    H232827   3.439   0.891  19.731  0.3455  0.0177  0.2950
 2878TIP3   OH232828   3.810   7.354  17.486  0.8912 -0.2692 -0.0423
 2878TIP3    H132829   3.727   7.358  17.440  0.5078  1.0967  0.7130
 2878TIP3    H232830   3.805   7.275  17.539  1.2351 -1.7153 -2.0667
 2879TIP3   OH232831   0.857   1.238  18.563 -0.3603 -0.0714 -0.3936
 2879TIP3    H132832   0.918   1.222  18.635 -1.7522 -0.8780  0.6616
 2879TIP3    H232833   0.913   1.265  18.490  0.9603  3.1788  1.5888
 2880TIP3   OH232834   3.556   6.217  17.180 -0.4397  0.1589  0.3961
 2880TIP3    H132835   3.610   6.264  17.244 -0.3520  0.3765  0.1627
 2880TIP3    H232836   3.480   6.275  17.168 -0.4355  0.1378  0.2718
 2881TIP3   OH232837   1.745   0.404  19.239  0.3371 -0.3888 -1.0220
 2881TIP3    H132838   1.709   0.379  19.155  1.0253 -0.7714 -1.2116
 2881TIP3    H232839   1.839   0.386  19.232  0.3542 -0.7520 -0.0562
 2882TIP3   OH232840   7.338   0.006  17.743 -0.4212 -0.7201  0.3951
 2882TIP3    H132841   7.373  -0.084  17.742  0.9571 -0.2076 -0.0870
 2882TIP3    H232842   7.300   0.017  17.656  0.4978 -0.4572  0.0097
 2883TIP3   OH232843   5.680   1.174  19.378  1.0289  0.6926  0.3085
 2883TIP3    H132844   5.681   1.124  19.296 -3.8667 -0.1347  0.4710
 2883TIP3    H232845   5.719   1.259  19.354  1.0919 -0.0182 -2.4966
 2884TIP3   OH232846   2.200   3.043  17.554  0.4175  0.8091 -0.0675
 2884TIP3    H132847   2.213   3.081  17.641  1.1211  2.8878 -1.0367
 2884TIP3    H232848   2.258   2.966  17.554 -0.4900  0.0500  1.6676
 2885TIP3   OH232849   2.658   0.128  18.450 -0.3469 -0.2750  0.2797
 2885TIP3    H132850   2.744   0.152  18.484 -0.9064  0.3195  1.3260
 2885TIP3    H232851   2.623   0.210  18.414 -0.5909 -0.4514  0.1148
 2886TIP3   OH232852   3.997   7.042  19.077 -0.0333 -0.0867 -0.1892
 2886TIP3    H132853   3.916   7.054  19.027 -2.1029 -0.4743  2.8228
 2886TIP3    H232854   4.011   6.947  19.077 -0.8608 -0.2379  1.0335
 2887TIP3   OH232855   0.153   4.873  18.273  0.1709 -0.4976 -0.5243
 2887TIP3    H132856   0.081   4.931  18.299  0.4376 -0.4299  0.0795
 2887TIP3    H232857   0.228   4.931  18.263 -0.1415 -0.3538 -2.5120
 2888TIP3   OH232858   0.913   2.078  19.122 -0.2122  0.0261 -0.0403
 2888TIP3    H132859   0.881   1.994  19.156 -0.8840  0.9407  1.7425
 2888TIP3    H232860   1.004   2.061  19.100 -0.2953 -1.1535  0.4032
 2889TIP3   OH232861   6.163   6.528  16.983 -0.5921  0.1223  0.8257
 2889TIP3    H132862   6.096   6.583  17.024 -1.0168  0.1503  0.1020
 2889TIP3    H232863   6.180   6.569  16.898  0.4154  0.1703  1.0320
 2890TIP3   OH232864   6.275   5.740  17.157  0.4065 -0.8713  0.1018
 2890TIP3    H132865   6.264   5.828  17.122  0.0989 -1.6101 -1.7971
 2890TIP3    H232866   6.309   5.753  17.245 -3.0227  1.2125  1.2963
 2891TIP3   OH232867   3.807   5.981  19.513 -0.0156  0.0089  0.1677
 2891TIP3    H132868   3.738   6.046  19.526  0.3245  0.3310  0.3870
 2891TIP3    H232869   3.804   5.962  19.419 -0.5070 -0.1013  0.2058
 2892TIP3   OH232870   0.450   4.092  17.415 -0.0770  0.0699 -0.2186
 2892TIP3    H132871   0.371   4.145  17.432  0.5543  1.3362 -1.0810
 2892TIP3    H232872   0.463   4.043  17.496 -1.6308 -0.0229  0.0207
 2893TIP3   OH232873   4.161   2.341  18.873  1.0502  0.2499 -0.2576
 2893TIP3    H132874   4.136   2.351  18.965  1.1872 -0.8390 -0.0864
 2893TIP3    H232875   4.249   2.377  18.868  0.1200  2.6626 -0.5289
 2894TIP3   OH232876   0.232   4.248  18.309  0.2521  0.6819  0.0132
 2894TIP3    H132877   0.241   4.328  18.361  1.4737  1.3394 -1.1338
 2894TIP3    H232878   0.264   4.273  18.222 -1.9839 -0.3034 -1.1562
 2895TIP3   OH232879   5.654   6.005  17.039  0.5921 -0.4827 -0.2029
 2895TIP3    H132880   5.562   5.991  17.061  1.0933 -0.7193  1.9512
 2895TIP3    H232881   5.683   5.921  17.003 -0.2226 -0.1274 -1.7876
 2896TIP3   OH232882   5.895   6.527  19.434 -0.3988  0.2173 -0.2854
 2896TIP3    H132883   5.901   6.439  19.396 -0.6810 -0.1643  0.5270
 2896TIP3    H232884   5.822   6.522  19.495  0.4560  0.6117  0.8044
 2897TIP3   OH232885   1.018   4.925  18.472 -0.5211 -0.4793 -0.1474
 2897TIP3    H132886   1.015   5.015  18.440 -0.6336 -1.0415 -1.8040
 2897TIP3    H232887   1.107   4.896  18.453 -0.6612 -0.9033 -0.1666
 2898TIP3   OH232888   5.753   3.427  17.284  0.3752 -0.1116  0.1421
 2898TIP3    H132889   5.779   3.510  17.325 -0.6174  0.6369 -0.6873
 2898TIP3    H232890   5.664   3.443  17.252  1.6665  0.0582 -3.9512
 2899TIP3   OH232891   5.255   3.309  18.489  0.1931 -0.2585 -0.1653
 2899TIP3    H132892   5.162   3.297  18.472  0.0319 -0.4165  0.8137
 2899TIP3    H232893   5.265   3.404  18.501 -0.5068 -0.5074  3.3088
 2900TIP3   OH232894   0.705   0.562  17.354  0.4476  0.0581  0.8256
 2900TIP3    H132895   0.713   0.565  17.258 -0.3690 -0.5048  0.7277
 2900TIP3    H232896   0.630   0.618  17.374 -0.8130 -1.5538  0.9060
 2901TIP3   OH232897   4.525   2.484  17.190  0.1894 -0.2918  0.0794
 2901TIP3    H132898   4.607   2.534  17.199  0.2211 -0.5657  1.6169
 2901TIP3    H232899   4.551   2.402  17.149  0.3529  0.3958 -1.2415
 2902TIP3   OH232900   7.126   4.426  18.920 -0.2840 -0.3056  0.0622
 2902TIP3    H132901   7.034   4.445  18.942 -1.0175  0.6832 -3.3407
 2902TIP3    H232902   7.124   4.339  18.881 -0.4261  0.8415 -2.7476
 2903TIP3   OH232903   7.250   0.239  18.243  0.2238  0.3129 -0.6372
 2903TIP3    H132904   7.199   0.232  18.324  2.3928 -0.9830  0.7206
 2903TIP3    H232905   7.271   0.333  18.236 -1.9226  0.8207 -1.0524
 2904TIP3   OH232906   3.596   2.931  17.907  0.1943 -0.3373  0.3258
 2904TIP3    H132907   3.587   2.843  17.944  0.9231 -0.9405 -0.8461
 2904TIP3    H232908   3.507   2.966  17.906 -0.2916 -1.5176 -0.2186
 2905TIP3   OH232909   6.761   4.257  17.424 -0.4482  0.2277  0.2775
 2905TIP3    H132910   6.720   4.342  17.442 -1.4962  0.0264 -1.0239
 2905TIP3    H232911   6.688   4.195  17.423  0.3147 -0.7237  1.2914
 2906TIP3   OH232912   0.206   1.560  19.309  0.3924 -0.1210 -0.0977
 2906TIP3    H132913   0.177   1.553  19.218  1.5172  0.1626 -0.4893
 2906TIP3    H232914   0.299   1.578  19.303  0.4192  0.2066  1.1152
 2907TIP3   OH232915   2.795   1.028  17.146  0.4408  0.7204  0.5416
 2907TIP3    H132916   2.846   1.050  17.069  1.4358 -0.1795  0.9208
 2907TIP3    H232917   2.783   0.933  17.141  2.8839  0.1694  2.8326
 2908TIP3   OH232918   7.148   1.952  17.517 -0.1697 -0.1480 -0.3040
 2908TIP3    H132919   7.078   2.010  17.489  0.0656 -0.0890 -0.7881
 2908TIP3    H232920   7.220   1.970  17.456 -0.1713 -1.0981 -0.6001
 2909TIP3   OH232921   5.619   0.101  17.373 -0.4267 -0.7433  0.0135
 2909TIP3    H132922   5.641   0.041  17.302  0.0604  0.4767 -0.9117
 2909TIP3    H232923   5.529   0.127  17.355 -0.3040 -0.4353 -0.1602
 2910TIP3   OH232924   1.086   2.629  18.695  0.4476 -0.2069  0.1898
 2910TIP3    H132925   1.037   2.606  18.774  1.0463 -0.6109  0.4549
 2910TIP3    H232926   1.026   2.682  18.644  0.6401  1.5875  1.7283
 2911TIP3   OH232927   0.481   2.035  19.414  0.2042 -0.0705 -0.3734
 2911TIP3    H132928   0.392   2.005  19.432 -0.2270  1.0302 -0.5916
 2911TIP3    H232929   0.509   1.983  19.339  0.4647 -1.7368  0.8158
 2912TIP3   OH232930   7.063   7.036  18.673  0.0271  0.3087 -0.1911
 2912TIP3    H132931   7.001   7.010  18.741 -0.2919  0.4698 -0.4160
 2912TIP3    H232932   7.074   7.130  18.685  2.3154 -0.0976  1.5548
 2913TIP3   OH232933   5.629   0.674  16.877 -0.1723 -0.3557 -0.1801
 2913TIP3    H132934   5.717   0.638  16.888 -1.1191 -2.5225  0.9067
 2913TIP3    H232935   5.595   0.683  16.966 -0.2813  2.6629 -0.4457
 2914TIP3   OH232936   4.693   6.562  19.109  0.2600  0.3024  0.4185
 2914TIP3    H132937   4.661   6.530  19.025 -1.1433  1.5919  0.4363
 2914TIP3    H232938   4.730   6.484  19.151  0.3059 -0.5114 -1.0636
 2915TIP3   OH232939   7.615   0.356  19.580 -0.4429  0.2221 -0.3778
 2915TIP3    H132940   7.527   0.379  19.610 -0.1903 -1.3191  1.7053
 2915TIP3    H232941   7.674   0.406  19.637  0.0430 -0.1657 -0.5320
 2916TIP3   OH232942   3.578   3.914  19.198  0.2881 -0.1603 -0.1785
 2916TIP3    H132943   3.631   3.873  19.267  0.5899  0.9445  0.2618
 2916TIP3    H232944   3.640   3.931  19.127  0.0742 -0.8538 -0.5394
 2917TIP3   OH232945   5.978   2.843  18.882 -0.4420 -0.4830  0.0341
 2917TIP3    H132946   5.957   2.904  18.811 -0.2640 -1.4094 -0.8321
 2917TIP3    H232947   5.944   2.885  18.961  0.8966  1.4128 -0.3211
 2918TIP3   OH232948   1.908   3.157  18.166 -0.1003  0.2692 -0.8404
 2918TIP3    H132949   1.826   3.109  18.177 -0.1321  0.5591  0.3082
 2918TIP3    H232950   1.892   3.215  18.091 -0.5152 -0.5487 -1.3967
 2919TIP3   OH232951   3.560   1.562  17.461  0.4977 -0.4841 -0.0902
 2919TIP3    H132952   3.563   1.653  17.431  0.0843 -0.0014  1.2344
 2919TIP3    H232953   3.468   1.538  17.457  0.5421 -0.6756  0.0124
 2920TIP3   OH232954   3.702   5.694  18.876  0.1698  0.0399 -0.0458
 2920TIP3    H132955   3.717   5.623  18.939  1.0176  0.6249  0.4254
 2920TIP3    H232956   3.609   5.687  18.854 -0.2629  0.1275  1.6453
 2921TIP3   OH232957   4.109   5.808  18.452 -0.1161  0.2260  0.0583
 2921TIP3    H132958   4.177   5.760  18.499 -1.1515 -0.3186  1.0615
 2921TIP3    H232959   4.143   5.818  18.363  1.5695  0.5898  0.6993
 2922TIP3   OH232960   5.720   0.071  17.946 -0.8694  0.1294 -0.6933
 2922TIP3    H132961   5.709   0.151  17.998  3.0900  0.9174 -0.7412
 2922TIP3    H232962   5.701   0.098  17.856  1.9794  1.6409 -0.9671
 2923TIP3   OH232963   6.812   6.978  19.175 -0.3488  0.4625  0.0005
 2923TIP3    H132964   6.804   7.072  19.191  1.5342  0.3510  2.1858
 2923TIP3    H232965   6.893   6.969  19.125  0.3059 -0.0310  1.0937
 2924TIP3   OH232966   4.002   7.443  19.188 -0.0810  0.2324 -0.0582
 2924TIP3    H132967   3.956   7.440  19.104  1.4908  0.0784 -0.9424
 2924TIP3    H232968   4.000   7.353  19.219 -0.9624  0.3492  0.2553
 2925TIP3   OH232969   7.347   6.603  18.413 -0.1699 -0.2468 -0.1641
 2925TIP3    H132970   7.306   6.642  18.490  1.1625  1.4182 -0.2392
 2925TIP3    H232971   7.307   6.648  18.339 -0.9442 -1.3519 -0.4451
 2926TIP3   OH232972   7.240   5.148  17.812  0.2396  0.0909  0.1018
 2926TIP3    H132973   7.224   5.054  17.821 -0.8462  0.1382 -1.0139
 2926TIP3    H232974   7.202   5.187  17.891 -0.5783 -0.2960 -0.0934
 2927TIP3   OH232975   6.263   5.613  19.240 -0.0913 -0.6039 -0.9242
 2927TIP3    H132976   6.242   5.520  19.230  0.5408 -0.7912 -0.6022
 2927TIP3    H232977   6.348   5.623  19.197  1.1504 -0.7678  1.3475
 2928TIP3   OH232978   6.295   4.906  19.188 -0.3109 -0.4650 -0.2711
 2928TIP3    H132979   6.272   4.964  19.116  1.2011  3.3274  1.9972
 2928TIP3    H232980   6.381   4.871  19.165 -0.9535 -1.3985 -1.3720
 2929TIP3   OH232981   5.405   4.708  18.099  0.0191  0.0156  0.1156
 2929TIP3    H132982   5.333   4.653  18.068  1.6995 -2.6174  0.5412
 2929TIP3    H232983   5.462   4.719  18.023 -0.7687  2.1030 -0.2275
 2930TIP3   OH232984   4.067   7.062  18.538  0.1067 -0.0988  0.0632
 2930TIP3    H132985   4.096   7.151  18.557  0.7526 -0.5077  1.0963
 2930TIP3    H232986   4.139   7.025  18.486  0.3295 -0.3364  0.5318
 2931TIP3   OH232987   0.757   0.977  19.065 -0.0588  0.7813  0.2284
 2931TIP3    H132988   0.809   0.898  19.080  1.1810  1.5618  0.1778
 2931TIP3    H232989   0.794   1.042  19.126 -2.5585  0.7155  1.9650
 2932TIP3   OH232990   3.291   1.592  17.509 -0.3579  0.6176  0.2404
 2932TIP3    H132991   3.318   1.666  17.563 -0.8038  0.7654  0.2723
 2932TIP3    H232992   3.209   1.563  17.550 -0.3183  0.2692  0.0741
 2933TIP3   OH232993   5.882   2.994  19.101 -0.4771 -0.2254  0.0163
 2933TIP3    H132994   5.918   2.985  19.190  0.4432  0.8269 -0.2274
 2933TIP3    H232995   5.793   3.027  19.115 -0.3333 -0.0448  0.5511
 2934TIP3   OH232996   5.123   6.936  17.678 -0.3528 -0.3013  0.0220
 2934TIP3    H132997   5.045   6.921  17.732  0.2150 -0.1827  0.8855
 2934TIP3    H232998   5.088   6.957  17.591 -1.3253  1.2293  0.7406
 2935TIP3   OH232999   4.287   6.869  17.809  0.5669 -0.1616 -0.3068
 2935TIP3    H133000   4.255   6.954  17.780  0.6698 -0.3452 -0.9672
 2935TIP3    H233001   4.345   6.839  17.739  1.5483 -0.2079  0.5056
 2936TIP3   OH233002   2.473   3.998  19.172  0.1711  0.1874  0.2566
 2936TIP3    H133003   2.539   4.064  19.149  0.9543 -0.6854 -0.0538
 2936TIP3    H233004   2.390   4.045  19.167  0.5512  0.7520 -1.6366
 2937TIP3   OH233005   3.458   7.133  18.602 -0.2941  0.0491  0.2601
 2937TIP3    H133006   3.505   7.201  18.553 -0.1353  0.9506  1.6007
 2937TIP3    H233007   3.514   7.056  18.596  0.6016  0.6661  0.5388
 2938TIP3   OH233008   5.194   7.652  17.429 -0.1753  0.3387 -0.6320
 2938TIP3    H133009   5.189   7.709  17.506  1.6564  2.0253 -1.6834
 2938TIP3    H233010   5.139   7.695  17.364 -0.7185 -0.4279 -0.7010
 2939TIP3   OH233011   3.368   4.959  18.895 -0.0100  0.1287  0.1941
 2939TIP3    H133012   3.412   4.897  18.953  1.5068  1.0163  0.0442
 2939TIP3    H233013   3.427   4.967  18.820 -1.4194 -0.1667 -0.9914
 2940TIP3   OH233014   4.952   1.461  18.324  0.0770 -0.6433 -0.1306
 2940TIP3    H133015   4.899   1.393  18.282 -1.8960  1.5018 -1.3614
 2940TIP3    H233016   4.965   1.429  18.413  1.2333 -3.6447 -1.2531
 2941TIP3   OH233017   6.879   4.919  17.745 -0.0093 -0.3499  0.1122
 2941TIP3    H133018   6.967   4.913  17.783 -1.0283  0.0917  2.7751
 2941TIP3    H233019   6.867   4.836  17.699  1.5696 -0.6669  0.2128
 2942TIP3   OH233020   4.885   4.481  17.020 -0.3560 -0.2333 -0.2006
 2942TIP3    H133021   4.944   4.520  16.955 -0.6161 -0.5748 -0.6458
 2942TIP3    H233022   4.882   4.388  16.997 -0.3598 -0.3771  0.3752
 2943TIP3   OH233023   3.143   1.929  18.104  0.3585  0.0926 -0.4319
 2943TIP3    H133024   3.160   1.836  18.091 -1.2519  0.0133 -2.4658
 2943TIP3    H233025   3.057   1.932  18.147  0.3105  0.6269 -0.5542
 2944TIP3   OH233026   4.087   6.806  18.003  0.1140  0.5025 -0.2435
 2944TIP3    H133027   4.013   6.806  17.942 -0.1394 -2.1623 -0.0517
 2944TIP3    H233028   4.163   6.824  17.949 -0.5196  2.3654 -0.5934
 2945TIP3   OH233029   2.063   1.472  17.565 -0.2977  0.2629  0.1881
 2945TIP3    H133030   2.158   1.473  17.579  0.0642 -1.7613 -1.6711
 2945TIP3    H233031   2.048   1.401  17.502 -3.0179  0.7902  0.1094
 2946TIP3   OH233032   2.560   6.207  18.717 -0.5800  0.3235  0.6312
 2946TIP3    H133033   2.476   6.253  18.724 -1.5618 -1.3776  0.5861
 2946TIP3    H233034   2.560   6.170  18.629  1.5404  2.6442 -0.4609
 2947TIP3   OH233035   2.915   7.074  18.185 -0.4089  0.3243 -0.5742
 2947TIP3    H133036   2.957   6.993  18.212 -0.9707 -0.4928 -2.0698
 2947TIP3    H233037   2.861   7.050  18.110 -1.0196  1.9745 -0.7142
 2948TIP3   OH233038   1.597   2.652  19.209  0.6147  1.0456  0.2291
 2948TIP3    H133039   1.619   2.595  19.136 -2.0052 -1.8064  1.4479
 2948TIP3    H233040   1.521   2.702  19.179 -1.2994 -1.0703  1.2468
 2949TIP3   OH233041   2.971   6.410  18.121  0.2354 -0.0074  0.3873
 2949TIP3    H133042   2.877   6.396  18.138  0.3963 -1.7236  0.0444
 2949TIP3    H233043   2.996   6.337  18.065  1.7934  0.4299  0.4762
 2950TIP3   OH233044   3.505   7.447  18.683 -0.3636  0.1400 -0.2930
 2950TIP3    H133045   3.599   7.459  18.666 -0.3438 -0.7021 -0.8268
 2950TIP3    H233046   3.497   7.357  18.713 -1.1279 -0.1575 -1.3074
 2951TIP3   OH233047   5.350   7.531  18.271 -0.5546 -0.2192  0.7456
 2951TIP3    H133048   5.320   7.534  18.180  0.4796  2.8711  0.3784
 2951TIP3    H233049   5.270   7.521  18.323 -1.1953 -1.5437 -0.4345
 2952TIP3   OH233050   0.054   3.847  19.283  0.3361  0.2593 -0.1222
 2952TIP3    H133051   0.129   3.904  19.301  0.9886 -0.6325  0.0366
 2952TIP3    H233052   0.030   3.867  19.193 -0.6775  2.1750  0.5312
 2953TIP3   OH233053   7.292   1.896  18.345 -0.0241  0.0622 -0.0002
 2953TIP3    H133054   7.319   1.987  18.360  1.8574 -0.6711  1.4306
 2953TIP3    H233055   7.363   1.859  18.292 -1.8662 -0.0554 -2.5734
 2954TIP3   OH233056   1.498   4.516  19.375 -0.4135  0.1303  0.4489
 2954TIP3    H133057   1.510   4.559  19.460  0.7482  1.4658 -0.3628
 2954TIP3    H233058   1.415   4.551  19.343 -0.6701 -0.0919  0.8578
 2955TIP3   OH233059   7.514   1.517  19.703 -0.6699 -0.2639 -0.1721
 2955TIP3    H133060   7.555   1.498  19.619 -0.3912 -1.5743  0.2272
 2955TIP3    H233061   7.519   1.434  19.751 -1.2337  0.3329  0.9602
 2956TIP3   OH233062   2.933   5.900  19.357  0.8312  0.0738 -0.1161
 2956TIP3    H133063   3.019   5.894  19.398  1.2195 -0.7707 -1.0060
 2956TIP3    H233064   2.933   5.831  19.291 -1.1445 -1.0696  0.9768
 2957TIP3   OH233065   0.810   2.670  18.358 -0.1861 -0.0871 -0.3663
 2957TIP3    H133066   0.856   2.656  18.276  2.8478  3.7152  0.3994
 2957TIP3    H233067   0.836   2.596  18.413  1.0106 -0.5917 -1.5665
 2958TIP3   OH233068   1.684   1.973  16.955  0.2321  0.4022  0.2128
 2958TIP3    H133069   1.627   1.984  16.879 -0.1383 -0.7287  0.3016
 2958TIP3    H233070   1.763   2.023  16.934  1.3389 -2.1265 -2.2029
 2959TIP3   OH233071   3.910   4.881  17.946 -0.4781  0.0008  0.2026
 2959TIP3    H133072   3.856   4.802  17.955 -1.1532  0.4812  0.4542
 2959TIP3    H233073   3.929   4.908  18.036  0.1081 -0.1017  0.1180
 2960TIP3   OH233074   0.466   5.243  17.028  0.2149  0.2339 -0.2402
 2960TIP3    H133075   0.532   5.310  17.047  0.9765 -0.4418 -0.4540
 2960TIP3    H233076   0.388   5.274  17.074  0.8244  0.7767  0.4684
 2961TIP3   OH233077   5.206   3.836  18.182 -0.4132  0.4937 -0.8620
 2961TIP3    H133078   5.293   3.801  18.205  0.0489  1.2666 -1.4086
 2961TIP3    H233079   5.196   3.815  18.090 -0.7383  0.5623 -0.8419
 2962TIP3   OH233080   5.387   2.746  17.483  0.4256 -0.2315 -0.6090
 2962TIP3    H133081   5.348   2.660  17.469  1.0096 -0.4536 -0.9195
 2962TIP3    H233082   5.466   2.745  17.429  1.2611 -0.0810  0.5639
 2963TIP3   OH233083   3.344   0.697  17.824  0.0441 -0.0157 -0.8856
 2963TIP3    H133084   3.360   0.748  17.903 -1.1252 -1.3457  0.2504
 2963TIP3    H233085   3.431   0.686  17.785  0.5737  1.0644 -0.0637
 2964TIP3   OH233086   5.104   5.931  17.256 -0.9776 -0.1186 -0.3781
 2964TIP3    H133087   5.139   6.018  17.240  0.7554 -0.5455  0.8996
 2964TIP3    H233088   5.167   5.889  17.314 -0.1884 -3.2926 -3.2038
 2965TIP3   OH233089   0.154   2.895  16.941  0.1097 -0.0022  0.1969
 2965TIP3    H133090   0.148   2.976  16.992  2.9472  1.4886 -1.5809
 2965TIP3    H233091   0.063   2.866  16.932 -1.2077  3.6435 -0.0803
 2966TIP3   OH233092   0.108   0.651  17.312  0.0330  0.3012  0.0690
 2966TIP3    H133093   0.139   0.733  17.350  0.9557  0.7096 -1.4601
 2966TIP3    H233094   0.039   0.677  17.250  2.1084  0.3290 -2.4226
 2967TIP3   OH233095   1.699   6.257  17.858  0.9119 -0.1175  0.2742
 2967TIP3    H133096   1.613   6.229  17.888  0.3824 -1.5659 -2.3465
 2967TIP3    H233097   1.756   6.181  17.871  1.3891  0.2482  0.3775
 2968TIP3   OH233098   4.104   3.081  17.509 -0.0794  0.1249  0.2547
 2968TIP3    H133099   4.110   3.060  17.602  0.4587  1.2752  0.5015
 2968TIP3    H233100   4.011   3.087  17.491 -0.1740  0.5396  0.8717
 2969TIP3   OH233101   5.784   4.345  16.737 -0.1987  0.1629 -0.9127
 2969TIP3    H133102   5.697   4.332  16.773  0.6795  0.0437  1.3260
 2969TIP3    H233103   5.797   4.440  16.739  0.1093  0.1148 -0.1845
 2970TIP3   OH233104   4.848   0.758  19.505 -0.5500 -0.2226  0.0447
 2970TIP3    H133105   4.771   0.702  19.505 -0.4197 -0.4575 -1.5076
 2970TIP3    H233106   4.920   0.701  19.531 -0.4209 -0.8361 -1.5204
 2971TIP3   OH233107   2.860   2.507  19.621  0.3857  0.0943  0.6256
 2971TIP3    H133108   2.831   2.492  19.532 -0.3130 -0.4780  0.9368
 2971TIP3    H233109   2.952   2.482  19.621 -0.0066 -1.4143  0.4274
 2972TIP3   OH233110   4.485   3.335  19.184  0.3924  0.4380  0.0836
 2972TIP3    H133111   4.458   3.248  19.213 -0.8418  1.0653  0.9112
 2972TIP3    H233112   4.430   3.353  19.107  2.5462 -0.5732 -1.8021
 2973TIP3   OH233113   5.273   5.528  18.578 -0.6691  0.5709 -0.4010
 2973TIP3    H133114   5.196   5.491  18.622  0.3006 -0.5131  0.4486
 2973TIP3    H233115   5.267   5.622  18.595 -1.3213  0.3984  0.4482
 2974TIP3   OH233116   4.213   5.435  18.923 -0.6752 -0.1688 -0.1001
 2974TIP3    H133117   4.208   5.520  18.967  0.9124  0.2332 -0.6329
 2974TIP3    H233118   4.294   5.396  18.956 -0.7407 -0.9340 -0.8131
 2975TIP3   OH233119   5.026   5.010  17.296  0.2551  0.3193  0.3841
 2975TIP3    H133120   4.961   5.074  17.266  2.2170  2.3471  0.1976
 2975TIP3    H233121   5.027   5.020  17.391  0.7240  0.7852  0.3379
 2976TIP3   OH233122   3.223   6.444  19.092 -0.0001  0.1080  0.0377
 2976TIP3    H133123   3.255   6.478  19.176 -0.5917  1.0960 -0.1277
 2976TIP3    H233124   3.303   6.428  19.041  0.3021  1.9887 -0.1549
 2977TIP3   OH233125   4.694   5.735  19.380  0.3369  0.3657  0.1698
 2977TIP3    H133126   4.755   5.686  19.325  0.2159 -0.3849  0.6882
 2977TIP3    H233127   4.726   5.722  19.469 -0.7129 -0.2576  0.4735
 2978TIP3   OH233128   7.439   5.464  17.208  0.0818  0.1362 -0.1285
 2978TIP3    H133129   7.431   5.377  17.168  0.3200  0.8658 -1.8333
 2978TIP3    H233130   7.431   5.525  17.135 -2.0516  1.6614  1.2492
 2979TIP3   OH233131   6.920   3.826  15.843 -0.4348  0.3544 -0.2295
 2979TIP3    H133132   6.992   3.888  15.857 -1.2360  0.8779  1.8277
 2979TIP3    H233133   6.898   3.836  15.751  0.7618  1.6748 -0.4106
 2980TIP3   OH233134   1.833   2.899  17.554  0.4645  0.0234 -0.1043
 2980TIP3    H133135   1.886   2.851  17.491  1.5461  2.4237 -1.1650
 2980TIP3    H233136   1.840   2.849  17.635 -0.6179 -2.9352 -1.6926
 2981TIP3   OH233137   2.969   6.864  19.361  0.3883  1.3386 -0.3261
 2981TIP3    H133138   3.039   6.861  19.426 -1.0078  3.6157  1.4326
 2981TIP3    H233139   3.013   6.885  19.279  1.9781  0.3785  0.2402
 2982TIP3   OH233140   0.619   7.483  18.682  0.1611 -0.5942 -0.0610
 2982TIP3    H133141   0.687   7.503  18.618 -0.8610  0.1481 -0.9744
 2982TIP3    H233142   0.650   7.404  18.727  1.7048 -0.1405 -0.2792
 2983TIP3   OH233143   4.845   5.154  18.788  0.2823  0.3220 -0.1064
 2983TIP3    H133144   4.865   5.196  18.872 -0.3218  1.3329 -0.4492
 2983TIP3    H233145   4.924   5.105  18.766  0.4113 -0.0454  1.1017
 2984TIP3   OH233146   4.741   4.123  19.239 -0.7670 -0.1995  0.6855
 2984TIP3    H133147   4.673   4.185  19.213 -0.8217  0.3300  2.0607
 2984TIP3    H233148   4.814   4.141  19.180 -0.8561  1.0367  0.9352
 2985TIP3   OH233149   0.185   1.887  19.038 -0.0860  0.2452  0.1667
 2985TIP3    H133150   0.243   1.871  18.964 -1.6784 -1.6014 -0.7902
 2985TIP3    H233151   0.184   1.804  19.087 -2.3608 -0.0590 -0.2606
 2986TIP3   OH233152   3.589   2.876  19.492 -0.5221  0.1104  0.2375
 2986TIP3    H133153   3.619   2.960  19.527 -0.9081 -0.1095  1.1250
 2986TIP3    H233154   3.500   2.866  19.526 -0.6364 -0.4575 -0.2143
 2987TIP3   OH233155   6.326   0.059  17.735 -0.5532 -0.1025  0.4340
 2987TIP3    H133156   6.387   0.014  17.677 -0.7070  0.4089 -0.1391
 2987TIP3    H233157   6.259  -0.006  17.756 -0.1305 -0.4895  0.5956
 2988TIP3   OH233158   3.516   2.793  18.605  0.2994  0.1035 -0.3674
 2988TIP3    H133159   3.420   2.784  18.607  0.4075 -1.2630  0.4151
 2988TIP3    H233160   3.531   2.884  18.583 -1.2147  0.9072  1.6104
 2989TIP3   OH233161   5.198   1.375  18.203 -0.2614 -0.1865 -0.3308
 2989TIP3    H133162   5.283   1.386  18.160 -0.4900 -2.1714 -1.4011
 2989TIP3    H233163   5.141   1.440  18.161  0.4989  0.6091 -0.1659
 2990TIP3   OH233164   6.207   2.692  17.031 -0.4242  0.2443 -0.2200
 2990TIP3    H133165   6.298   2.665  17.021 -0.3383  0.9596 -1.7319
 2990TIP3    H233166   6.205   2.782  16.998 -1.7027  0.1996 -0.3179
 2991TIP3   OH233167   3.041   2.253  18.179  0.6038  0.0461 -0.5734
 2991TIP3    H133168   2.974   2.271  18.113  0.2140 -0.7309 -0.4066
 2991TIP3    H233169   3.100   2.328  18.176  0.6115  0.0103 -1.8302
 2992TIP3   OH233170   3.864   4.433  18.806  0.1896  0.3533  0.0860
 2992TIP3    H133171   3.937   4.477  18.849  0.0714 -0.5356  1.2578
 2992TIP3    H233172   3.902   4.398  18.725  0.9593  0.2791  0.4690
 2993TIP3   OH233173   6.255   2.325  19.441  0.2589 -0.1056  0.0022
 2993TIP3    H133174   6.201   2.249  19.463  0.3605 -0.5865 -1.2540
 2993TIP3    H233175   6.250   2.330  19.345 -0.3364  1.9408  0.1112
 2994TIP3   OH233176   7.395   3.677  16.351 -0.6760 -0.6796  0.1595
 2994TIP3    H133177   7.486   3.705  16.359 -0.2335 -1.3133 -1.8881
 2994TIP3    H233178   7.395   3.586  16.379 -0.7834 -0.5363  0.6273
 2995TIP3   OH233179   0.382   6.911  19.164 -0.5324 -0.2840  0.5685
 2995TIP3    H133180   0.346   6.930  19.251 -1.5236 -0.1087  0.1294
 2995TIP3    H233181   0.363   6.818  19.150  0.2871 -0.4976  0.8407
 2996TIP3   OH233182   6.833   4.798  18.385 -0.1933 -0.1412  0.7183
 2996TIP3    H133183   6.902   4.825  18.324 -0.1220 -0.5613  0.6067
 2996TIP3    H233184   6.873   4.807  18.472 -0.0128 -0.3283  0.6572
 2997TIP3   OH233185   4.224   4.799  18.061 -1.1533 -0.5010 -0.2606
 2997TIP3    H133186   4.168   4.762  17.993  0.2370 -0.9539 -1.2169
 2997TIP3    H233187   4.295   4.842  18.013 -0.1970 -0.7375  0.8948
 2998TIP3   OH233188   6.214   5.449  17.880  0.4537  0.2947  0.2232
 2998TIP3    H133189   6.262   5.370  17.854  0.9606 -0.1452  2.2862
 2998TIP3    H233190   6.126   5.418  17.899 -0.6762  1.0368 -3.1615
 2999TIP3   OH233191   6.294   1.185  17.786 -0.7152 -0.1841  0.1635
 2999TIP3    H133192   6.292   1.160  17.693 -1.5288 -0.5988  0.2860
 2999TIP3    H233193   6.207   1.164  17.819 -0.8764  1.2528  0.7049
 3000TIP3   OH233194   0.516   0.750  17.179 -0.1098  0.0434  0.1761
 3000TIP3    H133195   0.436   0.707  17.148 -0.7857  1.4500 -0.1176
 3000TIP3    H233196   0.587   0.690  17.154 -0.9002 -0.2924 -1.3783
 3001TIP3   OH233197   0.049   2.627  17.541 -0.2091  0.6058 -0.0712
 3001TIP3    H133198   0.059   2.576  17.621 -3.2822 -2.0749 -1.1798
 3001TIP3    H233199   0.094   2.576  17.474  0.5058  1.7210 -0.4781
 3002TIP3   OH233200   7.314   3.980  16.103 -0.0492 -0.0697 -0.4280
 3002TIP3    H133201   7.274   4.016  16.182  0.0952  0.2720 -0.5060
 3002TIP3    H233202   7.304   3.885  16.111 -1.2381  0.0181 -0.6365
 3003TIP3   OH233203   0.094   5.583  19.059 -0.2518 -0.0136 -0.2167
 3003TIP3    H133204   0.112   5.569  18.966  1.2284  0.5774 -0.0544
 3003TIP3    H233205   0.159   5.647  19.086  0.7090 -1.6691  1.6957
 3004TIP3   OH233206   0.135   5.712  16.941 -0.0371 -0.0551  0.2070
 3004TIP3    H133207   0.074   5.667  16.881  0.3721 -1.4292  0.7677
 3004TIP3    H233208   0.195   5.758  16.883 -1.8438  1.7198 -0.3604
 3005TIP3   OH233209   5.818   7.063  18.921 -0.1164  0.0172  0.4294
 3005TIP3    H133210   5.808   7.157  18.933 -0.1493  0.1321 -0.4330
 3005TIP3    H233211   5.746   7.039  18.863 -0.2625 -0.5876  0.8537
 3006TIP3   OH233212   6.797   3.606  19.233  0.3968  0.0344 -0.1868
 3006TIP3    H133213   6.871   3.579  19.287  0.0029  3.2948  2.3075
 3006TIP3    H233214   6.832   3.676  19.178 -0.0961 -0.7531 -1.5563
 3007TIP3   OH233215   6.142   0.879  18.664  0.4790 -0.0854 -0.2813
 3007TIP3    H133216   6.107   0.888  18.575 -1.2027 -0.5517  0.2974
 3007TIP3    H233217   6.199   0.954  18.675 -0.8855  1.1150 -1.0668
 3008TIP3   OH233218   6.275   1.119  18.692  0.1982 -0.1517  0.0425
 3008TIP3    H133219   6.229   1.159  18.765  0.1050 -1.3286  0.6442
 3008TIP3    H233220   6.304   1.194  18.638 -0.5609  0.6795  0.7580
 3009TIP3   OH233221   0.255   4.369  19.312 -0.2292  0.1062 -0.2103
 3009TIP3    H133222   0.184   4.398  19.255  0.8379  0.2406 -1.5268
 3009TIP3    H233223   0.296   4.450  19.342 -0.1823  0.0235 -0.0528
 3010TIP3   OH233224   4.308   1.585  17.884  0.0463 -0.6232  0.0872
 3010TIP3    H133225   4.326   1.640  17.961 -0.0632 -0.5469  0.0597
 3010TIP3    H233226   4.313   1.646  17.810  0.2926 -0.7236  0.0191
 3011TIP3   OH233227   4.742   2.624  18.881 -0.3438 -0.1325 -0.5525
 3011TIP3    H133228   4.814   2.668  18.837 -0.6635 -0.3840 -1.3550
 3011TIP3    H233229   4.671   2.688  18.881 -0.6253 -0.4323 -1.2081
 3012TIP3   OH233230   3.606   1.028  19.278  0.3617  0.6540  0.2131
 3012TIP3    H133231   3.575   1.086  19.348  0.6175 -1.4163  2.1709
 3012TIP3    H233232   3.702   1.033  19.285  0.3943 -0.6433  1.0378
 3013TIP3   OH233233   6.227   1.435  18.145  0.2492  0.1643  0.3873
 3013TIP3    H133234   6.284   1.448  18.070  1.1990  0.6622  1.1736
 3013TIP3    H233235   6.142   1.471  18.117  0.9409  1.5501  0.0147
 3014TIP3   OH233236   4.932   0.873  17.967  0.1239 -0.1278  0.0101
 3014TIP3    H133237   5.026   0.861  17.978  0.1844  0.9425  0.8855
 3014TIP3    H233238   4.917   0.861  17.873  1.2428  0.3411 -0.2466
 3015TIP3   OH233239   7.049   0.495  18.049  0.3914  0.3377 -0.1192
 3015TIP3    H133240   7.072   0.588  18.044 -0.9733  0.8473  1.7376
 3015TIP3    H233241   7.009   0.486  18.136 -3.3185 -1.0708 -1.7954
 3016TIP3   OH233242   1.234   3.148  17.401 -0.6525  0.2184  0.4677
 3016TIP3    H133243   1.159   3.117  17.452 -1.6379  1.5390 -0.1037
 3016TIP3    H233244   1.197   3.216  17.344  0.8287  0.2989 -0.4458
 3017TIP3   OH233245   6.842   7.037  18.834 -0.2487 -0.0761 -0.1836
 3017TIP3    H133246   6.752   7.033  18.866 -0.2530  0.4155 -0.1291
 3017TIP3    H233247   6.863   7.131  18.833  0.9133 -0.2770  1.6144
 3018TIP3   OH233248   7.510   4.748  19.162  0.2851 -0.1748 -0.2014
 3018TIP3    H133249   7.546   4.725  19.249 -1.4750  1.5336  1.0582
 3018TIP3    H233250   7.447   4.679  19.143  0.2825 -0.2712  0.1499
 3019TIP3   OH233251   3.501   3.480  18.812  0.1348 -0.0610 -0.1846
 3019TIP3    H133252   3.501   3.565  18.856 -2.5402 -1.0796  2.0635
 3019TIP3    H233253   3.422   3.481  18.758 -0.3467 -1.3663  0.4594
 3020TIP3   OH233254   4.294   1.665  18.530 -0.0786  0.2557  0.6384
 3020TIP3    H133255   4.262   1.592  18.583  0.0734 -0.0543  0.3089
 3020TIP3    H233256   4.385   1.641  18.511  0.4899  1.2956  1.8812
 3021TIP3   OH233257   1.416   3.584  17.931 -1.0059 -0.1031  0.3955
 3021TIP3    H133258   1.384   3.502  17.893 -1.0979 -0.4185  1.1304
 3021TIP3    H233259   1.368   3.592  18.013 -1.2400  0.8605  0.1808
 3022TIP3   OH233260   0.714   4.751  19.429  0.1422  0.0970 -0.2808
 3022TIP3    H133261   0.747   4.837  19.401 -1.2601  0.6174 -0.4626
 3022TIP3    H233262   0.672   4.769  19.514  0.2772 -0.5149 -0.0850
 3023TIP3   OH233263   0.261   2.293  18.108  0.0029 -0.0214 -0.2757
 3023TIP3    H133264   0.210   2.360  18.062  0.5555  1.6180  1.3735
 3023TIP3    H233265   0.209   2.273  18.186  0.4848 -0.5351 -0.0811
 3024TIP3   OH233266   5.503   2.862  17.979 -0.2384  0.4083  0.3080
 3024TIP3    H133267   5.437   2.860  17.909  0.3989  0.5111 -0.3163
 3024TIP3    H233268   5.522   2.770  17.996 -0.3493  0.3825  0.2919
 3025TIP3   OH233269   1.587   3.657  18.634 -0.0447 -0.3294  0.3731
 3025TIP3    H133270   1.640   3.711  18.693  0.4498 -1.0421  0.5913
 3025TIP3    H233271   1.624   3.569  18.642 -0.5705 -0.6206 -0.2997
 3026TIP3   OH233272   7.165   2.807  19.177 -0.0497  0.4858  0.1318
 3026TIP3    H133273   7.125   2.835  19.260  1.2722  0.5418  0.7803
 3026TIP3    H233274   7.220   2.881  19.151  2.1057 -0.7248  0.9464
 3027TIP3   OH233275   0.450   4.875  16.683  0.3560  0.1481  0.0851
 3027TIP3    H133276   0.453   4.943  16.616 -1.3514 -0.4568 -0.6471
 3027TIP3    H233277   0.482   4.796  16.639  0.2781 -0.0049  0.3019
 3028TIP3   OH233278   2.654   7.558  17.403 -0.3516  0.2224 -0.6081
 3028TIP3    H133279   2.643   7.513  17.486  1.7870 -1.3725 -1.0918
 3028TIP3    H233280   2.566   7.560  17.364 -0.7516 -2.5378 -0.0186
 3029TIP3   OH233281   0.646   6.634  19.271 -1.0094 -0.0897  0.2177
 3029TIP3    H133282   0.631   6.682  19.353  1.2013 -0.5685  0.9892
 3029TIP3    H233283   0.724   6.675  19.233 -0.0847 -1.9082  0.0308
 3030TIP3   OH233284   5.607   6.517  19.476  0.4509  0.0598 -0.3188
 3030TIP3    H133285   5.529   6.572  19.484  0.7117  0.3737  0.1716
 3030TIP3    H233286   5.609   6.490  19.384  0.0086  0.4063 -0.4324
 3031TIP3   OH233287   5.174   4.043  16.482 -0.3069 -0.4718  0.1318
 3031TIP3    H133288   5.085   4.028  16.450 -0.0245  0.8436 -1.3892
 3031TIP3    H233289   5.169   4.129  16.524  0.5967  0.4180 -1.5025
 3032TIP3   OH233290   1.026   0.155  17.073  0.0453  0.5261  0.0436
 3032TIP3    H133291   0.934   0.132  17.063  0.6078 -1.6987 -0.6328
 3032TIP3    H233292   1.066   0.133  16.989  1.4427  0.0386  0.7915
 3033TIP3   OH233293   1.391   0.037  18.139 -0.0354 -0.0694 -0.6024
 3033TIP3    H133294   1.476   0.016  18.176 -0.5725  0.4098  1.0160
 3033TIP3    H233295   1.334   0.048  18.216 -1.8503 -1.5728 -1.6554
 3034TIP3   OH233296   6.168   3.228  19.090 -0.7944 -0.4258 -0.2761
 3034TIP3    H133297   6.109   3.160  19.057 -0.4536 -1.1181  0.5119
 3034TIP3    H233298   6.254   3.186  19.093 -0.6433 -0.0821  0.5662
 3035TIP3   OH233299   0.303   5.036  16.851 -0.1203  0.0847 -0.3182
 3035TIP3    H133300   0.363   5.086  16.907 -0.2680  2.0988 -1.8630
 3035TIP3    H233301   0.359   4.973  16.806  0.7634  1.4596 -1.2114
 3036TIP3   OH233302   2.258   5.449  19.405  0.3406 -0.2059  0.1060
 3036TIP3    H133303   2.348   5.423  19.387  0.4461  0.7941 -0.9488
 3036TIP3    H233304   2.264   5.504  19.483  1.1060  2.2254 -1.5534
 3037TIP3   OH233305   1.890   0.731  18.637 -0.1616 -0.3979  0.0736
 3037TIP3    H133306   1.984   0.748  18.634 -0.0116 -1.0144  0.8409
 3037TIP3    H233307   1.881   0.656  18.696 -1.1054 -0.5687 -0.2645
 3038TIP3   OH233308   1.786   5.981  17.864  0.0659  0.1526 -0.0888
 3038TIP3    H133309   1.872   5.942  17.847  0.4068  0.1150  1.6067
 3038TIP3    H233310   1.729   5.942  17.798  0.9870 -1.1087 -0.1832
 3039TIP3   OH233311   3.157   5.834  18.647 -0.1052 -0.9565  0.4162
 3039TIP3    H133312   3.079   5.783  18.628  0.9753 -2.0012 -1.5117
 3039TIP3    H233313   3.125   5.910  18.695 -2.3154 -1.2594 -0.4576
 3040TIP3   OH233314   6.022   4.292  17.975 -0.0542  0.4219  0.8881
 3040TIP3    H133315   6.018   4.266  17.883  0.0526  0.5789  0.8413
 3040TIP3    H233316   5.931   4.304  18.001 -0.0107  2.8361  0.1145
 3041TIP3   OH233317   6.820   4.953  17.276 -0.1263  0.6485 -0.4392
 3041TIP3    H133318   6.833   4.969  17.182  0.2357  1.0517 -0.3243
 3041TIP3    H233319   6.909   4.938  17.309 -0.2463  0.5908 -0.1450
 3042TIP3   OH233320   1.371   0.708  17.546  0.4574 -0.4149 -0.0809
 3042TIP3    H133321   1.368   0.684  17.638  0.3595 -0.4282 -0.0873
 3042TIP3    H233322   1.284   0.683  17.512 -0.8088  2.6809  0.5610
 3043TIP3   OH233323   6.397   2.396  18.505 -0.7799  0.4209  0.2664
 3043TIP3    H133324   6.490   2.374  18.500 -0.5947  1.4882 -2.1699
 3043TIP3    H233325   6.353   2.323  18.460 -0.8063  1.3407 -1.2678
 3044TIP3   OH233326   3.650   4.662  18.468  0.0736 -0.0672 -0.2620
 3044TIP3    H133327   3.736   4.697  18.447  0.3198 -0.3766  0.2211
 3044TIP3    H233328   3.655   4.569  18.445  0.8801 -0.8071  2.5836
 3045TIP3   OH233329   7.258   6.208  18.809 -0.1800 -0.0026  0.0675
 3045TIP3    H133330   7.274   6.301  18.822 -0.3050 -0.2144  1.9949
 3045TIP3    H233331   7.189   6.187  18.873 -0.1946 -1.4053 -0.3847
 3046TIP3   OH233332   2.818   7.521  18.962 -0.5358  0.2330 -0.1287
 3046TIP3    H133333   2.792   7.497  19.051 -0.0622  2.8900  0.8075
 3046TIP3    H233334   2.901   7.476  18.948 -1.0557 -0.9328  0.3853
 3047TIP3   OH233335   2.084   0.818  17.320 -0.0737  0.0793  0.3559
 3047TIP3    H133336   2.025   0.890  17.295  0.6692  0.4754 -0.3416
 3047TIP3    H233337   2.050   0.742  17.273 -0.3979  0.1530  0.4666
 3048TIP3   OH233338   4.395   2.858  17.889  0.9416 -0.6605 -0.2630
 3048TIP3    H133339   4.372   2.900  17.972  0.0162 -0.6725 -0.5045
 3048TIP3    H233340   4.467   2.910  17.855 -0.0886  0.6854 -0.4894
 3049TIP3   OH233341   2.223   4.101  19.148  0.4637 -0.5705  0.0465
 3049TIP3    H133342   2.176   4.143  19.219 -2.5629  0.1203 -2.1793
 3049TIP3    H233343   2.182   4.016  19.138  0.6040 -0.5271 -1.0702
 3050TIP3   OH233344   6.846   2.017  17.173 -0.2206 -0.6922  0.1315
 3050TIP3    H133345   6.767   2.068  17.159 -1.1757 -1.7134  1.5101
 3050TIP3    H233346   6.866   1.980  17.086 -1.4137 -0.6410 -0.1852
 3051TIP3   OH233347   3.072   4.805  17.333 -0.1846 -0.0645 -0.1261
 3051TIP3    H133348   3.155   4.774  17.297  0.5934  1.4093  0.2952
 3051TIP3    H233349   3.052   4.884  17.281 -0.3056  0.6994  1.0484
 3052TIP3   OH233350   3.777   5.179  18.040 -0.4895  0.3434 -0.0486
 3052TIP3    H133351   3.858   5.223  18.067 -0.3103  0.9293 -1.4459
 3052TIP3    H233352   3.771   5.102  18.096  0.3781  0.9731  0.9278
 3053TIP3   OH233353   2.680   3.827  19.226  0.2594 -0.0369  0.0346
 3053TIP3    H133354   2.593   3.860  19.205  0.1818 -0.5585 -0.4912
 3053TIP3    H233355   2.689   3.840  19.321 -1.1013 -1.6301  0.4229
 3054TIP3   OH233356   4.815   0.936  19.206  0.1258  0.0024  0.3458
 3054TIP3    H133357   4.858   0.975  19.282  0.9192  0.5666 -0.3642
 3054TIP3    H233358   4.852   0.984  19.131 -1.4549  0.2433 -0.3240
 3055TIP3   OH233359   7.506   0.673  18.540  0.3077  0.9099 -0.3426
 3055TIP3    H133360   7.447   0.680  18.465 -1.8810 -0.7074  1.1160
 3055TIP3    H233361   7.487   0.750  18.593  2.1022  2.2412 -1.4795
 3056TIP3   OH233362   3.168   1.295  17.139  0.3586 -0.4913 -0.0298
 3056TIP3    H133363   3.200   1.374  17.182  1.1915 -1.0167  0.3307
 3056TIP3    H233364   3.128   1.244  17.210 -2.6229  0.7386 -0.6391
 3057TIP3   OH233365   2.004   0.064  19.242  0.5511  0.1281 -0.4286
 3057TIP3    H133366   1.975   0.147  19.204 -0.8569 -0.4285 -0.6320
 3057TIP3    H233367   2.001   0.002  19.169  0.3837 -0.3722 -0.0039
 3058TIP3   OH233368   5.159   1.543  18.698  0.6428 -0.9057  0.3609
 3058TIP3    H133369   5.124   1.461  18.663  0.8143 -0.4469 -0.9282
 3058TIP3    H233370   5.082   1.597  18.716  0.5735  0.1001 -2.4576
 3059TIP3   OH233371   6.831   0.126  17.469  0.5456 -0.0294 -0.3875
 3059TIP3    H133372   6.846   0.197  17.407  2.5029  0.6065  0.7337
 3059TIP3    H233373   6.890   0.144  17.542 -1.3154 -1.0109  1.4858
 3060TIP3   OH233374   3.837   6.399  18.325 -0.7172 -0.3856  0.1562
 3060TIP3    H133375   3.797   6.431  18.245  0.3398  0.4380 -0.0657
 3060TIP3    H233376   3.914   6.350  18.296 -0.5352 -0.4039  0.6464
 3061TIP3   OH233377   2.471   1.782  18.784 -0.4340  0.1944  0.2936
 3061TIP3    H133378   2.394   1.742  18.743  0.3335 -0.4800 -0.5568
 3061TIP3    H233379   2.536   1.786  18.713  0.4514  0.3688  1.0917
 3062TIP3   OH233380   3.958   0.425  17.549 -0.0326  0.2385  0.2975
 3062TIP3    H133381   4.034   0.381  17.588 -0.4517  0.2078  1.1053
 3062TIP3    H233382   3.923   0.361  17.487  1.0619  0.5589 -0.6832
 3063TIP3   OH233383   0.618   1.342  18.235  0.2851  0.4488  0.1493
 3063TIP3    H133384   0.625   1.302  18.148  0.0075  0.8816 -0.0792
 3063TIP3    H233385   0.593   1.432  18.217 -1.9695 -0.0038  0.7359
 3064TIP3   OH233386   1.162   0.427  18.327 -0.2550  0.3457  0.0713
 3064TIP3    H133387   1.168   0.338  18.292 -1.4121 -0.1486  1.0391
 3064TIP3    H233388   1.228   0.431  18.396 -0.1364  0.2542 -0.0380
 3065TIP3   OH233389   2.840   1.917  18.707 -0.1827 -0.5848  0.4897
 3065TIP3    H133390   2.903   1.964  18.763  0.2423 -0.5233 -0.0295
 3065TIP3    H233391   2.860   1.947  18.619 -1.7284  0.3442  0.4162
 3066TIP3   OH233392   1.814   4.429  19.394  0.1093  0.2693  0.1616
 3066TIP3    H133393   1.747   4.386  19.341  0.3413  0.5149 -0.3380
 3066TIP3    H233394   1.800   4.523  19.380  0.8734  0.3177 -0.3561
 3067TIP3   OH233395   5.768   4.016  17.122 -0.0079 -0.5557  0.3847
 3067TIP3    H133396   5.821   4.000  17.044 -1.3574 -0.2101 -0.6450
 3067TIP3    H233397   5.755   3.929  17.160  0.2514 -0.7904 -0.0491
 3068TIP3   OH233398   4.946   6.624  18.818 -0.0093  0.1772  0.2275
 3068TIP3    H133399   4.950   6.604  18.725  1.9767 -1.1189  0.5200
 3068TIP3    H233400   4.853   6.634  18.837 -0.5848 -1.3112 -1.5313
 3069TIP3   OH233401   2.660   3.473  17.424 -0.1801  0.0345 -0.1087
 3069TIP3    H133402   2.720   3.439  17.490 -0.7223  0.0399  0.3957
 3069TIP3    H233403   2.717   3.506  17.355  0.3779 -1.3587 -0.3477
 3070TIP3   OH233404   6.488   3.176  17.762 -0.2575  0.0409 -0.2725
 3070TIP3    H133405   6.517   3.089  17.791  0.8752  0.5403  0.1494
 3070TIP3    H233406   6.415   3.197  17.820 -0.8362 -0.8145 -0.6742
 3071TIP3   OH233407   0.948   0.710  19.282  0.0207  0.3325 -0.0556
 3071TIP3    H133408   0.853   0.719  19.288 -0.2654 -0.7632 -1.9674
 3071TIP3    H233409   0.978   0.711  19.372 -2.1600 -2.5576  0.8667
 3072TIP3   OH233410   4.518   4.599  19.288 -0.0557  0.1453 -0.0432
 3072TIP3    H133411   4.605   4.596  19.328  0.0540  0.2366 -0.2752
 3072TIP3    H233412   4.468   4.531  19.334  0.3630 -0.4280 -0.4349
 3073TIP3   OH233413   1.501   0.299  17.695  0.8484 -0.4278  0.6345
 3073TIP3    H133414   1.446   0.230  17.732  1.2592 -1.1175 -0.0294
 3073TIP3    H233415   1.569   0.253  17.646  0.3922  0.4633 -0.8913
 3074TIP3   OH233416   0.829   4.429  18.689 -0.3052  0.5334 -0.1537
 3074TIP3    H133417   0.791   4.429  18.602 -1.1017 -0.5144  0.1683
 3074TIP3    H233418   0.766   4.477  18.743 -0.5869 -0.1589  0.1424
 3075TIP3   OH233419   4.586   0.003  18.485  0.1365  0.5647  0.5520
 3075TIP3    H133420   4.601   0.097  18.479 -0.1370  0.7655  2.3680
 3075TIP3    H233421   4.598  -0.018  18.578 -1.4117 -0.8864  0.4912
 3076TIP3   OH233422   2.398   5.847  17.751 -0.0396  0.1651  0.1291
 3076TIP3    H133423   2.320   5.859  17.696 -0.3896  0.5528  0.7049
 3076TIP3    H233424   2.462   5.908  17.714 -0.8755  1.8020  1.2528
 3077TIP3   OH233425   1.242   2.978  16.737  0.0223 -0.2609  0.6499
 3077TIP3    H133426   1.319   2.998  16.685 -0.4140 -0.2027  0.0190
 3077TIP3    H233427   1.176   3.042  16.708  0.0954  0.4836  2.0342
 3078TIP3   OH233428   0.018   4.714  17.493 -0.0803  0.2858  1.1861
 3078TIP3    H133429   0.039   4.643  17.432  0.4624  1.2160  0.2792
 3078TIP3    H233430   0.065   4.691  17.573  0.4759 -0.1371  0.7481
 3079TIP3   OH233431   0.280   6.305  18.640 -0.1321 -0.4575 -0.0622
 3079TIP3    H133432   0.323   6.328  18.723 -1.2234  0.4004  0.2963
 3079TIP3    H233433   0.296   6.381  18.583  0.1924 -0.8295 -0.4681
 3080TIP3   OH233434   0.900   1.287  18.018 -0.1158  0.0029  0.1542
 3080TIP3    H133435   0.869   1.352  18.082  0.3032  3.4465 -2.7869
 3080TIP3    H233436   0.996   1.297  18.020 -0.1411  0.9874 -1.6420
 3081TIP3   OH233437   4.448   7.238  18.375  0.4744  0.1704  0.5736
 3081TIP3    H133438   4.394   7.248  18.296  0.8637 -0.3859  0.2219
 3081TIP3    H233439   4.537   7.256  18.345  0.6224 -0.0186  0.8923
 3082TIP3   OH233440   3.242   2.346  17.935  0.5998 -0.0822  0.1629
 3082TIP3    H133441   3.208   2.258  17.920 -1.2732  0.5652  0.4794
 3082TIP3    H233442   3.318   2.352  17.875  0.1850 -1.5574 -0.5593
 3083TIP3   OH233443   3.594   1.190  19.748 -0.2225  0.1866  0.1698
 3083TIP3    H133444   3.649   1.160  19.820 -0.0516 -0.1649 -0.1026
 3083TIP3    H233445   3.520   1.130  19.746 -0.0086 -0.0731 -0.2139
 3084TIP3   OH233446   5.287   6.593  17.272 -0.4228 -0.0558 -0.3129
 3084TIP3    H133447   5.252   6.559  17.189  0.1572 -0.3241 -0.4506
 3084TIP3    H233448   5.360   6.649  17.246 -0.9675  0.8048 -0.0485
 3085TIP3   OH233449   3.726   7.609  17.652  0.4177  0.2215 -0.1747
 3085TIP3    H133450   3.741   7.533  17.596 -0.7286  0.2972 -0.6214
 3085TIP3    H233451   3.644   7.646  17.620 -0.1997  0.3547  1.4810
 3086TIP3   OH233452   3.702   4.530  17.182 -0.3165  0.5112  0.3876
 3086TIP3    H133453   3.720   4.491  17.267 -0.7134  1.1243  0.7641
 3086TIP3    H233454   3.636   4.473  17.142 -0.0991  0.2007  0.4772
 3087TIP3   OH233455   7.673   5.106  16.541 -0.1864 -0.0516  0.4119
 3087TIP3    H133456   7.690   5.167  16.468 -1.5599 -0.5113 -0.3233
 3087TIP3    H233457   7.578   5.106  16.550 -0.1737 -1.6723  0.7662
 3088TIP3   OH233458   4.786   3.342  18.640  0.1375  0.4578  0.2721
 3088TIP3    H133459   4.704   3.294  18.624 -0.0834  1.4029 -1.7954
 3088TIP3    H233460   4.794   3.345  18.735 -1.5425 -0.8003  0.5052
 3089TIP3   OH233461   4.120   2.756  19.117  0.2916 -1.0441 -0.1552
 3089TIP3    H133462   4.031   2.730  19.093 -0.2806 -0.4014  1.1555
 3089TIP3    H233463   4.153   2.683  19.170  0.5737 -1.3091 -0.6909
 3090TIP3   OH233464   0.938   1.973  18.445 -0.3436  0.3559 -0.2908
 3090TIP3    H133465   0.926   1.984  18.351 -0.3097 -1.5384 -0.5609
 3090TIP3    H233466   0.858   1.931  18.475  0.6791 -1.5806 -0.0310
 3091TIP3   OH233467   1.385   6.108  19.583  0.2493  0.2721  0.4330
 3091TIP3    H133468   1.319   6.172  19.554  0.4776  1.0788  1.6414
 3091TIP3    H233469   1.413   6.139  19.668  1.2963 -0.7706  0.4925
 3092TIP3   OH233470   4.277   6.862  19.090  0.2480 -0.1886  0.3002
 3092TIP3    H133471   4.336   6.837  19.018  0.5746  1.3684 -0.0240
 3092TIP3    H233472   4.328   6.847  19.169 -0.9215 -4.1996  0.4902
 3093TIP3   OH233473   5.792   0.120  18.934 -0.6995  0.5824  0.4521
 3093TIP3    H133474   5.732   0.052  18.966  1.1471 -1.3937 -0.0253
 3093TIP3    H233475   5.741   0.169  18.870 -2.5629  0.6418  1.8887
 3094TIP3   OH233476   1.007   0.502  17.142 -0.0859 -0.0972 -0.3234
 3094TIP3    H133477   0.961   0.506  17.057  0.3637 -0.1216 -0.5720
 3094TIP3    H233478   1.038   0.591  17.155  0.2184 -0.1940 -0.3924
 3095TIP3   OH233479   4.478   2.576  17.755  0.0732  0.1402  0.4144
 3095TIP3    H133480   4.464   2.652  17.811  0.7198 -0.1765  1.0268
 3095TIP3    H233481   4.461   2.501  17.811 -2.2207 -0.2053 -0.6319
 3096TIP3   OH233482   4.558   5.605  17.186 -0.5944  0.6032  0.2419
 3096TIP3    H133483   4.552   5.555  17.105 -0.6477  1.2143 -0.1376
 3096TIP3    H233484   4.593   5.690  17.159 -0.3770  0.7268  0.8943
 3097TIP3   OH233485   6.970   7.476  17.163  0.1036 -0.2106  0.3022
 3097TIP3    H133486   6.942   7.477  17.072  0.1836  0.0926  0.2817
 3097TIP3    H233487   7.040   7.541  17.168  0.8843 -1.0285  0.3317
 3098TIP3   OH233488   7.087   0.406  17.142 -0.0148  0.2828  0.5803
 3098TIP3    H133489   7.179   0.433  17.140 -0.0675  0.4040 -0.1679
 3098TIP3    H233490   7.060   0.402  17.051 -0.5875 -0.3494  0.7637
 3099TIP3   OH233491   7.411   3.544  17.893  0.2948 -0.5187 -0.1037
 3099TIP3    H133492   7.342   3.570  17.831  1.0693 -0.7626 -1.0792
 3099TIP3    H233493   7.476   3.499  17.840  0.5911 -1.4684  1.0343
 3100TIP3   OH233494   5.834   2.682  16.842 -0.1896  0.0832  0.1524
 3100TIP3    H133495   5.751   2.638  16.826  0.1597  0.1473 -2.0765
 3100TIP3    H233496   5.814   2.775  16.836  0.1799  0.0874 -1.3536
 3101TIP3   OH233497   2.787   6.255  17.995  0.0209  0.6164 -0.4483
 3101TIP3    H133498   2.722   6.322  17.979  0.7527  1.2936 -0.6318
 3101TIP3    H233499   2.739   6.172  17.990 -0.7799  1.0974 -0.7335
 3102TIP3   OH233500   0.167   0.675  19.187  0.7496 -0.2827  0.1028
 3102TIP3    H133501   0.115   0.750  19.215  0.2938 -0.2332 -0.8294
 3102TIP3    H233502   0.127   0.600  19.231  0.0699 -0.2036 -0.3615
 3103TIP3   OH233503   5.046   7.108  18.516 -0.0288  0.0884 -0.1017
 3103TIP3    H133504   5.054   7.169  18.443  2.1619 -0.0435 -0.0417
 3103TIP3    H233505   5.027   7.024  18.475 -0.2008  0.2776 -0.4105
 3104TIP3   OH233506   5.778   5.043  17.948 -0.1220 -0.0516  0.1568
 3104TIP3    H133507   5.823   4.980  18.005 -0.6568 -0.8303 -0.2712
 3104TIP3    H233508   5.705   5.075  18.000  0.6052  0.8316  0.6665
 3105TIP3   OH233509   3.552   6.286  18.741 -0.4063 -0.5175 -0.4775
 3105TIP3    H133510   3.496   6.211  18.722  0.7883 -2.2431  2.2311
 3105TIP3    H233511   3.597   6.304  18.658 -0.3355 -3.1570 -1.1052
 3106TIP3   OH233512   2.823   1.223  17.600 -0.3904 -0.7441 -0.1573
 3106TIP3    H133513   2.804   1.267  17.518  0.4542  2.7187  1.3142
 3106TIP3    H233514   2.873   1.145  17.575  1.2740  1.0280 -2.8682
 3107TIP3   OH233515   5.021   5.056  18.491  0.6332 -0.9945 -0.0844
 3107TIP3    H133516   5.017   4.979  18.434 -1.4123 -0.4373 -0.8001
 3107TIP3    H233517   4.949   5.042  18.554  0.5974  0.0526  0.1233
 3108TIP3   OH233518   4.331   5.621  16.901  0.0768 -0.5180 -0.4083
 3108TIP3    H133519   4.413   5.656  16.868  0.3445 -1.1923 -0.4787
 3108TIP3    H233520   4.293   5.692  16.953 -0.6034  0.7630 -2.5403
 3109TIP3   OH233521   5.323   0.542  19.522 -0.0800  0.4681  0.2452
 3109TIP3    H133522   5.282   0.493  19.593 -0.8275 -1.0823 -1.1731
 3109TIP3    H233523   5.266   0.618  19.509 -0.5429  0.1875  0.5930
 3110TIP3   OH233524   6.561   4.309  18.590 -0.0053 -0.1471 -0.7477
 3110TIP3    H133525   6.509   4.275  18.517  0.4624  0.8159 -1.5552
 3110TIP3    H233526   6.538   4.402  18.594  0.1756 -0.1350  0.1740
 3111TIP3   OH233527   1.988   7.479  18.820  0.3587  0.3169 -0.1028
 3111TIP3    H133528   1.969   7.388  18.797 -0.2661  0.6161 -0.8564
 3111TIP3    H233529   2.011   7.520  18.736  1.8781  0.5720  0.4156
 3112TIP3   OH233530   3.438   2.463  18.643 -0.4163  0.1925  0.0941
 3112TIP3    H133531   3.469   2.441  18.731  0.9824  1.3759 -0.0749
 3112TIP3    H233532   3.484   2.402  18.585 -0.3284  0.2955  0.0568
 3113TIP3   OH233533   2.616   3.205  18.702 -0.2546  0.4344 -0.6664
 3113TIP3    H133534   2.654   3.224  18.616  0.6458 -1.6597 -0.7999
 3113TIP3    H233535   2.692   3.194  18.759 -0.6181 -2.3729 -0.5957
 3114TIP3   OH233536   1.804   2.585  18.218  0.3535 -0.6914 -0.4598
 3114TIP3    H133537   1.709   2.576  18.218  0.4769 -2.1806 -0.3033
 3114TIP3    H233538   1.833   2.526  18.149  1.2037 -0.6735 -0.1213
 3115TIP3   OH233539   5.452   1.126  19.517 -0.4663 -0.4628 -0.0124
 3115TIP3    H133540   5.426   1.203  19.568  0.9640 -1.6108  2.6380
 3115TIP3    H233541   5.544   1.142  19.495 -0.6631 -0.6442 -1.0136
 3116TIP3   OH233542   3.149   2.744  19.816 -0.4622  0.2502  0.0919
 3116TIP3    H133543   3.090   2.676  19.782 -0.3616  0.4502 -0.4935
 3116TIP3    H233544   3.205   2.698  19.879 -0.6002 -0.1428 -0.0663
 3117TIP3   OH233545   5.377   4.580  18.566 -0.4010  0.1327 -0.1011
 3117TIP3    H133546   5.433   4.653  18.539  0.4520 -0.4560  0.0202
 3117TIP3    H233547   5.361   4.532  18.485  0.4833 -0.5034  0.0837
 3118TIP3   OH233548   3.220   0.430  18.005  0.6864  0.3989 -0.5129
 3118TIP3    H133549   3.195   0.404  17.916  3.0097 -0.9068 -0.8587
 3118TIP3    H233550   3.252   0.520  17.996 -1.8385  1.3877 -0.3906
 3119TIP3   OH233551   2.635   6.023  18.020 -0.1889 -0.0167 -0.1924
 3119TIP3    H133552   2.595   5.961  18.080 -1.0449 -1.2692 -1.9668
 3119TIP3    H233553   2.563   6.079  17.991 -0.0402 -0.2510 -1.0247
 3120TIP3   OH233554   4.662   4.684  19.055 -0.0741  0.0648  0.5976
 3120TIP3    H133555   4.695   4.685  19.145  0.3558 -0.4551  0.4489
 3120TIP3    H233556   4.568   4.700  19.064  0.1279  1.1101  1.0626
 3121TIP3   OH233557   2.552   7.107  17.462  0.3007 -0.3627  0.2963
 3121TIP3    H133558   2.592   7.053  17.530  0.4753  0.1925  0.6466
 3121TIP3    H233559   2.459   7.107  17.484  0.2924 -0.5748  0.2597
 3122TIP3   OH233560   7.152   1.366  19.543  0.3539 -0.2078  0.5650
 3122TIP3    H133561   7.119   1.419  19.616  1.0234 -1.1067  1.5656
 3122TIP3    H233562   7.121   1.411  19.465 -1.8925 -0.1640  1.4020
 3123TIP3   OH233563   5.183   4.532  18.072  0.2727 -0.6469 -0.7254
 3123TIP3    H133564   5.108   4.585  18.101 -0.7735 -2.4360 -0.0320
 3123TIP3    H233565   5.149   4.480  18.000 -0.2152 -3.8658  1.6296
 3124TIP3   OH233566   2.408   3.268  18.862 -0.3674 -0.0055  0.4111
 3124TIP3    H133567   2.486   3.247  18.810 -0.4771  0.5241  0.0242
 3124TIP3    H233568   2.373   3.183  18.888 -0.1625 -0.2716 -0.1658
 3125TIP3   OH233569   6.337   4.229  17.229 -0.2453 -0.1085 -0.1022
 3125TIP3    H133570   6.334   4.234  17.134  0.6326  0.6766 -0.1031
 3125TIP3    H233571   6.250   4.197  17.254 -1.5077  2.3274 -1.0293
 3126TIP3   OH233572   2.874   0.836  17.847  0.3470  0.5621  0.5504
 3126TIP3    H133573   2.959   0.879  17.856 -0.1169  1.4976  0.5357
 3126TIP3    H233574   2.888   0.747  17.880  1.6468  0.3140 -0.6121
 3127TIP3   OH233575   0.637   2.844  18.704  0.0518 -0.2406  0.0100
 3127TIP3    H133576   0.614   2.772  18.762 -0.3985 -0.0564  0.0645
 3127TIP3    H233577   0.596   2.921  18.743 -0.5340 -0.1697 -0.7203
 3128TIP3   OH233578   3.977   5.050  18.931  0.8579  0.2495  0.6269
 3128TIP3    H133579   4.057   4.999  18.945  1.2761  0.7685  0.1775
 3128TIP3    H233580   3.906   4.989  18.950  1.3658 -0.0304  1.6759
 3129TIP3   OH233581   2.370   5.850  19.104 -0.1398 -0.1190 -0.3057
 3129TIP3    H133582   2.340   5.776  19.157  1.3278 -0.6533 -0.1732
 3129TIP3    H233583   2.328   5.837  19.019 -0.4957 -0.6693 -0.0536
 3130TIP3   OH233584   4.635   4.229  18.825  0.1768  0.2074  0.1609
 3130TIP3    H133585   4.586   4.265  18.751  0.1964 -0.5839 -0.2445
 3130TIP3    H233586   4.727   4.240  18.802  0.1831 -0.0485  0.0663
 3131TIP3   OH233587   5.144   1.648  18.286  0.2215  0.3625  0.1841
 3131TIP3    H133588   5.092   1.574  18.317  0.0479  0.6783  0.6618
 3131TIP3    H233589   5.233   1.612  18.277  0.4171  0.4123  1.6984
 3132TIP3   OH233590   1.726   2.948  18.763  0.3311 -0.0719  0.1161
 3132TIP3    H133591   1.784   2.895  18.709  0.4416  1.1492 -1.0274
 3132TIP3    H233592   1.661   2.982  18.701 -1.4900 -1.2014  1.3144
 3133TIP3   OH233593   4.049   7.101  19.532 -0.6819 -0.3372  0.1683
 3133TIP3    H133594   4.144   7.101  19.547 -0.4807 -0.8780 -0.9703
 3133TIP3    H233595   4.024   7.009  19.537 -1.0632 -0.2419  0.0257
 3134TIP3   OH233596   2.861   5.802  18.629 -0.2187 -0.3694 -0.7466
 3134TIP3    H133597   2.799   5.730  18.643  0.0681 -0.3068  1.2040
 3134TIP3    H233598   2.826   5.873  18.683  0.0423  0.6474 -1.8800
 3135TIP3   OH233599   5.838   6.438  18.948  0.2523 -0.0256  0.4296
 3135TIP3    H133600   5.875   6.398  18.869 -0.7104  0.7192 -0.4208
 3135TIP3    H233601   5.773   6.375  18.979  1.9460 -1.2108  1.7708
 3136TIP3   OH233602   2.754   3.295  18.025 -0.3134 -0.0839 -0.2408
 3136TIP3    H133603   2.847   3.312  18.011 -0.6006  1.3489 -0.5982
 3136TIP3    H233604   2.743   3.202  18.003  0.7509  0.1109 -1.7981
 3137TIP3   OH233605   0.996   6.293  18.680 -0.0656 -0.1333 -0.2637
 3137TIP3    H133606   1.051   6.220  18.655  0.5298 -0.3451  1.4929
 3137TIP3    H233607   0.942   6.259  18.752  2.1321  1.7633  2.5235
 3138TIP3   OH233608   4.618   5.775  18.629 -0.3406  0.1809  0.2247
 3138TIP3    H133609   4.622   5.711  18.558  0.1985 -0.1769  0.5746
 3138TIP3    H233610   4.658   5.731  18.704 -0.0742  0.8831  0.5039
 3139TIP3   OH233611   0.865   3.614  19.082 -0.0362 -0.2676 -0.3984
 3139TIP3    H133612   0.810   3.623  19.005 -2.3889 -0.0539  1.2031
 3139TIP3    H233613   0.839   3.531  19.122 -0.4046  0.6019  1.2599
 3140TIP3   OH233614   5.405   3.266  18.860 -0.3305  0.0857 -0.7621
 3140TIP3    H133615   5.478   3.278  18.799 -0.1967  0.7132 -0.4829
 3140TIP3    H233616   5.446   3.238  18.942 -0.2271  1.9660 -0.1279
 3141TIP3   OH233617   3.512   6.898  17.634 -0.6207 -0.1876 -0.3885
 3141TIP3    H133618   3.574   6.829  17.659 -0.8598 -0.9314 -1.7539
 3141TIP3    H233619   3.515   6.960  17.707  0.2474 -1.2015  0.4829
 3142TIP3   OH233620   6.551   6.078  18.331 -0.4207 -0.0865  0.3323
 3142TIP3    H133621   6.482   6.087  18.265 -0.0731 -1.4124 -0.2449
 3142TIP3    H233622   6.507   6.035  18.405 -0.0025 -1.9844 -0.4672
 3143TIP3   OH233623   4.983   0.967  18.561  0.5490 -0.6199 -0.2485
 3143TIP3    H133624   5.072   1.004  18.561  0.8258 -1.2294  0.6128
 3143TIP3    H233625   4.935   1.021  18.623  1.1335 -2.0250  1.5297
 3144TIP3   OH233626   3.213   1.198  17.872 -0.1105  0.0587 -0.1975
 3144TIP3    H133627   3.222   1.249  17.792  1.0446  0.3933  0.1142
 3144TIP3    H233628   3.193   1.262  17.939 -1.3678 -0.2566 -0.2536
 3145TIP3   OH233629   5.206   0.122  18.701 -0.0587 -0.0096  0.1630
 3145TIP3    H133630   5.206   0.028  18.718  0.2846 -0.0078  0.1728
 3145TIP3    H233631   5.291   0.139  18.660 -0.1943  0.2652 -0.0068
 3146TIP3   OH233632   4.320   7.615  17.108  0.0900 -0.0346  0.2079
 3146TIP3    H133633   4.359   7.610  17.195  0.8983 -1.2746 -0.1937
 3146TIP3    H233634   4.333   7.527  17.071 -1.5891  0.0147 -0.5923
 3147TIP3   OH233635   4.754   3.102  18.934 -0.2284 -0.2820 -0.0252
 3147TIP3    H133636   4.711   3.113  19.019  1.0160 -0.5032  0.6612
 3147TIP3    H233637   4.742   3.187  18.890  1.2587  0.7525  1.4223
 3148TIP3   OH233638   3.714   2.516  19.193  0.5091  0.2303  1.2958
 3148TIP3    H133639   3.723   2.425  19.219 -1.2655 -1.1453 -2.2047
 3148TIP3    H233640   3.626   2.541  19.223  0.5312  0.3992  1.2228
 3149TIP3   OH233641   1.223   4.442  18.582  0.3167  0.4300 -0.2588
 3149TIP3    H133642   1.187   4.392  18.509 -0.6507  0.9405 -0.1410
 3149TIP3    H233643   1.312   4.408  18.592  0.0026 -0.5998 -0.7885
 3150TIP3   OH233644   5.190   0.354  17.933  0.7993 -0.1600  0.0559
 3150TIP3    H133645   5.108   0.377  17.888  0.6124 -1.2613 -0.2035
 3150TIP3    H233646   5.258   0.400  17.883  0.6840 -1.9280 -1.9004
 3151TIP3   OH233647   5.474   4.214  16.661  0.8660  0.0517  0.0451
 3151TIP3    H133648   5.502   4.122  16.658  0.9699  0.0468  0.9264
 3151TIP3    H233649   5.380   4.211  16.643  0.7398 -0.3007  0.7468
 3152TIP3   OH233650   1.956   6.490  18.955  0.4065 -0.3801 -0.3585
 3152TIP3    H133651   1.885   6.450  19.004  0.9693  0.7718  1.4866
 3152TIP3    H233652   1.978   6.569  19.003  2.0488  0.0064 -1.6237
 3153TIP3   OH233653   6.862   3.447  17.084 -0.4660 -0.0831  0.3248
 3153TIP3    H133654   6.772   3.456  17.115 -0.3465  1.9848  0.1560
 3153TIP3    H233655   6.864   3.360  17.043 -1.7365 -1.1477  2.3302
 3154TIP3   OH233656   4.625   2.233  18.966  0.0512  0.2684  0.4429
 3154TIP3    H133657   4.662   2.288  19.035  1.3378  1.3379 -1.0107
 3154TIP3    H233658   4.670   2.261  18.886 -0.9457 -1.3194 -0.7533
 3155TIP3   OH233659   6.226   6.254  18.755 -0.6096 -0.2418  0.4649
 3155TIP3    H133660   6.201   6.186  18.817 -0.8514  0.1387  0.7873
 3155TIP3    H233661   6.143   6.289  18.721 -0.4880 -0.1155  0.2895
 3156TIP3   OH233662   7.611   1.240  18.693 -0.2666  0.1634  0.6657
 3156TIP3    H133663   7.529   1.210  18.653 -0.4383  2.0933 -0.5470
 3156TIP3    H233664   7.679   1.215  18.631 -0.3966  2.0515 -0.2831
 3157TIP3   OH233665   4.631   0.949  18.902 -0.0980  0.1454 -0.2279
 3157TIP3    H133666   4.653   0.894  18.977 -0.7120  0.3559  0.1133
 3157TIP3    H233667   4.690   1.024  18.909  0.0156  0.0445 -0.0979
 3158TIP3   OH233668   1.576   5.208  17.500  0.9058  0.0722  0.2675
 3158TIP3    H133669   1.621   5.162  17.429 -1.5790 -2.0958 -0.0344
 3158TIP3    H233670   1.575   5.145  17.572 -1.5163 -0.0041  0.2554
 3159TIP3   OH233671   4.880   7.097  19.382 -0.1362 -0.6717  0.2565
 3159TIP3    H133672   4.933   7.168  19.346 -1.5738  1.3109  1.8169
 3159TIP3    H233673   4.915   7.082  19.470  0.2108 -1.9959 -0.0853
 3160TIP3   OH233674   1.850   6.112  17.298 -0.1974  0.4772 -0.4615
 3160TIP3    H133675   1.826   6.183  17.237 -0.6809  0.3556 -0.4150
 3160TIP3    H233676   1.807   6.035  17.262  0.2540  0.2231 -0.4577
 3161TIP3   OH233677   2.627   1.351  18.225 -0.5666  0.1676  0.2861
 3161TIP3    H133678   2.623   1.402  18.306  0.0164 -1.7464  1.5599
 3161TIP3    H233679   2.603   1.262  18.250 -1.6485 -0.2438 -1.8987
 3162TIP3   OH233680   2.530   2.190  17.515 -0.0778 -0.3510 -0.0352
 3162TIP3    H133681   2.443   2.167  17.547 -0.7058  0.3806 -1.1450
 3162TIP3    H233682   2.580   2.109  17.520 -1.3041 -1.1903 -0.9110
 3163TIP3   OH233683   3.703   7.136  18.011 -0.2673  0.2056 -0.2425
 3163TIP3    H133684   3.616   7.098  18.001 -0.9351  1.5346  0.3706
 3163TIP3    H233685   3.705   7.209  17.950  1.0021 -0.7174 -1.3861
 3164TIP3   OH233686   7.218   6.176  17.151  0.7399 -0.3031  0.5787
 3164TIP3    H133687   7.311   6.151  17.147  0.2983 -2.1769  0.8602
 3164TIP3    H233688   7.183   6.151  17.066  0.1508 -1.2547  1.0786
 3165TIP3   OH233689   0.945   1.347  17.479  0.2035  0.0356 -0.4218
 3165TIP3    H133690   0.930   1.442  17.481 -1.5313 -0.2175  0.6707
 3165TIP3    H233691   0.947   1.322  17.571 -0.4574 -1.1535 -0.7198
 3166TIP3   OH233692   3.905   7.503  18.399  0.4992 -0.5258  0.0657
 3166TIP3    H133693   3.929   7.437  18.334  1.5076  0.2206 -0.3496
 3166TIP3    H233694   3.820   7.536  18.369  1.0337 -0.0604 -0.9978
 3167TIP3   OH233695   7.039   0.594  18.896  0.2634 -0.2005  0.0663
 3167TIP3    H133696   7.109   0.659  18.890  0.3816 -0.4160 -0.9893
 3167TIP3    H233697   6.963   0.644  18.928  0.6317  0.2354  0.2732
 3168TIP3   OH233698   4.357   7.289  18.816  0.5139 -0.0088 -0.2160
 3168TIP3    H133699   4.301   7.245  18.879 -0.1504  0.6581 -0.3310
 3168TIP3    H233700   4.427   7.226  18.798  0.3087 -0.4872  0.6213
 3169TIP3   OH233701   6.935   3.922  19.259  0.1667  0.3567  0.6329
 3169TIP3    H133702   6.941   3.898  19.352 -0.4021 -0.1759  0.5415
 3169TIP3    H233703   6.904   4.012  19.260 -2.0311 -0.3454  0.9647
 3170TIP3   OH233704   0.142   3.655  18.549  0.1959 -0.1907  0.3017
 3170TIP3    H133705   0.081   3.638  18.477 -0.4325  1.3236  0.4370
 3170TIP3    H233706   0.217   3.698  18.508  0.4011 -0.4835  0.3709
 3171TIP3   OH233707   7.500   4.921  17.482 -0.1132 -0.1016 -0.2455
 3171TIP3    H133708   7.591   4.895  17.468 -0.7745 -3.8106  1.2543
 3171TIP3    H233709   7.500   4.965  17.567  0.1297 -1.3467  0.4163
 3172TIP3   OH233710   4.540   6.925  17.331 -0.9997  0.5977 -0.4254
 3172TIP3    H133711   4.601   6.956  17.264  0.7120  1.8037  1.5753
 3172TIP3    H233712   4.460   6.905  17.283 -0.1764  2.3158 -2.6841
 3173TIP3   OH233713   0.080   7.300  17.437  0.2151 -0.3452  0.6179
 3173TIP3    H133714   0.025   7.374  17.413  2.1986  0.6851 -1.0923
 3173TIP3    H233715   0.092   7.252  17.355  2.8103  0.1697  0.6220
 3174TIP3   OH233716   7.485   7.622  19.104 -0.4077  0.2976  0.0245
 3174TIP3    H133717   7.452   7.672  19.030  0.9663  0.8526 -0.2438
 3174TIP3    H233718   7.580   7.635  19.102 -0.1250 -1.3279  0.6726
 3175TIP3   OH233719   5.851   5.294  17.897 -0.4174 -0.7872  0.3481
 3175TIP3    H133720   5.762   5.302  17.864  0.5430  0.5676 -2.1322
 3175TIP3    H233721   5.871   5.200  17.890 -0.8250 -0.7734 -1.5447
 3176TIP3   OH233722   2.331   3.393  19.281 -0.6278 -0.1008  0.0434
 3176TIP3    H133723   2.265   3.418  19.346  0.4432  1.6169  0.5414
 3176TIP3    H233724   2.389   3.332  19.327  0.3735  1.4353  0.9053
 3177TIP3   OH233725   3.970   6.830  17.711 -0.1931  0.2260 -0.3375
 3177TIP3    H133726   3.983   6.838  17.617 -1.8034 -0.3336 -0.6397
 3177TIP3    H233727   3.933   6.915  17.737  1.8154  1.0274  0.1442
 3178TIP3   OH233728   1.040   1.302  18.370  0.5715  0.5598  0.6359
 3178TIP3    H133729   1.031   1.388  18.329 -1.3853 -0.3035 -0.8533
 3178TIP3    H233730   1.085   1.249  18.305  0.4842  0.0702  0.9700
 3179TIP3   OH233731   1.396   5.850  18.167 -0.0686 -0.7409  0.4728
 3179TIP3    H133732   1.420   5.761  18.143  1.4041 -0.9692  2.5565
 3179TIP3    H233733   1.479   5.897  18.174 -0.7955  0.7694 -0.3252
 3180TIP3   OH233734   4.973   7.300  18.280 -0.5704  0.0149  0.6647
 3180TIP3    H133735   5.010   7.230  18.226 -0.5737  0.2596  0.3428
 3180TIP3    H233736   5.046   7.358  18.298 -0.5583 -0.0962  0.9714
 3181TIP3   OH233737   2.816   7.470  17.844 -0.0691  0.1006  0.1357
 3181TIP3    H133738   2.830   7.428  17.759 -0.3785  0.4694 -0.0986
 3181TIP3    H233739   2.897   7.453  17.892 -0.2294 -0.8363  0.0782
 3182TIP3   OH233740   3.029   1.399  17.428 -0.2433  0.1139  0.4241
 3182TIP3    H133741   2.966   1.413  17.357 -0.6476  1.7203  1.0713
 3182TIP3    H233742   3.068   1.314  17.408 -0.2433  0.5738 -1.8215
 3183TIP3   OH233743   6.785   1.018  19.143 -0.1678  0.6751  0.2964
 3183TIP3    H133744   6.772   0.939  19.090 -0.9161  0.9727  0.0207
 3183TIP3    H233745   6.706   1.070  19.128  0.3854  1.5529  0.3447
 3184TIP3   OH233746   3.466   7.080  17.846 -0.1955  0.0148 -0.2198
 3184TIP3    H133747   3.459   7.168  17.811 -0.8232 -0.9194 -2.6090
 3184TIP3    H233748   3.404   7.078  17.919  0.2865  1.6893  0.2743
 3185TIP3   OH233749   0.146   4.746  19.182  0.2416  0.1489  0.2166
 3185TIP3    H133750   0.064   4.697  19.180 -0.4380  1.1458  1.9587
 3185TIP3    H233751   0.135   4.810  19.251  1.0420  2.8671 -1.9796
 3186TIP3   OH233752   2.610   0.111  18.958 -0.1652  0.0302  0.0347
 3186TIP3    H133753   2.606   0.147  19.047 -0.7038 -2.4433  1.0976
 3186TIP3    H233754   2.546   0.161  18.909  0.5675  1.8567  0.8445
 3187TIP3   OH233755   1.980   3.640  18.160 -0.3190 -0.2162  0.4989
 3187TIP3    H133756   2.006   3.560  18.206 -1.6414 -1.1539 -0.3129
 3187TIP3    H233757   2.037   3.708  18.196  1.8073 -1.7593  0.2545
 3188TIP3   OH233758   7.564   1.560  17.590  0.4576  0.1173 -0.5364
 3188TIP3    H133759   7.553   1.626  17.658  0.6388 -0.0727 -0.3172
 3188TIP3    H233760   7.561   1.609  17.508  0.4307  0.3755 -0.3826
 3189TIP3   OH233761   6.388   2.027  18.794  0.2852 -0.3037  0.4956
 3189TIP3    H133762   6.476   2.064  18.786  1.0375 -1.6420  2.0570
 3189TIP3    H233763   6.352   2.068  18.873 -0.1340 -0.4718  0.3956
 3190TIP3   OH233764   7.317   3.608  18.765 -0.1371  0.0203  0.2732
 3190TIP3    H133765   7.386   3.666  18.797  0.2366 -0.8114  1.0191
 3190TIP3    H233766   7.362   3.546  18.708 -0.3191 -0.2964  0.4655
 3191TIP3   OH233767   3.695   7.269  19.242  0.2089  0.6496  0.6039
 3191TIP3    H133768   3.731   7.310  19.163  0.9206 -0.6718  0.2101
 3191TIP3    H233769   3.770   7.255  19.299  0.1680 -0.9622  0.3160
 3192TIP3   OH233770   5.052   3.075  18.563  0.0836  0.2150 -0.5820
 3192TIP3    H133771   5.053   3.069  18.659 -1.3490 -1.3964 -0.6167
 3192TIP3    H233772   5.006   3.157  18.545 -1.2701 -0.3608  0.1379
 3193TIP3   OH233773   1.702   5.631  18.576  0.4757  0.6213 -0.5865
 3193TIP3    H133774   1.675   5.723  18.573 -0.4886  0.3437 -0.6610
 3193TIP3    H233775   1.735   5.619  18.665 -1.9142  0.3692  0.3308
 3194TIP3   OH233776   1.458   1.949  18.066  0.0854  0.1312 -0.4189
 3194TIP3    H133777   1.374   1.904  18.069  1.1678 -1.9511  1.3215
 3194TIP3    H233778   1.516   1.888  18.019  0.9937  0.8037 -0.2070
 3195TIP3   OH233779   3.227   3.904  19.237 -0.6333 -0.4537 -0.3187
 3195TIP3    H133780   3.245   3.857  19.156 -0.5334  0.8394 -1.0844
 3195TIP3    H233781   3.223   3.996  19.210 -1.2822 -0.0666  1.0374
 3196TIP3   OH233782   2.501   5.072  18.442 -0.0302 -0.0830 -0.0247
 3196TIP3    H133783   2.523   5.102  18.354  1.1048  1.2654  0.6802
 3196TIP3    H233784   2.535   4.983  18.447 -0.9516 -0.5252 -1.2453
 3197TIP3   OH233785   0.561   2.307  17.771  0.1123 -0.2474  0.0441
 3197TIP3    H133786   0.495   2.238  17.772  0.8754 -0.9903  0.4925
 3197TIP3    H233787   0.641   2.264  17.743  0.1061  0.9731 -2.0988
 3198TIP3   OH233788   2.797   7.213  17.275 -0.2087 -0.3533  0.0151
 3198TIP3    H133789   2.817   7.307  17.273 -0.3685 -0.2732  1.2123
 3198TIP3    H233790   2.882   7.172  17.292 -0.4086 -0.2777  1.3167
 3199TIP3   OH233791   5.631   6.104  18.644 -0.6123 -0.1907  0.7601
 3199TIP3    H133792   5.602   6.194  18.660  0.0728  0.0845  0.4693
 3199TIP3    H233793   5.671   6.076  18.726  1.3775  0.6328  0.1157
 3200TIP3   OH233794   2.141   0.715  17.577 -0.1146 -0.1876  0.1252
 3200TIP3    H133795   2.135   0.749  17.488  2.2894  0.6528  0.2196
 3200TIP3    H233796   2.108   0.625  17.571  1.2799 -0.6328 -1.9631
 3201TIP3   OH233797   0.256   5.601  18.293  0.2731 -0.5717 -0.5971
 3201TIP3    H133798   0.182   5.661  18.291  1.3878  0.9583  0.8349
 3201TIP3    H233799   0.319   5.637  18.230  1.6785  0.8703  1.5215
 3202TIP3   OH233800   5.844   3.385  17.752 -0.2398  0.3057 -0.1727
 3202TIP3    H133801   5.802   3.356  17.670 -0.1647 -0.6789  0.1272
 3202TIP3    H233802   5.937   3.373  17.736 -0.2694 -0.7288  0.3557
 3203TIP3   OH233803   3.064   1.415  16.917  0.0071 -0.1579  0.1772
 3203TIP3    H133804   3.069   1.505  16.947 -2.1167  0.0244  0.1488
 3203TIP3    H233805   3.097   1.363  16.990  1.2852  0.6330  0.1781
 3204TIP3   OH233806   5.848   2.288  19.022 -0.3485  0.0041  0.0798
 3204TIP3    H133807   5.864   2.368  18.971 -0.1915  0.2488  0.5077
 3204TIP3    H233808   5.791   2.235  18.966 -1.4439  0.9287  0.2812
 3205TIP3   OH233809   0.364   2.491  18.334 -0.0322 -0.3674 -0.4357
 3205TIP3    H133810   0.380   2.460  18.245 -1.4883  1.8346 -1.5598
 3205TIP3    H233811   0.430   2.558  18.349 -0.7811  0.4213 -0.5360
 3206TIP3   OH233812   3.980   0.291  17.828  0.2680  0.1233 -0.7450
 3206TIP3    H133813   4.045   0.246  17.774  0.0280 -0.0473 -0.8956
 3206TIP3    H233814   3.903   0.233  17.827  0.6301 -0.4213  0.6699
 3207TIP3   OH233815   5.471   7.468  18.512 -0.6827  0.3436 -0.4390
 3207TIP3    H133816   5.410   7.400  18.542  0.7915 -0.8581 -0.0608
 3207TIP3    H233817   5.444   7.485  18.422  1.0510 -3.4166 -1.8821
 3208TIP3   OH233818   4.063   2.996  18.520 -0.1574 -0.1399 -0.3142
 3208TIP3    H133819   4.049   2.907  18.551  0.1904 -1.2921 -3.1652
 3208TIP3    H233820   4.151   2.996  18.483 -0.1472  1.3899 -0.3786
 3209TIP3   OH233821   5.208   2.503  17.468  0.0087 -0.7485 -0.3023
 3209TIP3    H133822   5.149   2.432  17.493  0.9180 -1.4431 -0.1173
 3209TIP3    H233823   5.218   2.494  17.373  0.0650 -0.8143 -0.2893
 3210TIP3   OH233824   7.383   1.420  19.013  0.0187  0.0527 -0.2437
 3210TIP3    H133825   7.434   1.350  19.052  0.0179  0.3929  0.3880
 3210TIP3    H233826   7.347   1.383  18.932 -2.2133 -1.5805  1.3827
 3211TIP3   OH233827   3.125   7.316  17.462 -0.4749  0.4475  0.2184
 3211TIP3    H133828   3.197   7.350  17.515  0.6588 -0.6618 -0.5341
 3211TIP3    H233829   3.048   7.322  17.518  0.6937 -0.7713  2.0643
 3212TIP3   OH233830   2.979   4.598  17.675 -0.6770 -0.0697  0.7864
 3212TIP3    H133831   2.989   4.644  17.759  0.8379  1.2047 -0.0616
 3212TIP3    H233832   3.009   4.509  17.694  3.3987  1.1111  0.7927
 3213TIP3   OH233833   0.649   5.073  17.958  0.1452  0.4253 -0.2367
 3213TIP3    H133834   0.685   5.069  18.047  0.1328 -0.1397 -0.2510
 3213TIP3    H233835   0.687   5.152  17.920  0.1465  0.6733  0.2761
 3214TIP3   OH233836   1.504   5.594  18.892 -0.3762 -0.3447 -0.2355
 3214TIP3    H133837   1.439   5.574  18.959 -0.8294 -0.1157 -0.6035
 3214TIP3    H233838   1.480   5.682  18.860 -0.0319 -0.3562 -0.5378
 3215TIP3   OH233839   4.034   3.817  17.408 -0.0620 -0.3291 -0.2025
 3215TIP3    H133840   3.942   3.799  17.387 -0.4930  0.3725  1.0252
 3215TIP3    H233841   4.032   3.894  17.464  1.3650  0.3049 -0.9599
 3216TIP3   OH233842   3.451   3.126  17.666  0.0020  0.2063 -0.1043
 3216TIP3    H133843   3.545   3.106  17.666 -0.1914 -1.0231  1.8617
 3216TIP3    H233844   3.435   3.168  17.582  2.3423  0.5994 -0.4210
 3217TIP3   OH233845   4.952   3.635  18.993 -0.2397  0.2532  0.4016
 3217TIP3    H133846   5.010   3.666  19.062 -0.6037 -0.3681  0.9995
 3217TIP3    H233847   4.984   3.678  18.914 -0.5000  1.8364  1.1228
 3218TIP3   OH233848   3.503   7.299  17.626 -0.0996  0.3292 -0.6923
 3218TIP3    H133849   3.412   7.324  17.634  0.1729  0.9605  0.5636
 3218TIP3    H233850   3.515   7.281  17.532 -2.0957 -2.1837 -0.5662
 3219TIP3   OH233851   6.687   1.277  18.833 -0.7031 -0.0695 -0.4036
 3219TIP3    H133852   6.697   1.281  18.738  0.0101  1.0853 -0.3052
 3219TIP3    H233853   6.737   1.352  18.865  0.1826 -1.1953  0.9775
 3220TIP3   OH233854   5.981   1.542  16.937 -0.0940 -0.1948 -0.7229
 3220TIP3    H133855   5.902   1.526  16.886 -1.1544  3.0358 -0.3361
 3220TIP3    H233856   6.052   1.538  16.873 -0.8027 -1.1004 -1.4798
 3221TIP3   OH233857   5.166   1.559  19.430  0.2443 -0.3607  0.3431
 3221TIP3    H133858   5.116   1.632  19.393  0.2312  0.7063  2.3205
 3221TIP3    H233859   5.113   1.482  19.411 -1.8627  0.6436  1.6988
 3222TIP3   OH233860   1.106   3.159  17.776  1.0268 -0.6155  0.1655
 3222TIP3    H133861   1.052   3.093  17.733  1.9808 -1.6505  0.4958
 3222TIP3    H233862   1.051   3.194  17.846  0.9901 -2.1543  0.9410
 3223TIP3   OH233863   2.865   3.726  18.570  0.2869  0.0661 -0.3208
 3223TIP3    H133864   2.904   3.646  18.534  0.0696  0.1941 -0.8452
 3223TIP3    H233865   2.773   3.703  18.583  0.4235 -0.0814  0.4652
 3224TIP3   OH233866   3.739   6.703  17.647  0.0058  0.4998  0.0189
 3224TIP3    H133867   3.750   6.609  17.632 -1.6582  0.3031 -0.1726
 3224TIP3    H233868   3.814   6.728  17.700  0.0502 -1.1087  0.7586
 3225TIP3   OH233869   5.612   1.567  17.061 -0.2854  0.1746 -0.3128
 3225TIP3    H133870   5.517   1.573  17.072 -0.3600  1.5022 -1.3967
 3225TIP3    H233871   5.647   1.636  17.117  0.0333 -0.2062 -0.0409
 3226TIP3   OH233872   1.023   3.799  18.010  0.2374 -0.0086  0.0446
 3226TIP3    H133873   0.964   3.824  17.939  0.4608  2.9111  0.7544
 3226TIP3    H233874   1.086   3.871  18.016  1.8017 -1.3900  1.5404
 3227TIP3   OH233875   4.043   0.842  17.698  0.5275  0.7417 -0.0412
 3227TIP3    H133876   4.028   0.911  17.762 -1.0601  0.4774 -0.0768
 3227TIP3    H233877   4.017   0.880  17.614 -1.9048 -0.3245  0.1458
 3228TIP3   OH233878   5.723   0.964  17.730  0.5396  0.1231 -0.5315
 3228TIP3    H133879   5.674   1.046  17.740 -0.4829 -0.4271 -0.9376
 3228TIP3    H233880   5.798   0.988  17.676  0.1491  0.7629 -0.7992
 3229TIP3   OH233881   2.380   7.548  18.779  0.5869 -0.1703  0.0099
 3229TIP3    H133882   2.415   7.544  18.868 -0.2716 -0.8462  0.3325
 3229TIP3    H233883   2.347   7.637  18.770  1.8690  0.3107 -0.1092
 3230TIP3   OH233884   3.334   3.390  18.357  0.7086  0.3759  0.4339
 3230TIP3    H133885   3.317   3.339  18.278  0.9874 -2.6350  2.1862
 3230TIP3    H233886   3.427   3.409  18.354  0.5728  0.9649 -0.3097
 3231TIP3   OH233887   5.010   6.865  18.384  0.2656 -0.6121 -0.3450
 3231TIP3    H133888   5.044   6.892  18.299 -0.6610  1.1519 -0.1975
 3231TIP3    H233889   5.044   6.776  18.396  3.6976  0.5081 -0.7530
 3232TIP3   OH233890   4.603   7.328  17.956  0.4826  0.1025  0.0034
 3232TIP3    H133891   4.517   7.365  17.979  0.5348 -1.1159  2.4120
 3232TIP3    H233892   4.662   7.403  17.959 -0.1201  0.5717  0.5737
 3233TIP3   OH233893   2.764   1.096  18.758 -0.2572  0.5292  0.4453
 3233TIP3    H133894   2.811   1.047  18.689  1.9462  2.3248  0.5597
 3233TIP3    H233895   2.744   1.180  18.718 -2.3145  0.2978  0.8690
 3234TIP3   OH233896   0.496   1.580  19.333  0.0910 -0.2622 -0.5788
 3234TIP3    H133897   0.545   1.588  19.415  0.7674 -0.0871 -0.9865
 3234TIP3    H233898   0.540   1.640  19.273 -0.6548 -0.0823 -0.9532
 3235TIP3   OH233899   0.412   0.593  19.223 -0.0279  0.3320  0.3719
 3235TIP3    H133900   0.325   0.619  19.193 -0.7851 -1.7527  0.6063
 3235TIP3    H233901   0.409   0.498  19.226  2.1342  0.2229  0.8347
 3236TIP3   OH233902   2.966   0.387  17.733 -0.1555  0.3010  0.1664
 3236TIP3    H133903   3.057   0.358  17.731 -0.4711 -0.7087  0.2305
 3236TIP3    H233904   2.964   0.463  17.674  0.8457  0.6955  0.6262
 3237TIP3   OH233905   7.090   0.329  18.434  0.0883 -0.2641  0.0346
 3237TIP3    H133906   7.026   0.373  18.378  0.7723 -0.5080 -0.9706
 3237TIP3    H233907   7.126   0.398  18.489 -0.5286 -0.0063  0.1274
 3238TIP3   OH233908   3.528   3.712  18.537 -0.2903  0.1214  0.4319
 3238TIP3    H133909   3.466   3.691  18.606 -3.0698 -0.3187 -1.9883
 3238TIP3    H233910   3.506   3.801  18.511 -1.1172 -0.6116 -1.5549
 3239TIP3   OH233911   2.087   4.481  19.203  0.4726 -0.0069  0.4306
 3239TIP3    H133912   2.062   4.572  19.220  0.5814  0.4457 -1.5921
 3239TIP3    H233913   2.026   4.451  19.135  0.9760 -1.1781  0.4664
 3240TIP3   OH233914   0.330   5.582  18.566  0.0379 -0.1014 -0.3671
 3240TIP3    H133915   0.289   5.569  18.481  0.8091 -1.0677 -0.6184
 3240TIP3    H233916   0.383   5.503  18.579  1.7519  1.0398 -0.0380
 3241TIP3   OH233917   0.363   3.120  18.311 -0.0470  0.3075 -0.0028
 3241TIP3    H133918   0.419   3.063  18.364 -1.1472 -1.7266 -0.9201
 3241TIP3    H233919   0.315   3.173  18.375  0.8848  0.1136  0.8844
 3242TIP3   OH233920   4.057   1.299  16.899  0.0303 -0.2494  0.4962
 3242TIP3    H133921   3.983   1.285  16.841  0.1670 -0.9729  0.4775
 3242TIP3    H233922   4.060   1.220  16.954  0.5333 -0.0482  0.7721
 3243TIP3   OH233923   7.087   0.970  19.312  0.1039  0.1510  0.1703
 3243TIP3    H133924   7.147   0.962  19.386 -0.0294  0.7260  0.3430
 3243TIP3    H233925   7.013   0.915  19.336  0.5179 -0.4973 -0.0081
 3244TIP3   OH233926   6.317   3.604  17.468  0.4382 -0.6781 -0.7046
 3244TIP3    H133927   6.355   3.692  17.465 -1.0937  0.0577  0.0390
 3244TIP3    H233928   6.378   3.553  17.521  0.0290  0.6784  1.1931
 3245TIP3   OH233929   2.257   2.240  16.716  0.7686  0.2962 -0.0346
 3245TIP3    H133930   2.232   2.155  16.752 -1.4260  1.0919  0.4637
 3245TIP3    H233931   2.351   2.247  16.735  0.8408 -1.6829  0.5554
 3246TIP3   OH233932   4.240   6.012  19.243 -0.1804 -0.3691 -0.2354
 3246TIP3    H133933   4.314   5.958  19.271 -0.9035 -0.8878  0.7351
 3246TIP3    H233934   4.213   5.974  19.159  1.1573  0.3535 -1.0223
 3247TIP3   OH233935   1.738   6.233  19.561  0.2103 -0.7122  0.4851
 3247TIP3    H133936   1.733   6.236  19.657  1.3158  0.9763  0.5523
 3247TIP3    H233937   1.830   6.210  19.543  0.1475 -0.4969 -0.1450
 3248TIP3   OH233938   5.910   3.800  16.915  0.6215  0.2805 -0.2197
 3248TIP3    H133939   5.893   3.707  16.931  0.6485  0.3832  0.4627
 3248TIP3    H233940   5.999   3.803  16.882  1.0534  0.1489  0.8714
 3249TIP3   OH233941   6.539   4.106  17.360  0.2187  0.3882 -0.0663
 3249TIP3    H133942   6.602   4.086  17.291 -1.1912  1.0645 -1.5938
 3249TIP3    H233943   6.465   4.146  17.315 -1.8341 -1.3998  1.4930
 3250TIP3   OH233944   4.373   3.948  19.173  0.1689  0.0513  0.5904
 3250TIP3    H133945   4.398   3.861  19.141  0.1629  0.5344 -0.8257
 3250TIP3    H233946   4.322   3.986  19.101  0.1813  1.2405  1.1768
 3251TIP3   OH233947   6.445   0.360  17.772 -0.4065 -0.0161 -0.6395
 3251TIP3    H133948   6.419   0.379  17.682 -1.1443  0.0732 -0.4179
 3251TIP3    H233949   6.388   0.288  17.799 -0.6357  0.3749 -0.0468
 3252TIP3   OH233950   5.174   3.383  18.981  0.3987 -0.1094  0.2204
 3252TIP3    H133951   5.245   3.337  18.936  0.3601 -0.0760  0.1251
 3252TIP3    H233952   5.133   3.437  18.913  1.6615  1.5791  0.7092
 3253TIP3   OH233953   2.913   5.992  17.109 -0.3697  0.0981 -0.7073
 3253TIP3    H133954   2.866   6.004  17.027  0.2960 -0.1040 -1.1297
 3253TIP3    H233955   2.985   6.056  17.105  0.5233 -0.8923 -0.9438
 3254TIP3   OH233956   3.763   6.081  17.393 -0.0954 -0.4302 -0.5726
 3254TIP3    H133957   3.691   6.127  17.350  0.6054 -1.0841 -2.5835
 3254TIP3    H233958   3.747   5.989  17.373  0.4614 -0.7184  0.2789
 3255TIP3   OH233959   5.415   4.320  17.621  0.0269  0.1463  0.4284
 3255TIP3    H133960   5.351   4.354  17.683  0.5370 -0.5920  1.3876
 3255TIP3    H233961   5.497   4.318  17.669  0.3944 -0.6154 -0.2026
 3256TIP3   OH233962   4.406   4.525  18.178 -0.3811  0.0454 -0.1909
 3256TIP3    H133963   4.497   4.553  18.178 -0.4569  0.2997 -0.5035
 3256TIP3    H233964   4.382   4.518  18.270  1.1159 -3.8238  0.0814
 3257TIP3   OH233965   6.167   4.325  17.533  0.3829 -0.4053  0.3971
 3257TIP3    H133966   6.169   4.244  17.482 -0.0939 -0.2580  0.1358
 3257TIP3    H233967   6.122   4.388  17.476 -0.5904 -0.3696  1.1717
 3258TIP3   OH233968   7.562   3.473  18.659 -0.5973  0.2483 -0.3720
 3258TIP3    H133969   7.628   3.423  18.706 -1.3037  0.2410  0.6386
 3258TIP3    H233970   7.555   3.430  18.573  0.7676  0.3222 -0.5301
 3259TIP3   OH233971   6.074   6.004  16.749  0.4234  0.2033 -0.4866
 3259TIP3    H133972   6.118   6.027  16.667  0.7817  2.1586  0.1969
 3259TIP3    H233973   5.986   5.978  16.723  1.1583 -1.2938 -1.6487
 3260TIP3   OH233974   2.936   5.442  17.586  0.7739  0.3719  0.9410
 3260TIP3    H133975   3.005   5.379  17.607  0.5343  0.1885  1.1983
 3260TIP3    H233976   2.889   5.453  17.669 -1.1455 -1.5218  0.2085
 3261TIP3   OH233977   2.157   6.834  17.178 -0.3559 -0.2715 -0.7244
 3261TIP3    H133978   2.133   6.742  17.189  0.8219 -0.5577 -0.4199
 3261TIP3    H233979   2.098   6.882  17.236  0.3994 -1.0263  0.6957
 3262TIP3   OH233980   2.609   2.674  18.677  0.2078  0.3903 -0.0319
 3262TIP3    H133981   2.586   2.758  18.636 -1.0585 -0.4005 -1.0174
 3262TIP3    H233982   2.605   2.691  18.771  0.0744  1.4500 -0.2141
 3263TIP3   OH233983   7.343   6.860  17.904 -0.8463  0.1058  0.3454
 3263TIP3    H133984   7.347   6.875  17.998 -0.3440 -0.7677  0.4821
 3263TIP3    H233985   7.395   6.931  17.866  0.5072 -0.5654  0.8708
 3264TIP3   OH233986   0.538   1.779  19.545 -0.1808  0.9674  0.4764
 3264TIP3    H133987   0.599   1.853  19.544  1.3133 -0.2240  0.4112
 3264TIP3    H233988   0.527   1.757  19.637 -0.9798  1.5296  0.5264
 3265TIP3   OH233989   3.021   4.194  18.676  0.4570  0.3545  0.3466
 3265TIP3    H133990   3.104   4.224  18.638  0.0020 -0.5487 -1.4725
 3265TIP3    H233991   3.048   4.130  18.743  1.2496 -0.7745 -0.9923
 3266TIP3   OH233992   4.268   2.073  19.007 -0.6002  0.4304 -0.8468
 3266TIP3    H133993   4.257   2.159  19.048  0.9969  0.9080 -1.3630
 3266TIP3    H233994   4.235   2.084  18.918 -0.4726  0.4966 -0.8870
 3267TIP3   OH233995   3.720   6.514  18.100 -0.1784 -0.3539  0.1356
 3267TIP3    H133996   3.803   6.542  18.060  0.6734 -1.0403  1.3422
 3267TIP3    H233997   3.700   6.431  18.059  0.0951 -0.5083  0.3075
 3268TIP3   OH233998   3.223   5.156  16.920  0.4933  0.4158  0.5756
 3268TIP3    H133999   3.239   5.098  16.994 -0.0217 -0.9809 -0.3754
 3268TIP3    H234000   3.267   5.114  16.846 -0.8149  0.6391 -0.3662
 3269TIP3   OH234001   1.326   2.882  17.458  0.4241 -0.8463  0.5020
 3269TIP3    H134002   1.322   2.976  17.473 -1.8274 -0.7964 -0.0338
 3269TIP3    H234003   1.418   2.865  17.438  0.7396  1.3799 -0.2775
 3270TIP3   OH234004   6.494   2.284  18.783 -0.0371  0.1661  0.1972
 3270TIP3    H134005   6.525   2.331  18.860  0.6012  0.7629 -0.4070
 3270TIP3    H234006   6.515   2.342  18.710  0.4216 -0.8958 -0.5344
 3271TIP3   OH234007   5.396   3.644  19.132  0.1781 -1.0276  0.2085
 3271TIP3    H134008   5.475   3.608  19.172 -1.0102 -2.3445  1.4801
 3271TIP3    H234009   5.407   3.739  19.139  2.3863 -1.0932 -1.2088
 3272TIP3   OH234010   2.863   0.350  19.191 -0.1026  0.2705 -0.0005
 3272TIP3    H134011   2.890   0.315  19.276  1.2388 -1.3634 -1.0454
 3272TIP3    H234012   2.925   0.421  19.174  2.4515 -2.0747 -1.3968
 3273TIP3   OH234013   0.970   7.653  18.740 -0.0838  0.6667 -0.2665
 3273TIP3    H134014   0.924   7.585  18.691  0.3117  0.1301  0.1064
 3273TIP3    H234015   1.046   7.609  18.779 -0.3967  1.0848  0.8478
 3274TIP3   OH234016   1.892   5.877  18.308 -0.2221 -0.2412  0.0414
 3274TIP3    H134017   1.911   5.956  18.257 -0.4218  0.1422  0.5536
 3274TIP3    H234018   1.910   5.902  18.399 -1.5552 -0.3673  0.3687
 3275TIP3   OH234019   5.719   1.478  16.826  0.1364  0.0868  0.1201
 3275TIP3    H134020   5.686   1.503  16.913  0.2983 -0.3089  0.2993
 3275TIP3    H234021   5.663   1.405  16.799  2.0499 -1.9635  1.3160
 3276TIP3   OH234022   2.174   5.092  18.947 -0.1029  0.3778 -0.2547
 3276TIP3    H134023   2.241   5.037  18.906 -0.3116 -0.3496  0.3553
 3276TIP3    H234024   2.198   5.095  19.039 -0.2696  1.0714 -0.2312
 3277TIP3   OH234025   3.373   7.060  18.149 -0.0154 -0.4183 -0.8194
 3277TIP3    H134026   3.341   6.985  18.199 -1.0770  0.5126 -0.0274
 3277TIP3    H234027   3.295   7.099  18.111  0.5760 -0.0147 -1.6562
 3278TIP3   OH234028   6.884   6.319  17.860 -0.2306  0.2291 -0.0428
 3278TIP3    H134029   6.848   6.258  17.924 -0.2012 -1.9009 -1.9508
 3278TIP3    H234030   6.821   6.391  17.858 -0.7560 -0.1397  1.6172
 3279TIP3   OH234031   2.895   6.006  17.685 -0.7643  0.1173 -0.2361
 3279TIP3    H134032   2.812   6.030  17.646  0.3009  1.5498 -1.7347
 3279TIP3    H234033   2.962   6.038  17.624  0.8999 -2.2158  0.1883
 3280TIP3   OH234034   3.948   7.309  18.204  0.2536  0.4413  0.2785
 3280TIP3    H134035   4.020   7.302  18.141 -0.2152 -0.5114 -0.1732
 3280TIP3    H234036   3.889   7.237  18.181  0.6953 -0.7708  2.6276
 3281TIP3   OH234037   2.669   4.528  18.854 -0.8224 -0.5038 -0.1979
 3281TIP3    H134038   2.603   4.459  18.845 -0.2874 -1.2089  1.1031
 3281TIP3    H234039   2.683   4.536  18.948  1.2269 -0.6273 -0.4517
 3282TIP3   OH234040   4.568   0.484  19.017  0.0348  0.0836  0.2203
 3282TIP3    H134041   4.620   0.553  19.057 -1.8734  2.6329 -1.3580
 3282TIP3    H234042   4.478   0.518  19.017 -1.1187 -2.6642 -0.1430
 3283TIP3   OH234043   4.854   1.768  18.302  0.0621  0.2356  0.1468
 3283TIP3    H134044   4.933   1.808  18.338  0.4605 -0.5239  0.1316
 3283TIP3    H234045   4.860   1.676  18.328 -1.2196  0.3267  0.8549
 3284TIP3   OH234046   5.937   0.582  17.498 -0.0337 -0.2110 -0.9457
 3284TIP3    H134047   5.862   0.526  17.484  0.5150 -0.8055 -1.5946
 3284TIP3    H234048   5.900   0.666  17.526 -0.8611 -0.8587 -0.0483
 3285TIP3   OH234049   5.446   3.944  16.526 -0.9530  0.1745  0.5567
 3285TIP3    H134050   5.364   3.957  16.478 -1.2697  2.1169  1.5152
 3285TIP3    H234051   5.512   3.987  16.472 -0.7409 -0.4559  0.3070
 3286TIP3   OH234052   4.833   2.322  18.816 -0.1820 -0.1121  0.4971
 3286TIP3    H134053   4.835   2.312  18.721  1.3051 -0.1209  0.5094
 3286TIP3    H234054   4.852   2.414  18.831  0.9940 -0.3953  0.8148
 3287TIP3   OH234055   0.318   5.922  17.555  0.2962 -0.0979  0.2778
 3287TIP3    H134056   0.248   5.931  17.491 -2.2502 -1.2976  2.6675
 3287TIP3    H234057   0.307   5.998  17.613  3.5688  1.8720 -1.3967
 3288TIP3   OH234058   6.406   5.253  17.687 -0.2100 -0.3310  0.1883
 3288TIP3    H134059   6.329   5.202  17.664  0.0440 -0.3686 -0.6055
 3288TIP3    H234060   6.418   5.313  17.613 -0.6852  1.1098  1.2392
 3289TIP3   OH234061   1.866   6.431  19.340 -0.1309 -0.2987  0.2975
 3289TIP3    H134062   1.901   6.360  19.394  0.4599 -0.8729 -0.8243
 3289TIP3    H234063   1.845   6.390  19.256 -3.0785  0.1069  0.7096
 3290TIP3   OH234064   3.320   2.936  17.998  0.5459 -0.4690 -0.0949
 3290TIP3    H134065   3.256   2.865  17.991 -1.2770  1.2319 -2.2772
 3290TIP3    H234066   3.302   2.977  18.083 -2.9934  1.3342 -1.5017
 3291TIP3   OH234067   3.376   0.254  19.237  0.4140 -0.4540 -0.0336
 3291TIP3    H134068   3.414   0.335  19.205 -0.7030 -0.7371 -2.3442
 3291TIP3    H234069   3.450   0.195  19.250  1.0948  0.4180  0.0604
 3292TIP3   OH234070   5.678   6.374  17.236 -0.0238  0.3442 -0.3867
 3292TIP3    H134071   5.649   6.438  17.170 -0.2609  0.4159 -0.2167
 3292TIP3    H234072   5.605   6.312  17.242  1.2052 -1.4111 -2.3696
 3293TIP3   OH234073   5.047   3.088  18.846  0.0087  0.7290  0.6429
 3293TIP3    H134074   5.032   3.149  18.918 -0.0847  0.5237  0.8000
 3293TIP3    H234075   4.982   3.019  18.859  0.4387  0.3417  0.7609
 3294TIP3   OH234076   5.422   7.623  19.481 -0.2504 -0.9664  0.3988
 3294TIP3    H134077   5.449   7.647  19.570  0.4755  0.4704 -0.1745
 3294TIP3    H234078   5.362   7.693  19.455  1.6006  0.1608 -1.1783
 3295TIP3   OH234079   0.503   3.301  17.184 -0.3737 -0.1323 -0.3515
 3295TIP3    H134080   0.418   3.283  17.143 -0.7292  0.8049 -0.0593
 3295TIP3    H234081   0.484   3.303  17.278  0.4359 -2.2703 -0.1025
 3296TIP3   OH234082   5.453   0.668  18.153  0.0548 -0.2580 -0.3476
 3296TIP3    H134083   5.382   0.717  18.112  0.2042 -1.2259 -1.8627
 3296TIP3    H234084   5.533   0.708  18.119  0.2051 -0.4772 -0.2586
 3297TIP3   OH234085   3.013   0.774  19.151 -0.3900 -0.3465 -0.0553
 3297TIP3    H134086   3.055   0.707  19.205 -1.2915 -0.5325  0.4306
 3297TIP3    H234087   2.920   0.754  19.156 -0.9244  2.1062  1.7720
 3298TIP3   OH234088   0.630   4.292  17.703 -0.1820 -0.2161 -0.3851
 3298TIP3    H134089   0.679   4.213  17.726  0.9091  0.3343 -0.7341
 3298TIP3    H234090   0.668   4.321  17.620  1.0641  1.9254  0.8267
 3299TIP3   OH234091   0.851   3.851  16.732 -0.2106  0.4183 -0.7262
 3299TIP3    H134092   0.855   3.868  16.638  0.8584  1.0924 -0.5800
 3299TIP3    H234093   0.893   3.766  16.743  0.1751  0.5949 -0.8076
 3300TIP3   OH234094   6.529   3.817  19.294 -0.1307 -0.0516  0.0411
 3300TIP3    H134095   6.587   3.788  19.364 -0.4991  0.6635  0.6662
 3300TIP3    H234096   6.565   3.901  19.265 -0.5172  0.1212  0.0429
 3301TIP3   OH234097   7.013   6.709  17.420 -0.7711 -0.9710  0.0512
 3301TIP3    H134098   6.996   6.793  17.463 -0.2474 -1.4923  1.3428
 3301TIP3    H234099   6.954   6.647  17.463 -0.5795 -1.4249 -0.3245
 3302TIP3   OH234100   6.844   2.917  17.017 -0.5804 -0.1386  0.0289
 3302TIP3    H134101   6.909   2.964  16.964 -0.1014 -1.3197 -0.4628
 3302TIP3    H234102   6.777   2.983  17.035 -0.4249  0.4877 -1.4702
 3303TIP3   OH234103   6.497   7.385  19.415  0.1430 -0.0918  0.1105
 3303TIP3    H134104   6.528   7.466  19.375 -1.0538  0.3444  0.0359
 3303TIP3    H234105   6.415   7.409  19.458  0.2938 -1.0428  0.9627
 3304TIP3   OH234106   0.743   4.853  17.014 -0.1079  0.2901  0.1455
 3304TIP3    H134107   0.786   4.938  17.006  1.1534 -0.3520 -0.3600
 3304TIP3    H234108   0.651   4.873  17.027  0.3186  1.7396  1.1746
 3305TIP3   OH234109   2.010   6.349  18.731 -0.5817 -0.2103 -0.2851
 3305TIP3    H134110   1.929   6.316  18.692 -0.2682  0.1152 -1.2535
 3305TIP3    H234111   1.981   6.398  18.808 -1.1352 -1.7010  0.4821
 3306TIP3   OH234112   0.002   6.833  19.404 -0.4389 -0.0385 -0.1038
 3306TIP3    H134113  -0.013   6.917  19.359 -1.3572  0.1707  0.5610
 3306TIP3    H234114   0.050   6.856  19.483 -0.3332 -0.1887 -0.1242
 3307TIP3   OH234115   4.103   7.361  19.656  0.2021  0.0468  0.1127
 3307TIP3    H134116   4.151   7.356  19.573  1.9027 -0.1506  1.0559
 3307TIP3    H234117   4.079   7.271  19.675  1.3612 -0.1768  0.6534
 3308TIP3   OH234118   3.607   4.387  18.381  0.8742  0.6620  0.4174
 3308TIP3    H134119   3.695   4.351  18.395  0.9750  0.6533 -0.2117
 3308TIP3    H234120   3.548   4.313  18.396  0.7733  1.1856  3.1889
 3309TIP3   OH234121   6.268   4.800  18.814 -0.6334 -0.0694 -0.0640
 3309TIP3    H134122   6.281   4.895  18.803 -2.0002  0.1578  0.1179
 3309TIP3    H234123   6.184   4.793  18.860 -1.0007 -1.3992 -0.9066
 3310TIP3   OH234124   2.168   4.565  17.628 -0.2076  0.4850 -0.1450
 3310TIP3    H134125   2.159   4.660  17.621 -0.5067  0.4297 -0.5310
 3310TIP3    H234126   2.198   4.537  17.541  0.3930  0.2828  0.1196
 3311TIP3   OH234127   3.848   7.109  17.638  0.3897 -0.1057  0.0676
 3311TIP3    H134128   3.779   7.147  17.692  0.3404  1.1365 -0.8349
 3311TIP3    H234129   3.804   7.079  17.559  1.0582  2.1670 -1.2395
 3312TIP3   OH234130   5.406   6.963  18.990  0.3051  0.5020  0.2955
 3312TIP3    H134131   5.441   6.982  18.903  2.4089 -0.8942  0.7407
 3312TIP3    H234132   5.314   6.986  18.985  0.1064 -0.5269 -2.6242
 3313TIP3   OH234133   5.682   3.226  19.110 -0.2279  0.1033 -0.2048
 3313TIP3    H134134   5.589   3.208  19.116 -0.4105  0.2577 -2.0205
 3313TIP3    H234135   5.722   3.173  19.180 -1.5624 -0.6678 -0.0039
 3314TIP3   OH234136   2.185   5.785  18.853 -0.8601 -0.1893 -0.4368
 3314TIP3    H134137   2.143   5.709  18.813 -2.6854  1.2568 -1.4176
 3314TIP3    H234138   2.215   5.838  18.780 -0.1767  0.3550  0.2183
 3315TIP3   OH234139   1.527   1.210  17.291  0.0566  0.4714 -0.0678
 3315TIP3    H134140   1.599   1.212  17.228 -0.2674  0.4430 -0.4490
 3315TIP3    H234141   1.482   1.127  17.273  0.6239 -0.0863  0.9728
 3316TIP3   OH234142   3.974   6.327  17.395  0.3862 -0.3188 -0.3832
 3316TIP3    H134143   3.915   6.276  17.340  1.0007  0.2607 -1.6048
 3316TIP3    H234144   4.059   6.284  17.385  0.3518 -0.7111  0.7947
 3317TIP3   OH234145   5.350   3.356  17.390  0.3567  1.0476 -0.2044
 3317TIP3    H134146   5.398   3.432  17.422 -2.9410  3.2269 -0.0274
 3317TIP3    H234147   5.352   3.364  17.295  0.5314  0.9749 -0.2069
 3318TIP3   OH234148   6.853   6.828  19.456 -0.5488  0.0397  0.0387
 3318TIP3    H134149   6.885   6.871  19.536 -0.2363 -1.7957  0.9763
 3318TIP3    H234150   6.891   6.879  19.384  1.1960  0.3325  1.0911
 3319TIP3   OH234151   1.006   0.207  18.964  0.0109 -0.5041 -0.0521
 3319TIP3    H134152   0.979   0.299  18.958 -0.7774 -0.3895  3.1822
 3319TIP3    H234153   0.968   0.166  18.887  1.1562  1.9895 -2.1075
 3320TIP3   OH234154   7.463   4.860  19.785 -0.1336 -0.2334 -0.4271
 3320TIP3    H134155   7.449   4.900  19.871 -1.0562  0.9055 -1.0846
 3320TIP3    H234156   7.471   4.934  19.725 -0.2230 -1.0232 -1.4392
 3321TIP3   OH234157   4.030   0.313  18.753  0.1052  0.2685  0.7382
 3321TIP3    H134158   4.119   0.346  18.760 -0.3710  2.1690 -1.0915
 3321TIP3    H234159   4.040   0.220  18.733  1.5965  0.0832  2.1416
 3322TIP3   OH234160   5.373   3.818  17.609 -0.1968  0.0886 -0.1208
 3322TIP3    H134161   5.315   3.783  17.541  0.9318  0.0224 -1.0789
 3322TIP3    H234162   5.330   3.899  17.638 -1.5456 -0.7502  0.3171
 3323TIP3   OH234163   1.921   2.094  18.735 -0.0265  0.0644  0.2320
 3323TIP3    H134164   1.898   2.187  18.725  0.0265  0.1286  0.7024
 3323TIP3    H234165   1.957   2.070  18.650  0.4376  0.6100  0.2674
 3324TIP3   OH234166   5.326   5.677  18.863  1.0874  0.2144  0.5416
 3324TIP3    H134167   5.409   5.669  18.910  1.8689  0.7053 -0.6981
 3324TIP3    H234168   5.336   5.756  18.810 -0.6178  0.9233  1.2027
 3325TIP3   OH234169   0.211   2.049  19.250  0.2007  0.4293 -0.1235
 3325TIP3    H134170   0.224   1.997  19.171  3.1553  1.6954 -0.6294
 3325TIP3    H234171   0.210   1.985  19.321 -0.5883 -0.5923 -1.0372
 3326TIP3   OH234172   6.672   1.781  18.668 -0.5185  0.0675 -0.3403
 3326TIP3    H134173   6.722   1.716  18.619  0.7610  1.6542 -1.2344
 3326TIP3    H234174   6.581   1.752  18.660  0.1104 -2.4800  0.6780
 3327TIP3   OH234175   0.573   6.490  18.537  0.0722  0.4027  0.2281
 3327TIP3    H134176   0.525   6.454  18.463  1.5608 -0.4427 -0.3654
 3327TIP3    H234177   0.582   6.417  18.598  1.4822  0.2348 -0.1433
 3328TIP3   OH234178   0.819   5.990  17.869  0.1963 -0.0656 -0.0507
 3328TIP3    H134179   0.742   6.043  17.846  0.2279 -1.0382 -2.7389
 3328TIP3    H234180   0.889   6.025  17.815  0.1515 -2.8896 -2.1874
 3329TIP3   OH234181   3.967   6.475  18.762 -0.6375 -0.1013  0.0524
 3329TIP3    H134182   3.931   6.390  18.788  0.7967 -0.1231  2.2771
 3329TIP3    H234183   3.991   6.464  18.670 -4.2526 -0.7000 -0.9872
 3330TIP3   OH234184   3.142   7.031  18.355  0.0590  0.0536  0.2437
 3330TIP3    H134185   3.225   6.982  18.362  1.0484  1.4737 -0.9044
 3330TIP3    H234186   3.099   7.017  18.439  0.6741 -2.0952  0.2591
 3331TIP3   OH234187   3.533   0.662  17.602  0.4457 -0.3239  0.4723
 3331TIP3    H134188   3.578   0.746  17.602  0.0354 -0.0827 -1.0794
 3331TIP3    H234189   3.582   0.608  17.540 -1.8547  0.2409 -1.9948
 3332TIP3   OH234190   5.066   0.355  18.824 -0.1141  0.4789  0.1072
 3332TIP3    H134191   5.106   0.279  18.782 -0.2231 -0.6723  1.9742
 3332TIP3    H234192   5.091   0.429  18.769  0.4162 -0.8226 -1.4936
 3333TIP3   OH234193   3.366   0.231  18.106 -0.2350  1.0442 -0.7885
 3333TIP3    H134194   3.449   0.224  18.059 -1.1238 -1.4680 -2.1361
 3333TIP3    H234195   3.318   0.301  18.060  0.7400  1.8606 -0.5883
 3334TIP3   OH234196   0.427   5.252  17.402 -0.3288 -0.0659 -0.2999
 3334TIP3    H134197   0.382   5.237  17.485  1.5594 -0.0288  0.7872
 3334TIP3    H234198   0.358   5.247  17.336 -2.2089  1.7672  1.4106
 3335TIP3   OH234199   5.607   2.691  17.338 -0.1704  0.0285  0.1623
 3335TIP3    H134200   5.607   2.708  17.244 -0.4223  0.2101  0.1940
 3335TIP3    H234201   5.682   2.634  17.352  0.3277  0.6174 -0.0403
 3336TIP3   OH234202   0.429   0.519  18.579 -0.6112  0.1621  0.6740
 3336TIP3    H134203   0.399   0.605  18.549  0.3287  0.0485 -0.7099
 3336TIP3    H234204   0.524   0.521  18.563 -0.2893 -0.4529  2.3789
 3337TIP3   OH234205   0.279   6.993  18.199  0.0410  0.1543 -0.3063
 3337TIP3    H134206   0.216   6.921  18.194  0.8072 -0.5508 -0.0115
 3337TIP3    H234207   0.346   6.962  18.261  2.2844 -0.3968 -2.7961
 3338TIP3   OH234208   1.853   3.406  17.501 -0.4608 -0.2914  0.5480
 3338TIP3    H134209   1.882   3.316  17.516 -3.2756 -1.2683  0.7389
 3338TIP3    H234210   1.814   3.404  17.413  0.1375  0.9651  0.2322
 3339TIP3   OH234211   2.279   4.178  17.989 -0.4101  0.1159  0.0969
 3339TIP3    H134212   2.355   4.125  18.012 -0.5559 -1.0179 -1.8856
 3339TIP3    H234213   2.266   4.234  18.066  2.1484  0.0693  0.6607
 3340TIP3   OH234214   4.216   6.669  18.751 -0.7223  0.1305  0.2682
 3340TIP3    H134215   4.158   6.744  18.761 -1.7996 -0.7646  0.9626
 3340TIP3    H234216   4.258   6.682  18.666 -2.0949  0.6957 -0.3550
 3341TIP3   OH234217   7.480   3.382  17.689 -0.1794  0.0994 -0.4113
 3341TIP3    H134218   7.535   3.305  17.674 -0.0396  0.2698 -0.7709
 3341TIP3    H234219   7.397   3.362  17.646  0.2484  0.6205 -1.5064
 3342TIP3   OH234220   6.852   0.391  19.154 -0.1839 -0.4033 -0.0970
 3342TIP3    H134221   6.925   0.333  19.176 -0.1107 -0.1127  0.4341
 3342TIP3    H234222   6.880   0.478  19.183 -0.2220 -0.0604 -1.0431
 3343TIP3   OH234223   3.499   3.717  18.959 -0.4565 -0.2001  0.3271
 3343TIP3    H134224   3.501   3.743  19.051 -0.1292 -1.8596  0.8226
 3343TIP3    H234225   3.432   3.772  18.920  0.5777  1.7304  1.1579
 3344TIP3   OH234226   5.034   6.560  17.084  0.0908 -0.4921  0.1272
 3344TIP3    H134227   5.068   6.500  17.018  1.6359  1.4779 -0.9695
 3344TIP3    H234228   4.944   6.579  17.055  0.6566  0.1325 -1.3038
 3345TIP3   OH234229   3.751   3.912  18.459  0.6628  0.3182  0.4769
 3345TIP3    H134230   3.786   3.957  18.536  1.4200 -0.0178  0.3388
 3345TIP3    H234231   3.752   3.819  18.483 -1.2503  0.3714  0.9027
 3346TIP3   OH234232   3.647   2.049  16.779  0.2038  0.1344  0.0930
 3346TIP3    H134233   3.727   2.050  16.726 -0.1914 -0.3254 -0.5287
 3346TIP3    H234234   3.663   1.981  16.844  1.4459  1.9506  1.8108
 3347TIP3   OH234235   3.118   5.161  19.287  0.0137 -0.2948  0.2829
 3347TIP3    H134236   3.157   5.231  19.340  2.4772 -0.1791 -1.5260
 3347TIP3    H234237   3.188   5.096  19.277 -0.5576 -0.6240 -2.2185
 3348TIP3   OH234238   3.903   4.012  18.671 -0.1851 -0.2279 -0.0121
 3348TIP3    H134239   3.843   4.036  18.741 -0.5103 -0.7325 -0.1126
 3348TIP3    H234240   3.983   3.984  18.715 -0.1124  0.1950  0.1280
 3349TIP3   OH234241   6.654   6.643  18.697  0.1493 -0.1574 -0.7309
 3349TIP3    H134242   6.575   6.630  18.750 -0.4183 -1.0792 -1.7327
 3349TIP3    H234243   6.720   6.587  18.737 -0.0924 -0.3737 -0.6297
 3350TIP3   OH234244   0.328   2.040  17.328  0.4953 -0.2628 -0.2624
 3350TIP3    H134245   0.381   1.964  17.349 -1.2112 -1.5815 -0.4895
 3350TIP3    H234246   0.345   2.057  17.236 -0.5624 -1.6396 -0.7500
 3351TIP3   OH234247   6.000   4.824  16.814 -0.4398  0.0023 -0.1406
 3351TIP3    H134248   6.088   4.795  16.788 -1.3642 -1.3839 -1.9254
 3351TIP3    H234249   6.014   4.912  16.848  1.4132  0.6966 -2.3675
 3352TIP3   OH234250   1.114   1.655  18.176  0.3690 -0.0362 -0.2018
 3352TIP3    H134251   1.132   1.635  18.268  0.7639 -2.4045 -0.7107
 3352TIP3    H234252   1.025   1.624  18.162 -0.7240  2.7516 -0.0595
 3353TIP3   OH234253   5.511   4.537  18.975 -0.8134 -0.0893 -0.3176
 3353TIP3    H134254   5.584   4.568  18.922 -0.2258 -1.7472 -0.5485
 3353TIP3    H234255   5.551   4.509  19.057 -1.2757 -0.4239 -0.2001
 3354TIP3   OH234256   0.241   7.653  17.649  0.3963 -0.4924 -0.4480
 3354TIP3    H134257   0.170   7.624  17.591  1.4420  0.3803 -2.2538
 3354TIP3    H234258   0.257   7.744  17.624  2.7208 -0.9202 -0.7445
 3355TIP3   OH234259   0.276   3.741  17.276 -0.0214 -0.2074 -0.7490
 3355TIP3    H134260   0.236   3.747  17.189 -1.3112  0.0249 -0.1485
 3355TIP3    H234261   0.244   3.817  17.323  1.4507  0.2008 -0.3651
 3356TIP3   OH234262   7.293   5.407  18.748  0.0133 -0.4229 -0.6733
 3356TIP3    H134263   7.360   5.476  18.748 -0.1056 -0.2798  0.3687
 3356TIP3    H234264   7.339   5.328  18.722  0.2679 -0.0519 -1.3706
 3357TIP3   OH234265   7.255   3.097  16.755 -0.2322 -0.0456 -0.2813
 3357TIP3    H134266   7.262   3.193  16.752 -2.2091  0.2250  1.4428
 3357TIP3    H234267   7.256   3.070  16.663 -0.8792  1.7621 -0.8635
 3358TIP3   OH234268   4.907   1.394  19.383  0.1425 -0.0814 -0.3570
 3358TIP3    H134269   4.816   1.380  19.355 -0.8575 -0.2886  2.5926
 3358TIP3    H234270   4.911   1.486  19.407  0.0209 -0.5278  1.5344
 3359TIP3   OH234271   6.250   6.809  18.029  0.4441 -0.0330  0.6748
 3359TIP3    H134272   6.195   6.878  17.994 -2.4210 -1.2698  2.3940
 3359TIP3    H234273   6.239   6.735  17.969 -2.3021 -1.2399  2.4374
 3360TIP3   OH234274   2.066   3.873  19.148  0.5078 -0.9389  0.0424
 3360TIP3    H134275   2.053   3.808  19.079 -1.1778 -0.0180 -0.5790
 3360TIP3    H234276   2.114   3.826  19.216  1.8522 -1.9951 -1.5503
 3361TIP3   OH234277   2.102   2.468  18.109  0.0523  0.3536 -0.0859
 3361TIP3    H134278   2.111   2.433  18.020  0.5158 -0.4223  0.2546
 3361TIP3    H234279   2.044   2.543  18.099 -1.5113 -0.8802 -0.7529
 3362TIP3   OH234280   0.490   0.033  18.285  0.0543 -0.2032  0.4040
 3362TIP3    H134281   0.437   0.088  18.228  0.6075 -0.6208 -0.5496
 3362TIP3    H234282   0.427  -0.022  18.332 -0.4673  0.8621  0.9874
 3363TIP3   OH234283   7.178   3.556  17.783  0.3010  0.1600  0.2771
 3363TIP3    H134284   7.118   3.498  17.829 -0.1811  1.1813  0.9639
 3363TIP3    H234285   7.187   3.516  17.696 -0.5155 -0.5943  0.5197
 3364TIP3   OH234286   4.535   1.069  19.609 -0.5082  0.1236 -0.3432
 3364TIP3    H134287   4.482   1.148  19.593  1.0945  1.2954 -0.1168
 3364TIP3    H234288   4.591   1.062  19.531  1.6043  1.1206  0.9922
 3365TIP3   OH234289   4.161   3.118  18.236  0.2335 -0.4318 -0.2856
 3365TIP3    H134290   4.185   3.035  18.196  0.9082 -0.8529  0.9430
 3365TIP3    H234291   4.084   3.147  18.187  0.2841 -1.5348 -1.0442
 3366TIP3   OH234292   6.658   7.251  17.700 -0.3077  0.0598  0.1993
 3366TIP3    H134293   6.627   7.340  17.683  1.8224  0.2800 -3.4487
 3366TIP3    H234294   6.727   7.262  17.765 -1.8537  0.6209  1.8400
 3367TIP3   OH234295   3.577   3.915  17.540 -0.6624  0.3807  0.2806
 3367TIP3    H134296   3.515   3.842  17.537 -2.2735  1.6581  1.0231
 3367TIP3    H234297   3.622   3.912  17.456  0.5923 -2.4789  0.9060
 3368TIP3   OH234298   6.200   6.029  18.878  0.0112  0.3292  0.7814
 3368TIP3    H134299   6.125   5.974  18.852  0.3942  0.8067 -1.5544
 3368TIP3    H234300   6.275   5.970  18.874  0.2536  0.7031 -0.5522
 3369TIP3   OH234301   6.754   3.350  17.463  0.0424  0.3035  0.3261
 3369TIP3    H134302   6.719   3.276  17.414  0.4082  2.5325 -3.7036
 3369TIP3    H234303   6.676   3.397  17.494 -0.2925  0.2860 -0.4778
 3370TIP3   OH234304   5.569   1.210  16.943  0.1122 -0.0535 -0.0990
 3370TIP3    H134305   5.543   1.256  17.023 -0.2725 -0.2539 -0.1048
 3370TIP3    H234306   5.608   1.128  16.974 -1.0502 -0.6382 -0.1376
 3371TIP3   OH234307   6.562   6.201  19.545 -0.0218 -0.6279 -0.3552
 3371TIP3    H134308   6.508   6.230  19.619  0.8676  2.0230 -0.6092
 3371TIP3    H234309   6.501   6.198  19.471 -0.2508  0.3237 -0.2203
 3372TIP3   OH234310   2.027   3.698  17.253  0.2557  0.0655  0.6523
 3372TIP3    H134311   1.983   3.778  17.282  1.0915  0.7949 -0.0447
 3372TIP3    H234312   1.955   3.640  17.227 -0.3236  1.1924 -0.3670
 3373TIP3   OH234313   3.625   6.910  18.593 -0.3087  0.1573  0.2820
 3373TIP3    H134314   3.618   6.848  18.520 -1.0806 -0.9291  1.2360
 3373TIP3    H234315   3.635   6.855  18.670  2.4918  1.3196  0.8487
 3374TIP3   OH234316   0.782   3.667  17.742 -0.4870  0.4230  0.1523
 3374TIP3    H134317   0.824   3.752  17.757  0.5294  0.2579 -1.5340
 3374TIP3    H234318   0.853   3.610  17.712 -1.0704 -1.1639  1.6042
 3375TIP3   OH234319   2.716   5.391  18.265 -0.6349 -0.1254  0.6671
 3375TIP3    H134320   2.797   5.441  18.256  0.4748 -1.8031  0.6936
 3375TIP3    H234321   2.663   5.416  18.189  0.2400  0.4483  0.2362
 3376TIP3   OH234322   5.299   2.642  18.234 -0.2118 -0.2067  0.3796
 3376TIP3    H134323   5.233   2.626  18.302  1.1910  1.6673  2.2987
 3376TIP3    H234324   5.248   2.674  18.159 -1.6079 -0.0603  1.3489
 3377TIP3   OH234325   0.252   3.263  18.515  0.4880 -0.6280  0.2077
 3377TIP3    H134326   0.186   3.333  18.510 -0.5066 -1.5733 -0.2985
 3377TIP3    H234327   0.307   3.288  18.590 -0.2009  0.3828  0.4081
 3378TIP3   OH234328   6.301   6.524  17.986 -0.1303 -0.2221  0.3764
 3378TIP3    H134329   6.252   6.441  17.990 -0.4889 -0.0113  0.3403
 3378TIP3    H234330   6.287   6.563  18.072  0.8252 -0.6460  0.7323
 3379TIP3   OH234331   1.435   3.073  18.113  0.1585 -0.0438 -0.9006
 3379TIP3    H134332   1.434   3.169  18.122  2.1623 -0.1072  0.9096
 3379TIP3    H234333   1.364   3.054  18.051 -0.7670  2.5407 -0.7785
 3380TIP3   OH234334   5.638   5.295  17.693  0.0720 -0.0203  0.6174
 3380TIP3    H134335   5.587   5.224  17.730 -1.1072  0.2822 -0.3536
 3380TIP3    H234336   5.595   5.375  17.723 -0.6747  0.2322 -0.9935
 3381TIP3   OH234337   2.304   1.492  17.692  0.0807 -0.4000  0.2092
 3381TIP3    H134338   2.337   1.577  17.663 -2.0054  0.9336  1.4661
 3381TIP3    H234339   2.378   1.452  17.737  1.1902  0.6186 -0.6357
 3382TIP3   OH234340   6.437   2.918  18.526 -0.2324  0.0623  0.4644
 3382TIP3    H134341   6.511   2.861  18.508 -2.0022 -1.8373 -1.4620
 3382TIP3    H234342   6.425   2.914  18.621  1.7602  0.0289  0.7508
 3383TIP3   OH234343   1.852   5.570  18.804  0.1588 -0.3573  0.0193
 3383TIP3    H134344   1.855   5.505  18.874  1.0040  0.0023  0.3278
 3383TIP3    H234345   1.941   5.570  18.768  0.4100  1.2428  0.6004
 3384TIP3   OH234346   7.207   6.872  19.529 -0.2468  0.0353 -0.7165
 3384TIP3    H134347   7.196   6.842  19.439 -0.2927 -0.7323 -0.4581
 3384TIP3    H234348   7.212   6.792  19.581  0.2869  0.4635 -0.0910
 3385TIP3   OH234349   5.620   2.154  19.365  0.0468  0.1319 -0.1074
 3385TIP3    H134350   5.568   2.228  19.398 -0.3046  0.0519 -0.4612
 3385TIP3    H234351   5.558   2.104  19.312  0.2281 -0.5395  0.3027
 3386TIP3   OH234352   0.093   2.781  17.291 -0.3473 -0.3075 -0.4024
 3386TIP3    H134353   0.136   2.865  17.307 -0.0901 -0.3961 -0.6222
 3386TIP3    H234354   0.091   2.739  17.377 -0.3624 -0.1279 -0.3157
 3387TIP3   OH234355   1.203   6.418  18.518  0.3635 -0.2755 -0.1358
 3387TIP3    H134356   1.298   6.422  18.515  0.4621 -0.5565  1.6648
 3387TIP3    H234357   1.183   6.385  18.606 -1.3758 -0.9233 -0.7285
 3388TIP3   OH234358   4.459   2.772  18.463 -0.4286 -0.0725 -0.5285
 3388TIP3    H134359   4.552   2.749  18.473 -0.4917  0.2431  0.9976
 3388TIP3    H234360   4.419   2.694  18.425  0.0765 -1.0164  0.8174
 3389TIP3   OH234361   4.505   2.310  18.229 -0.2566 -0.4723  0.0412
 3389TIP3    H134362   4.442   2.366  18.184  0.4040  1.0685  0.9553
 3389TIP3    H234363   4.452   2.243  18.270 -1.2290  0.3384  0.1458
 3390TIP3   OH234364   0.248   5.342  17.158  0.2405  0.0417 -0.1298
 3390TIP3    H134365   0.235   5.426  17.202  0.8785  0.1513 -0.1443
 3390TIP3    H234366   0.173   5.334  17.100  0.1791  0.6047 -0.1336
 3391TIP3   OH234367   0.334   5.094  17.953  0.3998 -0.0143 -0.3790
 3391TIP3    H134368   0.421   5.116  17.985  0.5615 -1.0493 -0.0452
 3391TIP3    H234369   0.335   5.120  17.861 -0.1111  3.0881  0.4101
 3392TIP3   OH234370   0.078   5.652  17.772  0.0232 -0.4245  0.2342
 3392TIP3    H134371   0.149   5.610  17.723 -1.2571 -0.9752 -1.2109
 3392TIP3    H234372   0.002   5.597  17.757 -1.3438  1.5313 -0.3975
 3393TIP3   OH234373   3.061   6.255  18.405  0.1660  0.4063  0.5352
 3393TIP3    H134374   3.003   6.297  18.342 -0.2486  1.0649  1.3388
 3393TIP3    H234375   3.131   6.319  18.420  0.4363  0.1214  0.5117
 3394TIP3   OH234376   4.520   5.146  17.948 -0.2588  0.7101  0.3592
 3394TIP3    H134377   4.519   5.188  17.861  0.7046 -0.0824 -0.0480
 3394TIP3    H234378   4.489   5.057  17.932  2.9399 -0.5077  0.2008
 3395TIP3   OH234379   5.756   7.358  19.318  0.6758  0.4161 -0.6261
 3395TIP3    H134380   5.675   7.378  19.366  1.1387 -1.2503  1.0062
 3395TIP3    H234381   5.727   7.328  19.232 -0.5152 -0.6823  0.1219
 3396TIP3   OH234382   0.322   4.939  19.901  0.0913 -0.0927 -0.3307
 3396TIP3    H134383   0.315   4.929  19.806  3.2939  0.5688 -0.7497
 3396TIP3    H234384   0.332   5.034  19.914  1.1269 -0.2985  0.4907
 3397TIP3   OH234385   1.774   5.637  18.251 -0.0444 -0.1567  0.4012
 3397TIP3    H134386   1.716   5.647  18.176  1.7777 -1.1714 -1.2235
 3397TIP3    H234387   1.806   5.725  18.269 -0.0862  0.0196 -0.3595
 3398TIP3   OH234388   0.939   0.202  17.586  0.2462  0.6453  0.2845
 3398TIP3    H134389   0.950   0.248  17.669 -0.4951  1.7188 -0.1829
 3398TIP3    H234390   0.914   0.271  17.524  0.4193 -0.1959 -0.7425
 3399TIP3   OH234391   4.780   1.964  17.586 -0.0957  0.1433 -0.4466
 3399TIP3    H134392   4.856   1.994  17.537  2.1556 -0.4096  2.4576
 3399TIP3    H234393   4.759   2.036  17.644 -1.9663  0.3325 -1.2656
 3400TIP3   OH234394   2.330   3.438  18.232  0.1995  0.5048 -0.4026
 3400TIP3    H134395   2.251   3.442  18.286 -0.1735  0.2777 -0.9171
 3400TIP3    H234396   2.399   3.474  18.287 -0.1274  0.0840  0.2929
 3401TIP3   OH234397   2.526   4.659  18.668  0.4735  0.4117  0.1699
 3401TIP3    H134398   2.577   4.722  18.617  0.5574 -1.1490 -1.8226
 3401TIP3    H234399   2.588   4.621  18.729  1.1665  0.1869 -0.6539
 3402TIP3   OH234400   4.348   0.278  17.897  0.1144 -0.4742  0.4913
 3402TIP3    H134401   4.434   0.293  17.859 -0.2107 -0.9292 -0.4350
 3402TIP3    H234402   4.320   0.193  17.863 -1.4028  0.3976 -0.5598
 3403TIP3   OH234403   3.956   7.200  19.291  0.1543 -0.3593 -0.6106
 3403TIP3    H134404   3.967   7.139  19.218 -0.0023 -0.7066 -0.3451
 3403TIP3    H234405   3.988   7.152  19.367 -0.8812 -0.4744 -0.2347
 3404TIP3   OH234406   1.547   4.855  18.442  0.1186 -0.0591  0.2661
 3404TIP3    H134407   1.631   4.830  18.404 -1.1334 -3.0334 -0.8253
 3404TIP3    H234408   1.527   4.784  18.504 -1.9281  0.1441 -0.0942
 3405TIP3   OH234409   3.300   7.330  17.240  0.2126 -0.0516 -0.5319
 3405TIP3    H134410   3.279   7.297  17.153  0.6107 -1.1882 -0.2174
 3405TIP3    H234411   3.217   7.361  17.275 -0.9612 -3.7939  0.4376
 3406TIP3   OH234412   3.380   3.006  19.285  0.1083 -0.2026 -0.2392
 3406TIP3    H134413   3.352   3.057  19.361 -0.1515 -1.1779  0.3280
 3406TIP3    H234414   3.342   3.051  19.210 -1.6302 -0.5781  0.3881
 3407TIP3   OH234415   0.752   0.075  18.357  0.5109  0.7827  0.1382
 3407TIP3    H134416   0.659   0.064  18.336  0.6227 -0.4366  0.1923
 3407TIP3    H234417   0.754   0.145  18.421 -0.7050 -1.0573  2.3435
 3408TIP3   OH234418   4.464   3.125  18.081 -0.0438 -0.6235  0.3723
 3408TIP3    H134419   4.531   3.171  18.131  2.1884 -2.9532 -0.2161
 3408TIP3    H234420   4.400   3.192  18.059  1.7576  1.6388  1.5391
 3409TIP3   OH234421   2.543   6.650  19.453  0.3195  0.8364 -0.5899
 3409TIP3    H134422   2.505   6.580  19.400 -1.7976  2.5653 -1.5332
 3409TIP3    H234423   2.624   6.673  19.408  0.8196 -0.6433 -0.5151
 3410TIP3   OH234424   4.260   0.125  16.614 -1.1029  0.7615 -0.9286
 3410TIP3    H134425   4.297   0.213  16.618  1.2960 -0.2023 -0.5975
 3410TIP3    H234426   4.301   0.085  16.537 -0.3978 -0.7826  0.1959
 3411TIP3   OH234427   0.183   6.378  17.511 -0.0145 -0.8561  0.2151
 3411TIP3    H134428   0.160   6.286  17.513 -0.6391 -0.6977  1.1044
 3411TIP3    H234429   0.277   6.379  17.496  0.1631 -1.6801  1.1510
 3412TIP3   OH234430   1.933   4.900  18.585 -0.1603  0.4148  0.6199
 3412TIP3    H134431   1.844   4.933  18.597 -0.1945  0.0595  1.4015
 3412TIP3    H234432   1.990   4.975  18.603 -0.2851  0.4676  0.7960
 3413TIP3   OH234433   6.407   1.455  17.329  0.0739 -0.3489  0.6188
 3413TIP3    H134434   6.434   1.455  17.237  0.6754 -1.2531  0.7743
 3413TIP3    H234435   6.367   1.540  17.343  1.5094  0.4708 -0.0535
 3414TIP3   OH234436   4.217   4.266  18.414 -0.0565 -0.1374  0.1941
 3414TIP3    H134437   4.243   4.350  18.453  1.3697 -0.7754  0.7033
 3414TIP3    H234438   4.239   4.276  18.321 -2.8433  1.1460 -0.4155
 3415TIP3   OH234439   7.288   7.237  18.423 -0.1301 -0.2898  0.0122
 3415TIP3    H134440   7.230   7.247  18.499  0.3474 -0.2172  0.3713
 3415TIP3    H234441   7.229   7.215  18.351 -0.4072 -2.4405  0.8097
 3416TIP3   OH234442   5.469   4.282  17.356 -0.3680 -0.0429  0.5231
 3416TIP3    H134443   5.538   4.345  17.335 -0.9242  0.8792  1.3391
 3416TIP3    H234444   5.450   4.298  17.448 -0.7635 -1.2004  0.6565
 3417TIP3   OH234445   4.310   2.552  18.317  0.1505 -0.0431  0.2025
 3417TIP3    H134446   4.224   2.582  18.286  0.0594 -1.6493 -1.3026
 3417TIP3    H234447   4.291   2.503  18.396 -0.4850 -1.2038 -0.6382
 3418TIP3   OH234448   3.326   1.260  19.455 -0.0809  0.4946 -0.4141
 3418TIP3    H134449   3.256   1.220  19.402 -0.8090  1.3749 -0.1415
 3418TIP3    H234450   3.399   1.268  19.394  0.5048 -2.2281 -0.2092
 3419TIP3   OH234451   2.759   7.049  18.407 -0.2538 -0.3405 -0.3433
 3419TIP3    H134452   2.820   7.067  18.334 -0.0023 -0.5684 -0.1912
 3419TIP3    H234453   2.725   7.135  18.431  0.5751 -0.1188  0.0624
 3420TIP3   OH234454   0.825   1.697  17.694  0.0325  0.3252 -0.0733
 3420TIP3    H134455   0.865   1.753  17.760  0.9270  0.7492 -0.9444
 3420TIP3    H234456   0.898   1.668  17.639 -0.5981 -0.5848 -0.4557
 3421TIP3   OH234457   2.599   6.196  19.116  0.2298  0.4039  0.5581
 3421TIP3    H134458   2.671   6.237  19.068 -0.8811  0.5726 -1.0300
 3421TIP3    H234459   2.626   6.106  19.129  0.8337  0.5361  0.2145
 3422TIP3   OH234460   6.667   0.646  19.407 -0.5610 -0.4459  0.0249
 3422TIP3    H134461   6.677   0.696  19.487  0.6211  0.2943 -0.5556
 3422TIP3    H234462   6.667   0.554  19.435  2.9571 -0.3908  0.7055
 3423TIP3   OH234463   1.263   0.665  16.981  0.3428  0.4281 -0.2412
 3423TIP3    H134464   1.353   0.674  17.012 -0.3244 -1.5612  2.6876
 3423TIP3    H234465   1.209   0.697  17.053 -1.2882 -2.7263  0.1391
 3424TIP3   OH234466   2.415   0.189  19.573  0.1186  0.1371  0.0012
 3424TIP3    H134467   2.341   0.145  19.614  0.5331 -1.9063 -1.3121
 3424TIP3    H234468   2.377   0.266  19.531 -1.3145 -0.8993 -0.6945
 3425TIP3   OH234469   0.260   1.154  17.553 -0.1738  0.9123 -0.0554
 3425TIP3    H134470   0.185   1.209  17.575 -1.4092 -0.7144 -0.1085
 3425TIP3    H234471   0.305   1.139  17.636 -0.6736  0.7594  0.1844
 3426TIP3   OH234472   1.330   7.235  18.410 -0.5003  0.0793  0.1267
 3426TIP3    H134473   1.396   7.299  18.385 -0.1984  0.7170  2.2830
 3426TIP3    H234474   1.379   7.168  18.458 -1.3128  0.3932  1.4598
 3427TIP3   OH234475   5.568   1.958  17.266  0.0277 -0.7002  0.2262
 3427TIP3    H134476   5.578   2.004  17.349 -1.4941 -0.5300  0.3333
 3427TIP3    H234477   5.521   1.878  17.289 -3.0223  0.6762 -0.8229
 3428TIP3   OH234478   3.037   5.758  17.053  0.5514  0.3301 -0.5027
 3428TIP3    H134479   2.973   5.827  17.067  0.7792  0.1763  1.5945
 3428TIP3    H234480   3.023   5.730  16.963 -0.9947  1.6281 -0.7070
 3429TIP3   OH234481   0.222   3.083  19.287  0.4842 -0.2430 -0.2164
 3429TIP3    H134482   0.198   3.013  19.227 -0.2428 -0.1051 -0.0895
 3429TIP3    H234483   0.148   3.091  19.347 -0.0584  1.5506 -1.0513
 3430TIP3   OH234484   5.471   1.482  18.115  0.0941 -0.0043  0.5750
 3430TIP3    H134485   5.549   1.428  18.100  0.4301  0.8284 -0.8415
 3430TIP3    H234486   5.506   1.563  18.154 -0.0382  0.3965 -0.1212
 3431TIP3   OH234487   1.844   4.816  17.698 -0.3067 -0.3491 -0.6546
 3431TIP3    H134488   1.920   4.869  17.677  0.7711 -1.7599 -0.4636
 3431TIP3    H234489   1.770   4.877  17.698  0.8803  1.1128 -0.4094
 3432TIP3   OH234490   6.052   4.113  19.404  0.8717 -0.3732 -0.4822
 3432TIP3    H134491   6.073   4.041  19.464 -0.5364 -1.6938 -1.5161
 3432TIP3    H234492   6.112   4.100  19.330  0.6150 -0.4842 -0.6709
 3433TIP3   OH234493   4.595   4.126  17.788 -0.1333 -0.1905  0.2781
 3433TIP3    H134494   4.507   4.164  17.785 -0.9368 -1.5481  3.0106
 3433TIP3    H234495   4.593   4.055  17.724 -1.1199 -0.3444  0.4703
 3434TIP3   OH234496   6.960   3.011  19.002 -0.1624 -0.8411  0.1410
 3434TIP3    H134497   6.983   2.926  19.040  2.5647 -0.1063  0.3352
 3434TIP3    H234498   6.870   3.000  18.972 -0.5934 -3.1555  1.9487
 3435TIP3   OH234499   4.778   0.430  17.222  0.0369 -0.1999  0.8498
 3435TIP3    H134500   4.823   0.513  17.236  0.1587 -0.3564  1.4216
 3435TIP3    H234501   4.798   0.407  17.132 -2.0921  1.6497 -0.2070
 3436TIP3   OH234502   1.980   3.983  18.551 -0.2309  0.6291  0.3189
 3436TIP3    H134503   2.033   3.968  18.629  1.0528  0.2627 -0.5905
 3436TIP3    H234504   2.018   3.926  18.484 -0.2904  2.0394 -1.0020
 3437TIP3   OH234505   0.422   5.122  19.183  0.6215 -0.2608 -0.2145
 3437TIP3    H134506   0.502   5.137  19.233  0.9317  0.9977 -1.0375
 3437TIP3    H234507   0.391   5.209  19.161 -0.3341 -0.7623 -0.9099
 3438TIP3   OH234508   3.722   7.057  18.273 -0.7157 -0.1849  0.1274
 3438TIP3    H134509   3.654   6.989  18.274  0.5217 -1.4992  1.4659
 3438TIP3    H234510   3.733   7.078  18.181 -2.1567 -0.7318 -0.2108
 3439TIP3   OH234511   7.070   1.623  17.803 -0.1506 -0.1653  0.1028
 3439TIP3    H134512   7.140   1.558  17.797 -1.3634 -1.5642  0.4180
 3439TIP3    H234513   7.027   1.620  17.718 -0.0247  0.4670  0.0114
 3440TIP3   OH234514   0.749   3.316  19.050  0.0483 -0.2001  0.6621
 3440TIP3    H134515   0.787   3.298  18.964  1.2164  1.8529  0.6999
 3440TIP3    H234516   0.749   3.231  19.094  2.5287 -0.7028 -0.1586
 3441TIP3   OH234517   7.043   2.209  19.094 -0.4484 -0.7024 -0.5078
 3441TIP3    H134518   7.090   2.196  19.177  0.3148 -1.7985 -1.0727
 3441TIP3    H234519   7.063   2.130  19.044 -3.4440 -1.5440 -0.5558
 3442TIP3   OH234520   0.347   3.598  17.704  0.1960 -0.3612 -0.4995
 3442TIP3    H134521   0.401   3.600  17.625 -0.0057  0.0881 -0.6282
 3442TIP3    H234522   0.264   3.559  17.676 -0.2110  0.6515 -0.7231
 3443TIP3   OH234523   4.553   2.010  19.140  0.1159  0.1121 -0.3086
 3443TIP3    H134524   4.575   2.072  19.071 -0.4822  0.5640 -0.1024
 3443TIP3    H234525   4.468   1.974  19.115  0.1594 -0.1408 -0.0990
 3444TIP3   OH234526   0.267   5.772  18.038 -0.0753  0.8130 -0.4746
 3444TIP3    H134527   0.353   5.740  18.065 -0.7893 -0.0742  0.8588
 3444TIP3    H234528   0.266   5.864  18.064  0.5402  0.8862 -0.6998
 3445TIP3   OH234529   0.881   4.014  17.138 -0.0698 -0.0010  0.0064
 3445TIP3    H134530   0.860   4.096  17.094 -2.3256 -0.7811 -0.4910
 3445TIP3    H234531   0.947   3.973  17.082  0.8487  1.2688  0.0999
 3446TIP3   OH234532   1.510   3.986  17.178  0.4066  0.4609  0.4945
 3446TIP3    H134533   1.456   4.045  17.124 -1.4560 -0.5403  1.1647
 3446TIP3    H234534   1.597   3.991  17.138 -0.5232  0.9471 -1.6600
 3447TIP3   OH234535   7.444   4.232  17.648  0.7199 -0.4539 -0.4440
 3447TIP3    H134536   7.520   4.256  17.595  0.4553  0.2654 -0.5008
 3447TIP3    H234537   7.369   4.260  17.597  0.4725  0.7064  0.5119
 3448TIP3   OH234538   3.789   0.585  19.348  0.5668  0.4203 -0.1919
 3448TIP3    H134539   3.884   0.585  19.351  0.5485  0.5897  0.4340
 3448TIP3    H234540   3.762   0.656  19.406  0.0646  0.6190 -0.6508
 3449TIP3   OH234541   5.212   0.322  19.666 -0.3180 -0.0387  0.1477
 3449TIP3    H134542   5.222   0.269  19.587 -1.8891 -0.2943  0.0836
 3449TIP3    H234543   5.247   0.268  19.737  0.2085 -0.2062 -0.2343
 3450TIP3   OH234544   1.340   5.599  18.617  0.2411  0.0779 -0.4804
 3450TIP3    H134545   1.396   5.608  18.693 -1.0136  1.1104  0.3704
 3450TIP3    H234546   1.366   5.516  18.577  0.2425 -1.0060  1.6487
 3451TIP3   OH234547   3.646   5.222  18.509 -0.6131  0.1140  0.5499
 3451TIP3    H134548   3.721   5.170  18.480 -1.7997 -1.6089  0.3890
 3451TIP3    H234549   3.648   5.301  18.456 -0.6646 -1.3170 -1.7041
 3452TIP3   OH234550   2.189   3.692  18.536  0.0961 -0.9476 -0.2221
 3452TIP3    H134551   2.249   3.640  18.590  0.4184 -0.9955 -0.6238
 3452TIP3    H234552   2.104   3.683  18.579 -0.3473 -3.6117 -1.4695
 3453TIP3   OH234553   0.372   5.141  17.668  0.5166  0.0948 -0.1677
 3453TIP3    H134554   0.293   5.091  17.645  0.3417 -0.7703  2.0408
 3453TIP3    H234555   0.442   5.075  17.671  0.8869  0.4898 -0.0814
 3454TIP3   OH234556   1.460   1.533  17.033 -0.0354  0.6457 -0.3483
 3454TIP3    H134557   1.414   1.617  17.034 -0.4736  0.4029  0.0599
 3454TIP3    H234558   1.398   1.473  16.991 -0.4569  0.1160  0.9934
 3455TIP3   OH234559   3.497   4.000  18.364 -0.3212  0.2266  0.4358
 3455TIP3    H134560   3.589   3.993  18.391 -0.1798  0.3790  0.0061
 3455TIP3    H234561   3.499   4.053  18.285 -0.8265  0.5638  0.6454
 3456TIP3   OH234562   3.506   0.341  18.467 -0.4421  0.0173  0.2724
 3456TIP3    H134563   3.443   0.273  18.444 -0.9594 -0.1675  2.1202
 3456TIP3    H234564   3.488   0.361  18.559 -0.8655  3.2204 -0.3789
 3457TIP3   OH234565   3.400   1.951  17.172 -0.4622 -0.1260  0.0124
 3457TIP3    H134566   3.347   2.021  17.134  0.8180  0.5421 -0.6124
 3457TIP3    H234567   3.441   1.908  17.097 -1.8410 -2.1368  0.3042
 3458TIP3   OH234568   5.459   0.257  19.020 -0.1981 -0.0124  0.2520
 3458TIP3    H134569   5.497   0.307  19.092  1.0529  0.6155 -0.8009
 3458TIP3    H234570   5.365   0.271  19.028  0.0469  1.5351  0.7084
 3459TIP3   OH234571   7.308   6.141  18.532  0.6004 -0.2844 -0.0572
 3459TIP3    H134572   7.305   6.129  18.627  0.9729 -1.0563 -0.1322
 3459TIP3    H234573   7.218   6.130  18.503  0.5601 -0.5214  0.1572
 3460TIP3   OH234574   7.679   0.351  17.867 -0.2125  0.0628  0.7556
 3460TIP3    H134575   7.763   0.363  17.822 -0.5916  1.1407  0.3148
 3460TIP3    H234576   7.671   0.256  17.876  0.1102 -0.1625 -1.0115
 3461TIP3   OH234577   4.162   2.526  16.965 -0.2246  0.2741 -1.0575
 3461TIP3    H134578   4.093   2.585  16.935 -1.1957 -1.1380 -1.7062
 3461TIP3    H234579   4.220   2.517  16.890  1.0315  1.8669 -0.3548
 3462TIP3   OH234580   5.435   5.231  17.837  0.0151  0.0163  0.2668
 3462TIP3    H134581   5.413   5.323  17.854 -1.0980  0.0155 -0.9733
 3462TIP3    H234582   5.458   5.195  17.922 -0.3134  1.2514  0.8990
 3463TIP3   OH234583   2.904   4.833  17.552  0.0546 -0.3313 -0.0069
 3463TIP3    H134584   2.923   4.747  17.589 -0.4935  0.3359  1.9227
 3463TIP3    H234585   2.972   4.846  17.486 -0.0254 -2.3497 -0.5580
 3464TIP3   OH234586   7.185   5.495  17.863  0.0133  0.3566  0.1543
 3464TIP3    H134587   7.239   5.530  17.935 -1.5639  0.5877  1.2699
 3464TIP3    H234588   7.146   5.415  17.899 -0.7765  0.4590 -0.4537
 3465TIP3   OH234589   1.800   5.360  19.456 -0.7013  0.3135 -0.7158
 3465TIP3    H134590   1.872   5.416  19.486  0.1120 -0.4067 -1.2637
 3465TIP3    H234591   1.726   5.384  19.512  0.0455  0.8600  0.0731
 3466TIP3   OH234592   0.458   3.247  16.681  0.4144  0.9539  0.4968
 3466TIP3    H134593   0.407   3.315  16.726 -0.7636 -0.1950  0.9966
 3466TIP3    H234594   0.395   3.206  16.621  0.4380 -1.0773  1.7432
 3467TIP3   OH234595   5.292   2.838  19.011  0.0110 -0.1985  0.0300
 3467TIP3    H134596   5.258   2.890  19.084 -0.4945 -0.4087 -0.0511
 3467TIP3    H234597   5.293   2.898  18.937 -0.6060 -0.3053 -0.0714
 3468TIP3   OH234598   0.897   4.684  17.185  0.4320  0.0750  0.1434
 3468TIP3    H134599   0.842   4.606  17.171  0.4489 -0.1703  1.3339
 3468TIP3    H234600   0.858   4.751  17.129 -0.4565 -0.3860  0.1882
 3469TIP3   OH234601   1.204   7.555  19.095  0.1107  0.3308 -0.5088
 3469TIP3    H134602   1.131   7.616  19.106  1.4361  1.9105 -0.0911
 3469TIP3    H234603   1.184   7.508  19.014  0.2984  3.2129 -2.3709
 3470TIP3   OH234604   5.293   4.097  18.646 -0.1727  0.0107 -0.3121
 3470TIP3    H134605   5.278   4.118  18.738 -1.2556 -0.3765 -0.3864
 3470TIP3    H234606   5.214   4.051  18.618 -0.7776  1.8685 -1.9727
 3471TIP3   OH234607   0.105   2.293  19.285 -0.2117 -0.2187  0.1636
 3471TIP3    H134608   0.117   2.198  19.279  0.7984 -0.0129 -1.4385
 3471TIP3    H234609   0.193   2.328  19.299 -0.6412  0.4729  1.3011
 3472TIP3   OH234610   0.552   2.108  18.383 -0.1491  0.2395  0.2521
 3472TIP3    H134611   0.604   2.173  18.336  0.1278 -1.1909 -1.5192
 3472TIP3    H234612   0.600   2.026  18.373 -1.9275 -0.8306 -0.1420
 3473TIP3   OH234613   3.909   1.809  17.134 -0.2348  0.4180 -0.0416
 3473TIP3    H134614   3.983   1.790  17.076  0.9410 -0.2943  1.6168
 3473TIP3    H234615   3.917   1.902  17.153 -0.4880  0.6039 -0.8130
 3474TIP3   OH234616   0.983   4.169  17.832  0.3010 -0.4685  0.1286
 3474TIP3    H134617   0.934   4.211  17.761 -0.1703 -1.6961 -0.3103
 3474TIP3    H234618   1.044   4.237  17.863 -0.1020  0.3718 -0.8486
 3475TIP3   OH234619   4.237   3.656  19.324 -0.4383 -0.2063 -0.5394
 3475TIP3    H134620   4.168   3.592  19.305 -0.9988  0.3999 -0.6055
 3475TIP3    H234621   4.210   3.734  19.276 -0.1568  0.3112  0.1364
 3476TIP3   OH234622   3.620   2.439  19.574  0.3351  0.3868 -0.3164
 3476TIP3    H134623   3.694   2.499  19.566 -0.4917  1.3201 -1.3091
 3476TIP3    H234624   3.556   2.486  19.628 -0.2700  0.3740 -1.0015
 3477TIP3   OH234625   2.662   1.754  18.598 -0.1784 -0.1627  0.1287
 3477TIP3    H134626   2.659   1.778  18.506 -0.2113  3.3921  0.9049
 3477TIP3    H234627   2.742   1.794  18.631  0.3357 -2.1802  1.5137
 3478TIP3   OH234628   2.535   7.486  19.000  0.1774 -0.5515 -0.2594
 3478TIP3    H134629   2.588   7.407  18.988  0.8312 -0.3348  0.9696
 3478TIP3    H234630   2.591   7.558  18.972 -0.0051 -0.4343 -0.3286
 3479TIP3   OH234631   7.221   2.362  17.657  0.3701  0.1529 -0.2285
 3479TIP3    H134632   7.242   2.370  17.564 -0.3271 -1.6944 -0.5893
 3479TIP3    H234633   7.143   2.307  17.659  2.8241 -3.6491  1.5889
 3480TIP3   OH234634   4.063   2.408  19.114 -0.3732  0.2944 -0.0562
 3480TIP3    H134635   4.107   2.474  19.166  0.0315  0.8703 -1.0872
 3480TIP3    H234636   4.017   2.353  19.177  2.1472 -0.6064  1.1396
 3481TIP3   OH234637   3.793   7.363  17.846 -0.3301 -0.2528  0.1621
 3481TIP3    H134638   3.742   7.370  17.765 -2.0575 -1.5641  1.0609
 3481TIP3    H234639   3.884   7.366  17.817 -0.8672 -1.8212 -1.9849
 3482TIP3   OH234640   3.874   1.867  18.467  0.1469 -0.8572  0.2491
 3482TIP3    H134641   3.903   1.776  18.473 -0.0619 -0.9971 -0.6562
 3482TIP3    H234642   3.848   1.877  18.375 -2.1341 -0.5705  0.8664
 3483TIP3   OH234643   3.459   6.911  17.268  0.7458  0.4356 -0.0036
 3483TIP3    H134644   3.440   6.978  17.334 -0.9616  1.6039 -1.5728
 3483TIP3    H234645   3.537   6.944  17.223  0.6638  0.7264  0.0622
 3484TIP3   OH234646   6.847   4.256  16.860 -0.2304  0.2667  0.2369
 3484TIP3    H134647   6.901   4.314  16.806  1.4220 -2.2000 -0.9979
 3484TIP3    H234648   6.766   4.245  16.810  0.6279 -0.6978 -1.0223
 3485TIP3   OH234649   3.501   4.779  18.250 -0.2320 -0.1867 -0.2783
 3485TIP3    H134650   3.537   4.778  18.338 -1.4191 -0.4435  0.2191
 3485TIP3    H234651   3.554   4.843  18.202  0.4186 -0.0525  0.6157
 3486TIP3   OH234652   7.217   4.272  19.318  0.4275  0.2545 -0.5772
 3486TIP3    H134653   7.178   4.248  19.402 -0.9777  0.7167 -1.0724
 3486TIP3    H234654   7.300   4.224  19.316 -0.6070 -1.6797  0.0357
 3487TIP3   OH234655   0.263   4.443  18.550 -0.1948 -0.4339  0.1850
 3487TIP3    H134656   0.175   4.477  18.566  0.3716  0.4936  1.4345
 3487TIP3    H234657   0.313   4.519  18.520  0.6638 -0.4991  1.3917
 3488TIP3   OH234658   4.110   2.734  18.673  0.4795 -0.3202  0.0941
 3488TIP3    H134659   4.073   2.664  18.727 -0.0140 -1.4206 -1.5743
 3488TIP3    H234660   4.174   2.777  18.729 -1.1930 -0.2921  2.0803
 3489TIP3   OH234661   6.855   7.527  17.858 -0.0915 -0.8534 -0.2884
 3489TIP3    H134662   6.943   7.558  17.877 -0.4606  1.2130 -1.6531
 3489TIP3    H234663   6.862   7.431  17.859  2.0469 -0.7266  0.0234
 3490TIP3   OH234664   7.233   3.244  17.633 -0.2386  0.1979  0.0319
 3490TIP3    H134665   7.146   3.265  17.599 -0.1757 -1.9064 -1.6885
 3490TIP3    H234666   7.216   3.191  17.710 -0.4688  0.6156  0.2694
 3491TIP3   OH234667   6.770   5.350  19.289 -0.6879  0.3253 -0.0187
 3491TIP3    H134668   6.754   5.310  19.375 -0.1593  1.6009  0.6933
 3491TIP3    H234669   6.865   5.357  19.283 -0.7627  1.2771 -0.2182
 3492TIP3   OH234670   4.372   4.275  17.808  0.6145  0.4585 -0.5826
 3492TIP3    H134671   4.360   4.348  17.868  2.1017  0.8810 -0.7397
 3492TIP3    H234672   4.284   4.248  17.784  0.0013  0.7626  1.1908
 3493TIP3   OH234673   3.055   1.585  18.514  0.2883 -0.5247 -0.2156
 3493TIP3    H134674   3.136   1.542  18.542  0.2346 -0.6701 -0.2816
 3493TIP3    H234675   2.996   1.578  18.589  0.3881 -0.2828 -0.1118
 3494TIP3   OH234676   1.357   6.484  17.726 -0.2219 -0.1427 -0.0833
 3494TIP3    H134677   1.307   6.517  17.652 -0.1768 -0.1252 -0.1061
 3494TIP3    H234678   1.301   6.416  17.764 -0.8650  0.7925  0.7087
 3495TIP3   OH234679   1.746   0.027  17.258  0.2394  0.3904 -0.1224
 3495TIP3    H134680   1.754   0.112  17.301 -0.2191  0.4228 -0.1022
 3495TIP3    H234681   1.685  -0.022  17.313 -0.6729  0.5702 -0.9519
 3496TIP3   OH234682   4.579   7.069  18.094 -0.6146 -0.5621  0.3440
 3496TIP3    H134683   4.654   7.022  18.131 -0.9038 -0.0095  1.6866
 3496TIP3    H234684   4.613   7.157  18.077 -0.7350 -0.5537  0.1450
 3497TIP3   OH234685   5.327   3.641  18.853  0.0693  0.0163 -0.3289
 3497TIP3    H134686   5.351   3.612  18.941  0.1891  0.3663 -0.2443
 3497TIP3    H234687   5.250   3.590  18.830 -1.2820  1.4336  0.8424
 3498TIP3   OH234688   1.098   6.951  18.696  0.1480  0.0618 -0.0796
 3498TIP3    H134689   1.136   6.864  18.709 -0.1525 -0.0778 -0.1294
 3498TIP3    H234690   1.165   7.012  18.728  0.2311 -0.2009  0.2446
 3499TIP3   OH234691   1.623   0.215  16.818 -0.2300  0.0134 -0.3034
 3499TIP3    H134692   1.704   0.264  16.823 -0.6654  0.7970 -0.8267
 3499TIP3    H234693   1.559   0.277  16.783 -1.1329 -0.4893  0.4048
 3500TIP3   OH234694   6.896   6.204  18.682  0.4629  0.4675  0.2994
 3500TIP3    H134695   6.960   6.269  18.653 -1.2089  2.0006 -0.1313
 3500TIP3    H234696   6.821   6.215  18.623 -1.4686  0.9476  2.6631
 3501TIP3   OH234697   0.389   3.883  18.752  0.2942  0.1709  0.0898
 3501TIP3    H134698   0.301   3.915  18.732  0.4291  1.8570  1.8655
 3501TIP3    H234699   0.374   3.799  18.796 -0.3449 -0.0619 -0.5447
 3502TIP3   OH234700   0.513   4.736  19.780 -0.1720 -0.6204  0.0213
 3502TIP3    H134701   0.568   4.751  19.857 -1.4604 -1.9232  1.2893
 3502TIP3    H234702   0.481   4.823  19.756  2.2833  0.1527 -0.6982
 3503TIP3   OH234703   2.919   1.115  19.657  0.1464 -0.3303 -0.0069
 3503TIP3    H134704   2.938   1.076  19.572  0.1025  0.2161 -0.2689
 3503TIP3    H234705   3.005   1.125  19.699  0.0076 -3.3017  1.2443
 3504TIP3   OH234706   7.328   2.524  18.291  0.2434 -0.4776 -0.2447
 3504TIP3    H134707   7.243   2.561  18.316  0.1883  0.0732 -1.1952
 3504TIP3    H234708   7.358   2.479  18.370 -1.1460 -1.1026 -0.0438
 3505TIP3   OH234709   2.448   5.235  17.702 -0.0850  0.7715 -0.9180
 3505TIP3    H134710   2.405   5.163  17.748  0.1757  0.8583 -0.5327
 3505TIP3    H234711   2.526   5.194  17.664  0.8714  1.1499  0.5587
 3506TIP3   OH234712   1.456   1.891  18.348  0.1720 -0.4460 -0.5885
 3506TIP3    H134713   1.491   1.905  18.260  1.7240 -0.0369  0.0588
 3506TIP3    H234714   1.487   1.966  18.398 -0.2730 -0.9251  0.4290
 3507TIP3   OH234715   0.477   4.306  19.478 -0.2238 -0.2337  0.2593
 3507TIP3    H134716   0.413   4.259  19.426 -0.0729 -0.1298 -0.0207
 3507TIP3    H234717   0.425   4.366  19.532 -0.3228  0.3299 -0.4471
 3508TIP3   OH234718   2.697   4.876  18.537 -0.2575 -0.0334  0.1825
 3508TIP3    H134719   2.765   4.911  18.595 -2.2568  1.0470  2.0284
 3508TIP3    H234720   2.743   4.854  18.456  2.1061  1.4403  1.0279
 3509TIP3   OH234721   1.746   2.505  17.483 -0.3747  0.3779  0.4867
 3509TIP3    H134722   1.810   2.555  17.433  0.0359 -0.2351  0.3829
 3509TIP3    H234723   1.795   2.469  17.556 -0.0019 -2.0170 -0.8270
 3510TIP3   OH234724   4.854   3.210  17.393 -0.2080  0.3811 -0.1846
 3510TIP3    H134725   4.821   3.296  17.419  0.2551  0.4510  0.2062
 3510TIP3    H234726   4.812   3.149  17.454 -1.3519  0.1913 -1.1290
 3511TIP3   OH234727   1.330   6.864  19.011  0.0709  0.6750 -0.1413
 3511TIP3    H134728   1.399   6.844  18.948  0.1323 -1.4052  0.5193
 3511TIP3    H234729   1.251   6.824  18.974 -0.0991  0.2899  0.6223
 3512TIP3   OH234730   5.986   7.171  19.701  0.5307 -0.1296  0.4672
 3512TIP3    H134731   5.965   7.257  19.737  0.2783 -0.0287  0.0750
 3512TIP3    H234732   5.951   7.172  19.612  2.4346  0.1742 -0.3416
 3513TIP3   OH234733   5.934   5.230  17.510  0.0940 -0.0942 -1.0392
 3513TIP3    H134734   5.870   5.159  17.515 -0.5626  0.5600  0.6446
 3513TIP3    H234735   5.923   5.265  17.421 -1.1703 -0.6697 -1.1393
 3514TIP3   OH234736   3.534   5.976  18.768 -0.1923 -0.3652 -0.3461
 3514TIP3    H134737   3.602   5.948  18.707 -1.2710 -0.3193 -1.6101
 3514TIP3    H234738   3.462   6.006  18.712 -1.2318 -0.3524  0.9424
 3515TIP3   OH234739   2.555   5.630  17.827  0.1241  0.1570  0.4860
 3515TIP3    H134740   2.629   5.688  17.810  1.3650 -1.4164  0.3125
 3515TIP3    H234741   2.479   5.688  17.822  1.2598  1.7135  0.0480
 3516TIP3   OH234742   7.226   3.549  16.833  0.2842 -0.0946 -0.5750
 3516TIP3    H134743   7.269   3.464  16.830 -0.1622 -0.3461 -0.1661
 3516TIP3    H234744   7.229   3.574  16.926  3.1537  1.7975 -1.0656
 3517TIP3   OH234745   3.134   1.900  18.598 -0.2726 -0.0651  0.4234
 3517TIP3    H134746   3.095   1.983  18.625  1.3340  1.1481 -0.7451
 3517TIP3    H234747   3.129   1.844  18.675 -2.6596  0.5975  0.8262
 3518TIP3   OH234748   0.678   1.463  18.676 -0.4159  0.3585  0.2707
 3518TIP3    H134749   0.610   1.500  18.619 -0.6049 -0.1599  0.1601
 3518TIP3    H234750   0.738   1.418  18.616  1.5407  3.0315  0.0239
 3519TIP3   OH234751   3.663   6.286  17.964  0.3628  0.6322  0.1833
 3519TIP3    H134752   3.630   6.307  17.877 -0.0157  1.1095  0.4408
 3519TIP3    H234753   3.584   6.269  18.016  0.5600  0.9638  0.5917
 3520TIP3   OH234754   2.964   7.190  19.048 -0.3102  0.2138 -0.4681
 3520TIP3    H134755   3.022   7.249  19.096  0.1236  0.8058 -1.6859
 3520TIP3    H234756   3.002   7.103  19.061 -0.5204  0.2793  0.7068
 3521TIP3   OH234757   0.332   1.595  17.732  0.5701 -0.3057  0.2626
 3521TIP3    H134758   0.423   1.572  17.751  1.4566  0.9189 -2.0340
 3521TIP3    H234759   0.307   1.653  17.803  0.6798 -2.5501  2.2611
 3522TIP3   OH234760   5.504   6.840  16.760 -0.2005  0.1314  0.3838
 3522TIP3    H134761   5.553   6.909  16.805 -0.5070 -1.6908  3.8389
 3522TIP3    H234762   5.568   6.770  16.747 -0.7516 -0.3955  0.4642
 3523TIP3   OH234763   4.879   1.991  17.886  0.1548  0.7129 -0.1092
 3523TIP3    H134764   4.790   1.958  17.895  0.2683 -0.0236 -1.5425
 3523TIP3    H234765   4.930   1.942  17.951 -0.2908  0.4552  0.0449
 3524TIP3   OH234766   7.137   5.282  18.047  0.2223 -0.1837  0.1058
 3524TIP3    H134767   7.114   5.314  18.134  0.4144  0.0675  0.0656
 3524TIP3    H234768   7.220   5.236  18.059 -0.5545 -1.5534  0.3446
 3525TIP3   OH234769   2.032   2.456  16.918 -0.4270 -0.6093  0.0860
 3525TIP3    H134770   2.039   2.543  16.879  0.7149 -1.1035 -0.8684
 3525TIP3    H234771   1.954   2.418  16.878 -1.9285  0.5642  1.7778
 3526TIP3   OH234772   3.992   7.528  17.732  0.1494  0.3220  0.1695
 3526TIP3    H134773   3.925   7.583  17.691 -0.0275 -0.6467 -0.8827
 3526TIP3    H234774   4.038   7.587  17.792 -0.4962  1.4337 -0.3961
 3527TIP3   OH234775   5.550   2.056  17.713 -0.4643  0.2070 -0.0745
 3527TIP3    H134776   5.602   2.016  17.782  3.4447  0.3110 -2.6643
 3527TIP3    H234777   5.523   1.983  17.657 -0.7735  0.4175 -0.2056
 3528TIP3   OH234778   4.792   2.589  17.324 -0.3821 -0.4353  0.0796
 3528TIP3    H134779   4.743   2.649  17.380 -0.6229  0.3766 -0.9602
 3528TIP3    H234780   4.881   2.625  17.323 -0.7961  0.6428 -1.4940
 3529TIP3   OH234781   5.715   6.587  17.667 -0.7881  0.4373 -0.1525
 3529TIP3    H134782   5.668   6.616  17.588 -0.9606  0.4026 -0.0637
 3529TIP3    H234783   5.807   6.591  17.643 -0.8915 -1.3514 -0.9846
 3530TIP3   OH234784   6.353   1.430  17.910 -0.2329 -0.6934  0.3838
 3530TIP3    H134785   6.447   1.441  17.919 -0.2994  0.5608 -0.1537
 3530TIP3    H234786   6.341   1.338  17.890  0.9344 -0.7698 -0.0353
 3531TIP3   OH234787   5.652   0.086  17.644 -0.1498  0.0017  0.3522
 3531TIP3    H134788   5.712   0.160  17.649  0.5947 -0.6575  1.6991
 3531TIP3    H234789   5.630   0.079  17.551  2.7493 -0.3921 -0.4236
 3532TIP3   OH234790   1.115   3.694  17.473  0.6278  0.7777  0.4727
 3532TIP3    H134791   1.037   3.747  17.455  1.2649  1.5612 -0.1124
 3532TIP3    H234792   1.141   3.660  17.388  1.0107  0.6589  0.6337
 3533TIP3   OH234793   7.300   5.064  18.120  0.6781 -0.6076 -0.3300
 3533TIP3    H134794   7.322   4.996  18.183  0.0799 -2.6813 -2.2122
 3533TIP3    H234795   7.384   5.099  18.090  0.9686  0.3104  1.4092
 3534TIP3   OH234796   1.096   0.519  19.132 -0.1917  0.1226 -0.1169
 3534TIP3    H134797   1.024   0.505  19.071 -0.4619 -1.6837  0.5708
 3534TIP3    H234798   1.070   0.595  19.184 -0.0371  1.6001 -2.0679
 3535TIP3   OH234799   0.322   4.353  17.872  0.3611  0.1806 -0.2060
 3535TIP3    H134800   0.360   4.322  17.955  3.4979 -0.3179 -1.6912
 3535TIP3    H234801   0.368   4.435  17.854 -1.8279  1.4087 -0.4755
 3536TIP3   OH234802   4.195   1.445  17.671 -0.3504 -0.2606 -0.2438
 3536TIP3    H134803   4.123   1.507  17.681  0.6612  0.9224 -0.1223
 3536TIP3    H234804   4.255   1.466  17.742 -0.2251 -1.7421  0.1208
 3537TIP3   OH234805   2.048   4.021  17.190 -0.0256  0.2655 -0.0292
 3537TIP3    H134806   1.960   3.984  17.189 -0.0867  0.4168 -0.9561
 3537TIP3    H234807   2.036   4.113  17.164  0.1462  0.9251  2.0275
 3538TIP3   OH234808   0.812   7.534  18.513  0.0106  0.2250 -0.4072
 3538TIP3    H134809   0.904   7.511  18.498  0.0159 -0.0945  0.0988
 3538TIP3    H234810   0.783   7.571  18.429 -0.0888 -1.9355 -1.3934
 3539TIP3   OH234811   5.684   2.053  18.892  0.5996 -0.5861  0.4812
 3539TIP3    H134812   5.686   2.046  18.797  1.1981  0.9265  0.3650
 3539TIP3    H234813   5.698   1.963  18.923  3.7136 -0.6851 -0.8495
 3540TIP3   OH234814   6.783   1.585  17.781  0.0485 -0.1489 -0.0150
 3540TIP3    H134815   6.808   1.668  17.822 -0.3105  0.3380 -0.7700
 3540TIP3    H234816   6.726   1.543  17.846 -2.0074  1.4306 -0.6837
 3541TIP3   OH234817   1.919   7.015  19.591  0.0857 -0.4521 -0.2741
 3541TIP3    H134818   1.974   7.092  19.576 -0.9462  0.2606 -0.5468
 3541TIP3    H234819   1.837   7.036  19.547 -0.9889 -0.7895  1.4668
 3542TIP3   OH234820   7.331   7.114  19.440  0.7283 -0.3701 -0.0252
 3542TIP3    H134821   7.384   7.154  19.510  1.4930 -0.8515 -0.3097
 3542TIP3    H234822   7.294   7.035  19.480  0.5505 -0.2450  0.0563
 3543TIP3   OH234823   0.122   1.378  17.639  0.5969  0.5995  0.2689
 3543TIP3    H134824   0.039   1.425  17.637  0.4988  0.4176  0.0078
 3543TIP3    H234825   0.188   1.445  17.658  0.6336  1.1008 -1.5032
 3544TIP3   OH234826   5.457   2.172  17.465 -0.1291 -0.3503 -0.4908
 3544TIP3    H134827   5.512   2.143  17.538 -0.3412 -0.4895 -0.3855
 3544TIP3    H234828   5.368   2.160  17.496 -0.2273 -1.1761 -1.0653
 3545TIP3   OH234829   7.052   5.750  18.357 -0.1379 -0.0050  0.5021
 3545TIP3    H134830   7.119   5.738  18.289 -0.0216 -1.8802  0.9083
 3545TIP3    H234831   6.970   5.755  18.308  0.0172 -0.6238  0.1640
 3546TIP3   OH234832   5.606   6.615  17.912 -0.3661 -0.0207 -0.2807
 3546TIP3    H134833   5.651   6.696  17.934 -0.0010 -0.3049  0.0497
 3546TIP3    H234834   5.647   6.585  17.831  1.6566 -1.4275  1.1465
 3547TIP3   OH234835   3.453   2.808  19.005 -0.2234 -0.3255 -0.0638
 3547TIP3    H134836   3.485   2.753  18.933  1.2398  0.9881 -0.4856
 3547TIP3    H234837   3.475   2.897  18.978  0.5590  0.1913  2.1019
 3548TIP3   OH234838   7.566   7.083  17.173 -0.2722  0.7406 -0.3069
 3548TIP3    H134839   7.660   7.095  17.189 -0.5860  2.2298  0.6413
 3548TIP3    H234840   7.561   7.011  17.110  1.2870 -2.0934  2.5894
 3549TIP3   OH234841   5.852   0.228  17.464  0.1658  0.2882  0.2883
 3549TIP3    H134842   5.783   0.183  17.416  1.7391 -1.0144 -0.8283
 3549TIP3    H234843   5.817   0.317  17.477 -1.5465 -0.2115 -0.5577
 3550TIP3   OH234844   6.690   7.476  17.201 -0.3618 -0.0369  0.1239
 3550TIP3    H134845   6.619   7.413  17.194  0.1287 -0.8109  1.7431
 3550TIP3    H234846   6.769   7.426  17.178 -0.1482  0.4317 -0.1891
 3551TIP3   OH234847   0.288   7.577  17.903  0.0382 -0.6216 -0.1903
 3551TIP3    H134848   0.274   7.593  17.810 -1.2094 -1.3357 -0.1602
 3551TIP3    H234849   0.216   7.518  17.928 -0.3884  0.5196  1.4873
 3552TIP3   OH234850   6.102   7.101  19.234  0.0593 -0.0054  0.5870
 3552TIP3    H134851   6.152   7.036  19.284 -1.3530 -2.3033 -0.7684
 3552TIP3    H234852   6.050   7.048  19.173 -0.3046  2.5105 -1.4208
 3553TIP3   OH234853   2.018   0.363  19.241  0.0293 -0.0995  0.1311
 3553TIP3    H134854   1.986   0.382  19.329 -1.1738  2.2016 -0.7295
 3553TIP3    H234855   2.106   0.329  19.255  0.3580  1.4046  2.1736
 3554TIP3   OH234856   3.704   0.204  18.782 -0.5698 -0.4951  0.0588
 3554TIP3    H134857   3.744   0.253  18.854  0.5064 -1.4159  0.1094
 3554TIP3    H234858   3.754   0.229  18.704 -0.6078 -0.8101 -0.0702
 3555TIP3   OH234859   4.684   5.196  17.491 -0.6400 -0.4190 -0.5798
 3555TIP3    H134860   4.599   5.152  17.489 -0.5400 -1.3766  4.0739
 3555TIP3    H234861   4.670   5.277  17.443 -3.6170 -1.3366 -1.5096
 3556TIP3   OH234862   0.908   2.073  16.956  0.1441 -0.6779 -0.0404
 3556TIP3    H134863   0.949   2.158  16.967 -0.6705 -0.2214 -0.4448
 3556TIP3    H234864   0.951   2.035  16.879 -0.6699  0.0982 -0.8930
 3557TIP3   OH234865   5.323   5.057  17.670  0.0661 -0.3760  0.3448
 3557TIP3    H134866   5.368   5.122  17.723 -0.3217 -0.3250  0.6223
 3557TIP3    H234867   5.318   5.095  17.582  0.7470 -0.4768  0.2632
 3558TIP3   OH234868   2.511   1.533  19.014 -0.2882 -0.5147 -0.2189
 3558TIP3    H134869   2.520   1.477  18.937  1.3152 -0.1130 -0.3678
 3558TIP3    H234870   2.566   1.608  18.995  0.4134 -0.5673  1.4468
 3559TIP3   OH234871   5.686   4.004  18.083 -0.0615  0.2540 -0.4478
 3559TIP3    H134872   5.598   4.029  18.057 -0.2899 -0.7698 -0.7027
 3559TIP3    H234873   5.685   4.006  18.178 -0.4627 -0.0930 -0.4428
 3560TIP3   OH234874   4.012   6.834  17.435  0.3685 -0.7053 -0.0722
 3560TIP3    H134875   4.032   6.741  17.447  3.5898 -0.2413 -1.1096
 3560TIP3    H234876   3.950   6.836  17.362  1.5150 -1.9762 -1.1289
 3561TIP3   OH234877   0.207   2.815  18.169 -0.5643 -0.0586 -0.5752
 3561TIP3    H134878   0.198   2.770  18.253  4.1899 -0.8944 -0.2058
 3561TIP3    H234879   0.175   2.752  18.105 -1.1852 -0.7803  0.4087
 3562TIP3   OH234880   7.372   5.403  16.537 -0.3285 -0.1574  0.4727
 3562TIP3    H134881   7.278   5.418  16.530 -0.3020 -0.5889 -1.1739
 3562TIP3    H234882   7.397   5.443  16.621 -1.7349  1.1580  0.2957
 3563TIP3   OH234883   7.241   4.189  19.782 -0.0670  0.2160 -0.0971
 3563TIP3    H134884   7.242   4.098  19.813 -2.8273 -0.6378 -2.1728
 3563TIP3    H234885   7.320   4.196  19.729  1.1652 -0.3297  1.5622
 3564TIP3   OH234886   1.725   2.598  16.818  0.1021  0.0791 -0.8405
 3564TIP3    H134887   1.655   2.658  16.844  0.7871  0.5780 -0.0845
 3564TIP3    H234888   1.800   2.624  16.872  0.1124 -2.2025  0.3837
 3565TIP3   OH234889   6.102   2.951  18.255 -0.9308 -0.2403  0.3739
 3565TIP3    H134890   6.094   2.977  18.163 -1.5628  1.1941  0.8162
 3565TIP3    H234891   6.018   2.910  18.275 -1.2179  0.4670  0.6222
 3566TIP3   OH234892   4.032   0.512  18.491  0.3617 -0.2414  0.2524
 3566TIP3    H134893   3.971   0.570  18.535  0.0832 -0.5093  0.2199
 3566TIP3    H234894   4.055   0.446  18.557 -0.5183 -0.9928 -0.1757
 3567TIP3   OH234895   6.916   2.647  19.546  0.2236  0.0740  0.2188
 3567TIP3    H134896   6.967   2.575  19.509 -3.2318 -1.9197 -1.1370
 3567TIP3    H234897   6.882   2.613  19.628  0.3012  1.0278  0.6628
 3568TIP3   OH234898   7.472   6.038  18.888 -0.0544 -0.6319  0.3744
 3568TIP3    H134899   7.424   5.969  18.934  0.6427 -1.4163 -0.0416
 3568TIP3    H234900   7.406   6.103  18.865 -0.6353 -0.8927  1.2595
 3569TIP3   OH234901   0.062   3.421  17.953 -0.2204 -0.6009 -0.0623
 3569TIP3    H134902   0.026   3.494  18.002  1.9837  0.3148  0.3405
 3569TIP3    H234903   0.104   3.462  17.877  1.7418 -1.2711  0.5825
 3570TIP3   OH234904   4.205   5.314  17.835  0.3730  0.1661  0.4823
 3570TIP3    H134905   4.280   5.353  17.792 -0.1092  0.4684 -0.1078
 3570TIP3    H234906   4.129   5.353  17.791 -0.1208 -0.5165  0.7089
 3571TIP3   OH234907   3.551   4.720  18.727  0.0564 -0.1070 -0.1899
 3571TIP3    H134908   3.546   4.815  18.718 -2.6797  0.2475  2.8496
 3571TIP3    H234909   3.564   4.688  18.638  0.5493  3.0645 -1.4076
 3572TIP3   OH234910   7.054   6.402  18.596  0.3154 -0.5027 -0.1445
 3572TIP3    H134911   7.015   6.477  18.551 -2.6252 -1.4043  0.7079
 3572TIP3    H234912   7.080   6.436  18.682  3.5210  0.5743 -1.3713
 3573TIP3   OH234913   3.366   1.098  18.192  0.4907  0.8114 -0.3584
 3573TIP3    H134914   3.303   1.146  18.138 -0.0378  1.5133  0.8464
 3573TIP3    H234915   3.312   1.050  18.255  1.1291  0.8339  0.2148
 3574TIP3   OH234916   5.629   5.101  19.464 -0.2708 -0.3802  0.5309
 3574TIP3    H134917   5.722   5.112  19.486 -0.6671  1.3601  1.5216
 3574TIP3    H234918   5.603   5.022  19.512  0.2551  0.1977  1.8165
 3575TIP3   OH234919   4.993   4.476  19.075  0.0846 -0.0287  0.4813
 3575TIP3    H134920   5.077   4.521  19.085 -0.5366  1.5149 -0.7398
 3575TIP3    H234921   4.970   4.447  19.163  0.5857  2.0301  1.3474
 3576TIP3   OH234922   3.306   0.609  18.325  0.0155 -0.3168  0.2427
 3576TIP3    H134923   3.275   0.666  18.254 -0.8731 -1.4706 -0.3356
 3576TIP3    H234924   3.399   0.630  18.334  0.0406  0.1798 -0.9520
 3577TIP3   OH234925   0.508   2.442  18.072  0.0634  0.2878 -0.1309
 3577TIP3    H134926   0.518   2.367  18.013  1.7057 -0.1920  0.6937
 3577TIP3    H234927   0.508   2.518  18.015 -0.4022 -0.2818 -0.8975
 3578TIP3   OH234928   7.530   6.242  19.508 -0.1240  0.2824 -0.5067
 3578TIP3    H134929   7.489   6.328  19.506 -0.2820  0.1950 -1.3247
 3578TIP3    H234930   7.458   6.180  19.519  0.0115  0.2576  0.3315
 3579TIP3   OH234931   4.871   7.578  16.921 -0.7675 -0.5096 -0.0786
 3579TIP3    H134932   4.850   7.630  16.999 -1.4246  1.3627 -1.4256
 3579TIP3    H234933   4.965   7.563  16.926 -1.1244 -2.8679  2.4310
 3580TIP3   OH234934   1.877   2.341  18.422 -0.2071  0.7576  0.2655
 3580TIP3    H134935   1.969   2.368  18.419 -0.1483  0.4725 -1.0645
 3580TIP3    H234936   1.834   2.394  18.354 -0.9187  0.4830  0.4894
 3581TIP3   OH234937   5.006   5.271  16.932  0.4696 -0.1434  0.2473
 3581TIP3    H134938   5.094   5.241  16.910  0.4333  1.6268 -2.9323
 3581TIP3    H234939   4.949   5.202  16.897  0.4574 -1.9322  3.4324
 3582TIP3   OH234940   5.837   7.090  18.333  0.1524  0.2600 -0.0321
 3582TIP3    H134941   5.846   7.141  18.253 -0.9376 -1.1213 -1.1092
 3582TIP3    H234942   5.894   7.132  18.397  0.9248  1.4882 -1.4972
 3583TIP3   OH234943   2.447   1.769  19.663  0.4701 -0.2303 -0.0264
 3583TIP3    H134944   2.409   1.683  19.680  0.9630 -0.7579 -1.4476
 3583TIP3    H234945   2.384   1.831  19.699  0.2592 -1.1788  1.3107
 3584TIP3   OH234946   0.554   4.561  17.816 -0.6368  0.0942  0.7473
 3584TIP3    H134947   0.573   4.469  17.795 -0.3840  0.8361 -2.8820
 3584TIP3    H234948   0.615   4.582  17.886  0.2386 -2.1397  0.7620
 3585TIP3   OH234949   6.807   4.757  18.048  0.0563 -0.4347  0.3618
 3585TIP3    H134950   6.774   4.828  17.994 -0.7379 -0.7088  0.4693
 3585TIP3    H234951   6.806   4.793  18.137 -0.6393 -0.6708  0.4568
 3586TIP3   OH234952   2.661   4.614  19.126 -0.1739  0.3747  0.1140
 3586TIP3    H134953   2.640   4.528  19.163  0.1283 -0.3440 -1.3165
 3586TIP3    H234954   2.751   4.631  19.154  0.4305 -0.6503 -1.1118
 3587TIP3   OH234955   6.339   3.577  19.457 -0.1278 -0.3910  0.0199
 3587TIP3    H134956   6.314   3.602  19.368  1.3280  0.3980 -0.2038
 3587TIP3    H234957   6.428   3.545  19.449  0.3520  0.5215  1.3131
 3588TIP3   OH234958   6.668   5.233  17.627 -0.2112  0.5693  0.2629
 3588TIP3    H134959   6.593   5.221  17.685 -1.2805  1.2508 -0.9339
 3588TIP3    H234960   6.655   5.171  17.556  0.6055  0.3734  0.2728
 3589TIP3   OH234961   0.945   5.025  19.540 -0.3688 -0.2779 -0.0001
 3589TIP3    H134962   1.007   4.952  19.527  0.5785  0.6285 -0.7585
 3589TIP3    H234963   0.984   5.098  19.492 -1.9625  0.3808 -0.3372
 3590TIP3   OH234964   0.240   3.196  19.029  0.0919 -0.7558  0.0663
 3590TIP3    H134965   0.274   3.108  19.014 -0.8007 -1.0106 -0.4818
 3590TIP3    H234966   0.298   3.232  19.096  0.5855 -1.6845  0.1592
 3591TIP3   OH234967   0.433   6.416  19.235 -0.2742 -0.2303 -0.4847
 3591TIP3    H134968   0.436   6.432  19.141 -2.1849  1.5733 -0.3138
 3591TIP3    H234969   0.484   6.487  19.274 -1.5354  0.5003 -0.0932
 3592TIP3   OH234970   6.233   1.888  17.711 -0.7476 -0.7624 -0.1358
 3592TIP3    H134971   6.160   1.879  17.773  0.8792 -1.8270  1.7759
 3592TIP3    H234972   6.225   1.812  17.654 -1.2382 -0.7766 -0.0522
 3593TIP3   OH234973   2.630   7.636  18.684 -0.5167 -0.4609 -0.0262
 3593TIP3    H134974   2.647   7.693  18.610  1.2729 -0.4022  0.3932
 3593TIP3    H234975   2.535   7.627  18.686 -0.6961  0.8406 -1.3316
 3594TIP3   OH234976   3.519   4.421  17.007  0.3725 -0.0062  0.4032
 3594TIP3    H134977   3.571   4.472  16.945 -2.2405  0.8725 -1.2347
 3594TIP3    H234978   3.519   4.332  16.972 -0.1106  0.2324 -0.2204
 3595TIP3   OH234979   7.120   5.291  16.762 -0.2280 -0.3545  0.2950
 3595TIP3    H134980   7.152   5.371  16.805  0.1966 -0.3263 -0.0584
 3595TIP3    H234981   7.113   5.315  16.670  1.8191 -1.2663 -0.1575
 3596TIP3   OH234982   3.689   0.929  18.173  0.6941 -0.1276 -0.2092
 3596TIP3    H134983   3.783   0.944  18.176  0.9323 -1.5624  2.1592
 3596TIP3    H234984   3.653   1.008  18.132  2.9446  0.0188 -2.1150
 3597TIP3   OH234985   6.964   4.372  18.012 -0.4855  0.1394 -0.8138
 3597TIP3    H134986   6.908   4.432  18.061 -0.6085 -0.7727  0.2236
 3597TIP3    H234987   7.021   4.333  18.079 -1.5597 -2.1489 -1.1480
 3598TIP3   OH234988   3.018   1.031  17.598 -0.5368 -0.2604  0.0068
 3598TIP3    H134989   3.002   0.945  17.637  0.1639 -0.0077  0.8584
 3598TIP3    H234990   3.103   1.058  17.631  0.6566 -0.5162 -2.5848
 3599TIP3   OH234991   4.803   6.217  17.538 -0.2704 -0.4296  0.5640
 3599TIP3    H134992   4.712   6.241  17.557 -1.3689 -3.5258 -0.2575
 3599TIP3    H234993   4.823   6.263  17.457 -0.6021  1.2976  1.4113
 3600TIP3   OH234994   1.694   1.337  17.501  0.5173 -0.2916 -0.3305
 3600TIP3    H134995   1.750   1.324  17.577  1.3255  0.2392 -0.8218
 3600TIP3    H234996   1.748   1.312  17.426 -0.1741 -0.5351 -0.7591
 3601TIP3   OH234997   3.787   1.883  18.199 -0.1476  0.2360 -0.0659
 3601TIP3    H134998   3.692   1.877  18.213 -0.1306  0.7516  0.2971
 3601TIP3    H234999   3.796   1.905  18.107 -0.3360 -1.0246 -0.4097
 3602TIP3   OH235000   5.390   6.745  19.534 -0.3043 -0.1175  0.3429
 3602TIP3    H135001   5.389   6.776  19.444  0.2935  2.4577  1.1457
 3602TIP3    H235002   5.297   6.732  19.555 -0.4268 -1.1512 -0.7294
 3603TIP3   OH235003   3.320   3.251  18.127  0.5128  0.4205  0.1041
 3603TIP3    H135004   3.340   3.203  18.046  0.4725  1.0640 -0.2914
 3603TIP3    H235005   3.318   3.343  18.100  1.9496  0.7795  1.1163
 3604TIP3   OH235006   1.667   6.978  19.190  0.0508  0.6333 -0.1448
 3604TIP3    H135007   1.661   7.053  19.131 -0.2323  0.8418  0.1479
 3604TIP3    H235008   1.760   6.973  19.214  0.6967 -0.9351 -2.5201
 3605TIP3   OH235009   3.404   2.119  16.711  0.2583 -0.4728  0.2085
 3605TIP3    H135010   3.434   2.198  16.666  0.4845 -0.4425  0.4053
 3605TIP3    H235011   3.485   2.073  16.735  0.2395  0.3853  2.1414
 3606TIP3   OH235012   0.514   6.096  19.210 -0.1633 -0.1956 -0.5404
 3606TIP3    H135013   0.475   6.025  19.262  0.1318  0.8262  1.1596
 3606TIP3    H235014   0.451   6.168  19.217 -0.5556 -0.3207 -2.4145
 3607TIP3   OH235015   4.027   7.663  18.123  0.0142  0.0442 -0.6271
 3607TIP3    H135016   4.104   7.690  18.073 -0.1487  1.7720  0.0010
 3607TIP3    H235017   3.969   7.624  18.058  0.0339  1.7538 -1.7391
 3608TIP3   OH235018   0.759   6.753  17.943 -0.0521 -0.3786 -0.5391
 3608TIP3    H135019   0.718   6.749  18.029  0.5304  1.6538 -0.1069
 3608TIP3    H235020   0.762   6.847  17.922  0.8124 -0.7462 -2.2829
 3609TIP3   OH235021   7.596   3.784  17.494 -0.4279 -0.3166  0.0381
 3609TIP3    H135022   7.541   3.858  17.520 -1.8856 -0.9373 -1.1026
 3609TIP3    H235023   7.669   3.824  17.446 -1.3506  0.4082 -0.8252
 3610TIP3   OH235024   7.530   2.080  18.526 -0.1508 -0.0539 -0.1025
 3610TIP3    H135025   7.481   2.087  18.609 -0.2876 -1.2827 -0.0561
 3610TIP3    H235026   7.468   2.110  18.460 -1.5756 -2.8858 -0.2152
 3611TIP3   OH235027   2.210   6.687  18.589 -0.6666 -0.8424  0.8636
 3611TIP3    H135028   2.284   6.704  18.531 -1.1174 -3.2827 -0.6029
 3611TIP3    H235029   2.244   6.701  18.677  0.6551  0.9109  0.1339
 3612TIP3   OH235030   7.361   2.416  18.531  0.0007 -0.4096  0.0421
 3612TIP3    H135031   7.406   2.490  18.571 -1.5703  0.6211 -0.0219
 3612TIP3    H235032   7.296   2.389  18.596 -0.3606 -0.8497 -0.4928
 3613TIP3   OH235033   6.143   4.996  18.311 -0.3529  0.1550 -0.2428
 3613TIP3    H135034   6.206   4.935  18.349 -0.6328  0.0152 -0.0006
 3613TIP3    H235035   6.077   5.010  18.379 -0.6393  0.2213 -0.5263
 3614TIP3   OH235036   5.505   0.799  17.421 -0.0782 -0.1430 -0.1398
 3614TIP3    H135037   5.494   0.795  17.326 -0.9147 -3.3557 -0.0349
 3614TIP3    H235038   5.415   0.800  17.456  0.2001 -0.3072  0.6075
 3615TIP3   OH235039   5.064   6.904  19.215  0.0162  0.3227  0.3594
 3615TIP3    H135040   5.027   6.816  19.203  1.7799 -0.4211 -0.0660
 3615TIP3    H235041   4.988   6.961  19.229 -1.6461 -0.5024 -3.8025
 3616TIP3   OH235042   2.547   6.494  18.152 -0.0188 -0.5330  0.2555
 3616TIP3    H135043   2.516   6.457  18.069 -0.9872 -0.7567  0.6967
 3616TIP3    H235044   2.498   6.446  18.219  0.6302 -0.2371  0.9497
 3617TIP3   OH235045   6.850   2.952  18.326 -0.0906 -0.2813 -0.1060
 3617TIP3    H135046   6.888   3.033  18.360 -1.0600 -0.4804  1.5314
 3617TIP3    H235047   6.756   2.968  18.327 -0.2511 -1.1752 -0.4708
 3618TIP3   OH235048   2.647   0.499  18.331 -0.7347 -0.1582  0.5805
 3618TIP3    H135049   2.554   0.522  18.322 -0.2286  1.1867 -2.5716
 3618TIP3    H235050   2.669   0.456  18.249  1.5642  0.0059  1.0504
 3619TIP3   OH235051   0.319   0.369  17.851 -0.7984  0.5860 -0.0984
 3619TIP3    H135052   0.317   0.448  17.906  0.5747  0.4618  0.1751
 3619TIP3    H235053   0.338   0.298  17.913  0.2583  0.3735 -0.6422
 3620TIP3   OH235054   4.079   3.522  18.752  0.2013  0.0783 -0.2253
 3620TIP3    H135055   4.087   3.439  18.705 -1.9485 -0.7624  0.7524
 3620TIP3    H235056   4.058   3.496  18.842  2.1265  1.6731  0.7674
 3621TIP3   OH235057   7.218   1.202  18.445 -0.3608  0.2698 -0.1414
 3621TIP3    H135058   7.208   1.290  18.481  1.4719 -0.0018  1.1637
 3621TIP3    H235059   7.262   1.216  18.361 -0.7401  0.6277 -0.2851
 3622TIP3   OH235060   0.453   6.750  18.681  0.0598  0.1847  0.2043
 3622TIP3    H135061   0.464   6.655  18.671  1.3750 -0.0408  2.9188
 3622TIP3    H235062   0.368   6.759  18.725 -1.0423  0.4806 -1.8602
 3623TIP3   OH235063   3.464   4.768  19.088 -0.0531 -0.0199  0.3067
 3623TIP3    H135064   3.457   4.676  19.114  0.8839 -0.2678 -0.2556
 3623TIP3    H235065   3.557   4.788  19.095 -0.1198  0.6125 -0.4680
 3624TIP3   OH235066   5.293   3.434  17.761 -0.0028 -0.0096  0.2626
 3624TIP3    H135067   5.344   3.354  17.761  0.5985  0.3692 -0.1771
 3624TIP3    H235068   5.355   3.503  17.783 -0.4292  0.3906  0.2444
 3625TIP3   OH235069   5.871   3.398  19.118 -0.1213 -0.3516 -0.1281
 3625TIP3    H135070   5.887   3.368  19.208  0.0760 -0.2644 -0.1340
 3625TIP3    H235071   5.804   3.338  19.086  0.2941 -0.8209 -0.1499
 3626TIP3   OH235072   2.933   0.174  18.981 -0.5499 -0.0579  0.2650
 3626TIP3    H135073   3.002   0.116  19.012 -0.0295  0.5570  0.2821
 3626TIP3    H235074   2.889   0.203  19.060 -0.9352 -0.5723  0.2448
 3627TIP3   OH235075   0.427   4.678  16.882  0.2816  0.4524  0.0146
 3627TIP3    H135076   0.463   4.759  16.844  0.5502 -0.2151 -1.2176
 3627TIP3    H235077   0.333   4.686  16.868  0.4563 -0.2308 -1.7814
 3628TIP3   OH235078   1.069   2.629  17.942 -0.0142  0.2561  0.2436
 3628TIP3    H135079   1.050   2.722  17.955 -1.8181  0.1224 -1.0206
 3628TIP3    H235080   1.090   2.622  17.849  0.1256 -0.6044  0.3365
 3629TIP3   OH235081   1.090   4.532  17.453  0.5758  0.2326 -0.0603
 3629TIP3    H135082   1.021   4.590  17.422 -0.7644 -0.9847  0.5455
 3629TIP3    H235083   1.103   4.469  17.382  2.5930  1.6439 -1.0599
 3630TIP3   OH235084   2.289   5.684  18.004 -0.8924  0.2859  0.0178
 3630TIP3    H135085   2.228   5.645  18.066  2.3576 -1.4119  2.4368
 3630TIP3    H235086   2.306   5.615  17.939 -1.5463  0.7938 -0.7192
 3631TIP3   OH235087   0.882   2.750  17.456  0.0282  0.8540  0.2664
 3631TIP3    H135088   0.825   2.742  17.380 -0.9535 -1.8239  1.1937
 3631TIP3    H235089   0.951   2.685  17.442  2.4756  3.3825 -0.3835
 3632TIP3   OH235090   1.605   1.465  17.887  0.2225 -0.4267 -0.8047
 3632TIP3    H135091   1.569   1.392  17.939  0.1561 -0.4679 -0.9105
 3632TIP3    H235092   1.695   1.438  17.868 -0.0340 -0.8178 -1.4818
 3633TIP3   OH235093   6.587   0.818  17.269 -0.3162 -0.0377 -0.6259
 3633TIP3    H135094   6.536   0.750  17.314  2.0173 -1.3524  0.2014
 3633TIP3    H235095   6.593   0.788  17.178 -1.0849  0.1964 -0.7616
 3634TIP3   OH235096   0.889   7.246  17.912  0.4390 -0.1457  0.5778
 3634TIP3    H135097   0.931   7.275  17.831  0.9326 -0.3058  0.7662
 3634TIP3    H235098   0.914   7.312  17.977 -2.0473  1.4124  0.0905
 3635TIP3   OH235099   0.630   6.953  18.843 -0.1177 -0.5884  0.0953
 3635TIP3    H135100   0.583   6.914  18.769  1.5475  0.5735 -1.6833
 3635TIP3    H235101   0.718   6.914  18.839  0.2147  0.0189  1.0419
 3636TIP3   OH235102   0.743   5.181  18.819  0.3079  0.1508  0.1073
 3636TIP3    H135103   0.759   5.110  18.758 -1.7311  0.1338 -0.4991
 3636TIP3    H235104   0.667   5.227  18.783  1.3649  2.4883  0.6221
 3637TIP3   OH235105   0.924   1.254  18.859  0.4811  0.1132  0.0925
 3637TIP3    H135106   1.000   1.197  18.846  0.0320 -0.6192  0.5755
 3637TIP3    H235107   0.935   1.290  18.947  0.6674  0.6318 -0.1395
 3638TIP3   OH235108   5.128   5.795  17.786  0.4072  0.2119 -0.1948
 3638TIP3    H135109   5.187   5.767  17.715 -0.3112 -0.4589 -0.5384
 3638TIP3    H235110   5.153   5.886  17.802  0.0262  0.6535 -1.8951
 3639TIP3   OH235111   5.947   4.243  18.618 -0.2759  0.4152  0.2781
 3639TIP3    H135112   5.859   4.215  18.644 -0.1582 -1.1058 -0.8205
 3639TIP3    H235113   6.004   4.209  18.688 -0.4636  0.6784  0.5617
 3640TIP3   OH235114   0.479   3.359  17.828 -0.2380 -0.1351 -0.1568
 3640TIP3    H135115   0.557   3.370  17.882 -0.1749 -0.8220 -0.0888
 3640TIP3    H235116   0.441   3.446  17.822  0.4720  0.1861 -0.0962
 3641TIP3   OH235117   1.489   6.429  18.456 -0.2157  0.0451  0.0623
 3641TIP3    H135118   1.549   6.502  18.442  1.3792 -1.5608 -2.0291
 3641TIP3    H235119   1.523   6.384  18.533 -0.4594  0.7459  0.5910
 3642TIP3   OH235120   7.012   1.371  16.569 -0.0264  0.1858  0.1829
 3642TIP3    H135121   6.925   1.370  16.528 -0.6196 -0.6132  1.3945
 3642TIP3    H235122   6.999   1.325  16.652  1.1688  1.6320  1.2057
 3643TIP3   OH235123   3.029   0.072  17.908  0.0535 -0.0910 -0.4336
 3643TIP3    H135124   2.997   0.113  17.989 -0.6231 -3.0737  0.9309
 3643TIP3    H235125   2.951   0.040  17.865  0.6398 -0.9275 -0.8923
 3644TIP3   OH235126   4.693   1.983  18.247 -0.3636  0.4030  0.4680
 3644TIP3    H135127   4.747   2.054  18.282 -1.3440  1.6682 -0.4702
 3644TIP3    H235128   4.747   1.905  18.255  1.8106  1.6753 -0.9156
 3645TIP3   OH235129   5.724   5.895  17.319  0.2182  0.2389  0.2994
 3645TIP3    H135130   5.715   5.972  17.263 -1.3232  0.3244  0.6444
 3645TIP3    H235131   5.660   5.832  17.286  0.6188 -0.4443  0.7776
 3646TIP3   OH235132   7.118   4.168  18.748  0.1092  0.7845  0.4334
 3646TIP3    H135133   7.194   4.111  18.760  1.8403  2.3805 -1.9856
 3646TIP3    H235134   7.048   4.108  18.723  1.2311 -0.5364  0.3007
 3647TIP3   OH235135   3.214   7.176  18.714  0.2637  0.3431  0.3714
 3647TIP3    H135136   3.292   7.184  18.660 -0.7228  0.5492 -1.0880
 3647TIP3    H235137   3.246   7.146  18.799  1.9549  0.8328 -0.0614
 3648TIP3   OH235138   5.717   3.710  17.686 -0.5249  0.1070  0.2540
 3648TIP3    H135139   5.798   3.704  17.738 -0.4598 -1.3757  0.0326
 3648TIP3    H235140   5.706   3.803  17.669 -0.1897  0.6060  2.3812
 3649TIP3   OH235141   2.139   0.949  18.096 -0.0982 -0.0553  0.2972
 3649TIP3    H135142   2.102   0.863  18.116  0.1405 -0.0666  0.7028
 3649TIP3    H235143   2.165   0.984  18.181 -0.1106  0.3816  0.1246
 3650TIP3   OH235144   5.720   3.953  18.749  0.0479  0.2375 -0.5853
 3650TIP3    H135145   5.748   3.976  18.660 -0.1207  0.0283 -0.6940
 3650TIP3    H235146   5.681   3.866  18.739  2.9679 -1.3238  0.2192
 3651TIP3   OH235147   3.775   7.570  18.052  0.5528  0.3772  0.0245
 3651TIP3    H135148   3.713   7.556  18.123  0.1536  1.0831 -0.1812
 3651TIP3    H235149   3.757   7.499  17.990 -0.8890  1.2592 -0.6110
 3652TIP3   OH235150   4.478   0.112  16.982 -0.2095  0.4966  0.1212
 3652TIP3    H135151   4.414   0.176  17.011 -1.8483 -0.9304 -0.1342
 3652TIP3    H235152   4.454   0.031  17.029  0.8622 -0.2923 -0.6384
 3653TIP3   OH235153   6.193   0.370  19.422 -0.2453 -0.1875 -0.3502
 3653TIP3    H135154   6.117   0.319  19.449 -0.5447 -2.2110 -4.2778
 3653TIP3    H235155   6.155   0.447  19.378  0.0039 -0.2927 -0.7522
 3654TIP3   OH235156   1.521   6.763  18.511  0.7251 -0.2807  0.3171
 3654TIP3    H135157   1.600   6.713  18.533 -0.1723 -0.8907  2.4169
 3654TIP3    H235158   1.511   6.752  18.416  1.2424 -3.0945  0.5090
 3655TIP3   OH235159   1.608   5.519  19.237  0.0621  0.1201  0.3614
 3655TIP3    H135160   1.689   5.506  19.286 -0.0836  0.3336  0.6649
 3655TIP3    H235161   1.609   5.451  19.170 -0.1008 -0.6708  1.1381
 3656TIP3   OH235162   6.890   5.935  17.436 -0.0453 -0.2195  0.1540
 3656TIP3    H135163   6.858   5.846  17.423  2.6364 -1.0116 -2.2217
 3656TIP3    H235164   6.887   5.974  17.349 -1.1217  2.0662  1.1422
 3657TIP3   OH235165   1.716   0.838  18.391 -0.2542 -0.0617  0.5472
 3657TIP3    H135166   1.793   0.806  18.438 -0.0362  0.1359  0.3300
 3657TIP3    H235167   1.716   0.933  18.407 -0.2240 -0.0042  0.2194
 3658TIP3   OH235168   0.146   5.192  18.110  0.8553  0.1921 -0.4974
 3658TIP3    H135169   0.166   5.284  18.094 -0.7835  0.9703  1.6692
 3658TIP3    H235170   0.220   5.145  18.069  3.1489  2.5523  0.6266
 3659TIP3   OH235171   7.374   3.191  18.640 -0.2114  0.4587  0.9715
 3659TIP3    H135172   7.439   3.226  18.701 -0.2722 -0.2238  1.4374
 3659TIP3    H235173   7.306   3.152  18.696  0.2116 -1.0628  0.4851
 3660TIP3   OH235174   0.832   7.419  19.264  0.3687 -0.1423  0.3720
 3660TIP3    H135175   0.910   7.425  19.319 -1.1574 -0.9213  2.7841
 3660TIP3    H235176   0.828   7.327  19.238  0.8404  0.1350 -0.7729
 3661TIP3   OH235177   7.391   2.609  18.042 -0.6090 -0.2579 -0.7172
 3661TIP3    H135178   7.383   2.584  18.134 -0.6289  0.0982 -0.6209
 3661TIP3    H235179   7.321   2.673  18.029 -0.6161 -0.3199 -0.9847
 3662TIP3   OH235180   0.638   3.055  16.554 -0.2072  0.4736  0.2280
 3662TIP3    H135181   0.579   2.982  16.534  0.7659 -0.8339  1.8247
 3662TIP3    H235182   0.587   3.113  16.610 -0.9237  0.9395 -0.8804
 3663TIP3   OH235183   0.552   3.768  19.059 -0.1941 -0.6169  0.4454
 3663TIP3    H135184   0.552   3.674  19.077  0.4545 -0.7519 -0.1832
 3663TIP3    H235185   0.462   3.787  19.031  0.5318 -1.9115 -3.4066
 3664TIP3   OH235186   7.385   2.010  18.000 -0.1885 -0.3851 -0.3806
 3664TIP3    H135187   7.327   1.957  17.947  0.4294 -1.0780 -0.3841
 3664TIP3    H235188   7.424   1.949  18.062 -0.7451  0.3743  0.7513
 3665TIP3   OH235189   5.229   4.861  18.247  0.2572  0.6209  0.5548
 3665TIP3    H135190   5.298   4.917  18.282  0.9473  1.0887 -1.3883
 3665TIP3    H235191   5.271   4.816  18.173 -0.8198 -1.0554  0.9020
 3666TIP3   OH235192   1.637   7.224  17.421 -0.3484  0.2580  0.1045
 3666TIP3    H135193   1.650   7.181  17.336  0.4392  1.1826 -0.2590
 3666TIP3    H235194   1.544   7.211  17.440 -0.0633 -1.9896  0.2365
 3667TIP3   OH235195   1.802   7.220  18.784  0.3835 -0.2197 -0.1289
 3667TIP3    H135196   1.884   7.218  18.735  0.2360  0.9617 -0.4654
 3667TIP3    H235197   1.740   7.262  18.724 -0.7947 -2.1651 -0.3425
 3668TIP3   OH235198   1.100   6.656  17.831 -0.7555 -0.3812  0.2378
 3668TIP3    H135199   1.013   6.621  17.848 -1.0199  0.0727 -0.1429
 3668TIP3    H235200   1.121   6.626  17.743 -0.0244 -1.4687  0.7610
 3669TIP3   OH235201   5.522   2.582  18.074 -0.2111 -0.4936 -0.4432
 3669TIP3    H135202   5.488   2.506  18.027  2.1010 -3.7525  2.6178
 3669TIP3    H235203   5.450   2.610  18.130 -0.6078 -1.6608 -0.3297
 3670TIP3   OH235204   1.844   5.339  17.204  0.4506  0.1235  0.4058
 3670TIP3    H135205   1.849   5.244  17.210 -1.6004 -0.0321  0.4246
 3670TIP3    H235206   1.935   5.369  17.209  1.0183 -1.7180  2.2294
 3671TIP3   OH235207   7.480   5.184  18.925 -0.3794  1.0173 -0.5198
 3671TIP3    H135208   7.459   5.193  18.832 -0.2465  2.5009 -0.4267
 3671TIP3    H235209   7.504   5.092  18.935 -1.9041  0.4455 -1.6370
 3672TIP3   OH235210   2.845   3.412  17.618  0.5897 -0.1592 -0.5093
 3672TIP3    H135211   2.862   3.501  17.648 -1.3418  0.4372 -1.1038
 3672TIP3    H235212   2.880   3.356  17.688 -0.2911  1.1101  0.9811
 3673TIP3   OH235213   0.596   7.282  19.042 -0.0387  0.4517 -0.1224
 3673TIP3    H135214   0.643   7.269  18.960  1.5394  0.1066  0.8039
 3673TIP3    H235215   0.659   7.258  19.111 -1.5017  0.1588  1.1836
 3674TIP3   OH235216   3.643   6.719  18.392  0.3385  0.1424 -0.4998
 3674TIP3    H135217   3.605   6.633  18.409  0.0230  0.2977 -0.4184
 3674TIP3    H235218   3.722   6.722  18.447  0.7242 -0.3580 -1.0189
 3675TIP3   OH235219   1.176   5.847  19.258  0.9150 -0.2914  0.0841
 3675TIP3    H135220   1.123   5.781  19.304 -1.7628  1.8905  0.4043
 3675TIP3    H235221   1.190   5.916  19.323  0.2176  1.2000 -1.2777
 3676TIP3   OH235222   7.437   2.726  16.610 -0.5037  0.0536 -0.1841
 3676TIP3    H135223   7.393   2.710  16.694 -2.1459 -0.8112 -1.1644
 3676TIP3    H235224   7.509   2.662  16.608 -1.5241 -1.1333 -0.1558
 3677TIP3   OH235225   6.792   1.043  18.779 -0.4199  0.3083  0.4872
 3677TIP3    H135226   6.742   1.005  18.707  0.3344  1.1795 -0.5305
 3677TIP3    H235227   6.757   1.132  18.788 -0.9689 -0.0122  1.6611
 3678TIP3   OH235228   1.103   2.264  17.729 -0.5624  0.5545 -0.1236
 3678TIP3    H135229   1.126   2.172  17.737 -0.7840  0.4152 -1.0689
 3678TIP3    H235230   1.187   2.310  17.739 -0.2171  0.1695 -1.1620
 3679TIP3   OH235231   5.574   0.472  18.896 -0.3205 -0.1142  0.0101
 3679TIP3    H135232   5.515   0.402  18.868 -1.1460  0.0067  1.3497
 3679TIP3    H235233   5.643   0.428  18.945 -1.1753  0.0427  1.3856
 3680TIP3   OH235234   6.058   1.584  19.235 -0.2878  0.1892 -0.3303
 3680TIP3    H135235   6.018   1.662  19.274 -0.3303  0.0573 -0.1058
 3680TIP3    H235236   6.094   1.536  19.310  2.2722  1.3767 -0.6912
 3681TIP3   OH235237   7.154   2.920  19.420  0.1032  0.0233  0.3249
 3681TIP3    H135238   7.107   2.955  19.495 -2.3542 -1.6455 -0.3016
 3681TIP3    H235239   7.207   2.848  19.455 -1.4894 -1.1349  0.4428
 3682TIP3   OH235240   2.725   0.132  16.830  0.2507 -0.4743 -0.1298
 3682TIP3    H135241   2.715   0.184  16.750 -1.2863  1.3325  1.1551
 3682TIP3    H235242   2.791   0.066  16.808 -1.5521 -1.3534 -3.5270
 3683TIP3   OH235243   0.283   5.906  17.127 -0.0766  0.5448  0.1618
 3683TIP3    H135244   0.213   5.900  17.063 -0.1130  0.7331  0.1839
 3683TIP3    H235245   0.280   5.997  17.158  0.2568  0.5931  0.0682
 3684TIP3   OH235246   4.395   3.954  17.979  0.0939 -0.2954  0.5751
 3684TIP3    H135247   4.375   3.861  17.976 -0.6133 -0.1236 -0.6141
 3684TIP3    H235248   4.457   3.967  17.907 -1.6785  0.5442 -0.8738
 3685TIP3   OH235249   3.975   1.626  18.122 -0.5348 -0.1817 -0.4211
 3685TIP3    H135250   3.995   1.693  18.057  0.1721  0.0024 -0.0242
 3685TIP3    H235251   4.059   1.605  18.161 -1.0491  0.3916  1.0941
 3686TIP3   OH235252   6.021   3.871  17.288  0.3747  0.4560  0.2766
 3686TIP3    H135253   5.958   3.812  17.245 -0.8451  2.3420 -0.6389
 3686TIP3    H235254   5.986   3.882  17.376 -0.0920  0.8074  0.0477
 3687TIP3   OH235255   2.219   5.639  17.641 -0.0498 -0.0419  0.4797
 3687TIP3    H135256   2.245   5.629  17.732  0.5050 -0.3966  0.2878
 3687TIP3    H235257   2.263   5.567  17.595  0.0332  0.3952 -0.1380
 3688TIP3   OH235258   7.400   1.323  17.549 -0.6096 -0.3949  0.0102
 3688TIP3    H135259   7.461   1.250  17.547 -1.0916 -0.8562  1.3815
 3688TIP3    H235260   7.455   1.400  17.568 -0.2522 -0.5454 -0.3886
 3689TIP3   OH235261   2.440   2.502  17.994  0.6446 -0.0586  0.5353
 3689TIP3    H135262   2.395   2.427  17.955  1.0566  0.5694 -1.2377
 3689TIP3    H235263   2.371   2.568  18.005  0.7532  0.2367 -0.4354
 3690TIP3   OH235264   0.640   0.732  18.699  0.0586 -0.3201 -0.4605
 3690TIP3    H135265   0.682   0.814  18.727  1.2365 -0.5502 -1.4797
 3690TIP3    H235266   0.546   0.747  18.713  0.2534  1.2093 -0.6642
 3691TIP3   OH235267   4.844   2.067  19.226 -0.5677 -0.8233  0.1903
 3691TIP3    H135268   4.820   1.977  19.205 -0.6003 -0.7681 -0.0193
 3691TIP3    H235269   4.769   2.101  19.275 -0.4023 -1.0188  0.5749
 3692TIP3   OH235270   4.655   1.331  16.908  0.4080  0.3392  0.5100
 3692TIP3    H135271   4.729   1.270  16.907  0.7327  0.7305  0.6056
 3692TIP3    H235272   4.582   1.280  16.874  0.8441  0.1125 -0.1090
 3693TIP3   OH235273   7.139   7.043  18.121 -0.0374  0.0860 -0.2364
 3693TIP3    H135274   7.153   6.965  18.174 -0.2550 -0.2422 -0.6624
 3693TIP3    H235275   7.107   7.109  18.183 -0.2951 -0.2961  0.0387
 3694TIP3   OH235276   6.343   5.950  19.955  0.6071 -0.7786 -1.2321
 3694TIP3    H135277   6.385   6.022  20.002  0.0463 -1.7770  0.8790
 3694TIP3    H235278   6.270   5.992  19.909 -0.1908 -0.0754  0.5931
 3695TIP3   OH235279   3.507   1.206  17.777  0.4375 -0.4778  0.6057
 3695TIP3    H135280   3.459   1.288  17.768 -0.2035 -0.8940  0.1115
 3695TIP3    H235281   3.594   1.225  17.742  0.5341  0.1864  1.1875
 3696TIP3   OH235282   2.115   1.062  18.620 -0.1306 -0.0874  0.2041
 3696TIP3    H135283   2.090   1.005  18.547  3.0978 -0.4584 -0.7650
 3696TIP3    H235284   2.204   1.091  18.599  0.1193  1.5384  2.9778
 3697TIP3   OH235285   5.846   2.102  19.211 -0.1098  0.2477 -0.0632
 3697TIP3    H135286   5.837   2.158  19.133 -3.2273  0.6417  0.4479
 3697TIP3    H235287   5.759   2.101  19.249  0.7194 -2.0955  1.9937
 3698TIP3   OH235288   0.060   0.262  18.608 -0.4233  0.1341  0.2918
 3698TIP3    H135289   0.018   0.290  18.690 -0.1437  1.1417  0.1048
 3698TIP3    H235290   0.129   0.326  18.594 -1.9577  1.4336 -1.9821
 3699TIP3   OH235291   1.627   4.732  17.508  0.0327  0.2165 -0.4665
 3699TIP3    H135292   1.706   4.745  17.561  0.7507 -2.3773 -0.7864
 3699TIP3    H235293   1.632   4.801  17.441  2.2507 -0.1011 -0.7150
 3700TIP3   OH235294   4.631   5.720  18.233 -0.0359  0.3274  0.2276
 3700TIP3    H135295   4.638   5.647  18.295  1.1273  0.9590  0.8767
 3700TIP3    H235296   4.641   5.798  18.287 -0.1665  0.9367 -0.6145
 3701TIP3   OH235297   6.196   7.393  19.258 -0.0521  0.2999 -0.0508
 3701TIP3    H135298   6.264   7.390  19.325 -0.3547 -0.1445  0.2399
 3701TIP3    H235299   6.137   7.321  19.280 -0.1440  0.1306 -0.8094
 3702TIP3   OH235300   0.309   2.667  19.020  0.4279 -0.2332  0.0837
 3702TIP3    H135301   0.316   2.607  18.945  0.4818 -0.1627  0.0312
 3702TIP3    H235302   0.393   2.661  19.064  0.3551 -0.3644  0.2073
 3703TIP3   OH235303   0.510   6.190  17.057 -0.9555 -0.1292  0.0360
 3703TIP3    H135304   0.455   6.252  17.105  1.0666  1.0087  0.9813
 3703TIP3    H235305   0.577   6.163  17.119  0.7927  0.1165 -1.6447
 3704TIP3   OH235306   7.648   5.793  17.988 -0.4792 -0.4416  0.6622
 3704TIP3    H135307   7.673   5.741  17.911 -0.6835 -0.0868  0.3543
 3704TIP3    H235308   7.725   5.790  18.045 -1.0459 -2.4900  1.4277
 3705TIP3   OH235309   3.479   6.404  18.988  0.3189 -0.5461  0.0372
 3705TIP3    H135310   3.532   6.482  18.969 -0.6786  0.0233 -0.4398
 3705TIP3    H235311   3.475   6.357  18.905  0.6090 -0.9221  0.2353
 3706TIP3   OH235312   7.544   2.204  16.864 -0.9171  0.0137  0.3608
 3706TIP3    H135313   7.599   2.266  16.817  0.3442 -1.3179  0.0412
 3706TIP3    H235314   7.571   2.212  16.956 -2.0686  1.2523  0.6224
 3707TIP3   OH235315   7.231   2.372  17.938 -0.1080 -0.1036  0.2276
 3707TIP3    H135316   7.214   2.395  17.847 -0.1832 -0.5238  0.1339
 3707TIP3    H235317   7.252   2.456  17.980 -1.4811  0.3090  0.1481
 3708TIP3   OH235318   7.000   4.977  18.243 -0.0615  0.1152 -0.4807
 3708TIP3    H135319   6.905   4.992  18.242 -0.1235  0.0991  1.3408
 3708TIP3    H235320   7.034   5.030  18.171 -1.5547 -0.7079 -1.8370
 3709TIP3   OH235321   6.919   2.393  18.960  0.2593  0.5933  0.3281
 3709TIP3    H135322   6.978   2.335  19.007 -1.3919 -1.1180  0.4119
 3709TIP3    H235323   6.904   2.350  18.876 -1.6035  0.4410  0.6849
 3710TIP3   OH235324   1.636   1.830  17.656 -0.5226 -0.7743 -0.2910
 3710TIP3    H135325   1.620   1.861  17.567  0.4440 -1.6609 -0.8054
 3710TIP3    H235326   1.716   1.875  17.684 -1.1385 -0.0589  0.3678
 3711TIP3   OH235327   6.544   5.799  18.537  0.1302 -0.2534 -0.2500
 3711TIP3    H135328   6.617   5.748  18.572  0.5054  1.2432  1.2972
 3711TIP3    H235329   6.557   5.887  18.573 -1.7464  0.3629 -0.9589
 3712TIP3   OH235330   2.886   2.049  17.901 -0.3117  0.0164 -0.0703
 3712TIP3    H135331   2.914   2.008  17.983  0.5020 -1.1135 -0.8832
 3712TIP3    H235332   2.966   2.087  17.865 -0.2978 -0.9388 -1.1251
 3713TIP3   OH235333   5.761   4.326  18.870 -0.6993 -0.1634 -0.0155
 3713TIP3    H135334   5.760   4.322  18.774  1.8373 -0.6705 -0.0790
 3713TIP3    H235335   5.722   4.244  18.897 -1.1219 -0.1701 -0.6140
 3714TIP3   OH235336   5.245   1.003  17.783 -0.4559 -0.1599  0.0677
 3714TIP3    H135337   5.193   0.971  17.709 -1.8361 -0.3365  1.0690
 3714TIP3    H235338   5.244   0.931  17.846  0.7909 -0.0531  0.2237
 3715TIP3   OH235339   5.675   2.586  18.947  0.2697 -0.1694  0.6502
 3715TIP3    H135340   5.768   2.565  18.937 -0.0416 -1.3043 -0.0201
 3715TIP3    H235341   5.665   2.670  18.902  0.7975 -0.4573 -0.0174
 3716TIP3   OH235342   1.241   3.262  16.986 -0.4561  0.3101  0.1111
 3716TIP3    H135343   1.325   3.281  16.943  0.1096 -2.3255 -0.0813
 3716TIP3    H235344   1.177   3.310  16.933  0.6958  0.7033 -1.0057
 3717TIP3   OH235345   2.631   2.062  18.150  0.0538  0.2439  0.2140
 3717TIP3    H135346   2.584   2.129  18.099  2.9253  0.8463 -1.8600
 3717TIP3    H235347   2.679   2.012  18.085  1.4966 -0.9847  2.1289
 3718TIP3   OH235348   5.348   2.862  17.726  0.1714  0.0002 -0.0537
 3718TIP3    H135349   5.364   2.842  17.634  0.6388 -1.5364  0.3251
 3718TIP3    H235350   5.285   2.934  17.725  0.2763  0.0981 -1.5668
 3719TIP3   OH235351   2.192   2.213  18.148  0.0199  0.7836 -0.0065
 3719TIP3    H135352   2.185   2.307  18.133 -0.2727  0.4729 -2.1789
 3719TIP3    H235353   2.164   2.173  18.065  0.6053 -1.2080  0.6837
 3720TIP3   OH235354   3.220   6.168  17.868 -0.1383  0.3271 -0.1136
 3720TIP3    H135355   3.159   6.141  17.937 -1.0238 -0.8833 -1.3035
 3720TIP3    H235356   3.163   6.196  17.796  0.6427 -1.2948 -1.4381
 3721TIP3   OH235357   3.135   2.306  19.077  0.2823  0.0809  0.1505
 3721TIP3    H135358   3.206   2.249  19.049  0.4387  0.9047 -1.2068
 3721TIP3    H235359   3.056   2.252  19.069  0.3879  0.1088 -1.4352
 3722TIP3   OH235360   5.689   4.839  17.181  0.1470  0.7231  0.4494
 3722TIP3    H135361   5.631   4.914  17.176  1.4790  1.7171 -1.1307
 3722TIP3    H235362   5.773   4.875  17.211  0.5495 -0.3168  0.6355
 3723TIP3   OH235363   7.560   2.712  17.801  0.3852 -1.2585 -0.5882
 3723TIP3    H135364   7.490   2.664  17.846  0.7145 -1.1834  0.0162
 3723TIP3    H235365   7.530   2.803  17.801  1.0047 -1.0367  0.7251
 3724TIP3   OH235366   2.576   2.005  19.565  0.0422 -0.6787  0.4018
 3724TIP3    H135367   2.657   1.955  19.575 -1.1317 -2.8117 -0.1858
 3724TIP3    H235368   2.509   1.953  19.611 -1.0388  0.9482  0.7526
 3725TIP3   OH235369   3.370   6.681  18.869 -0.5471 -0.2465 -0.1335
 3725TIP3    H135370   3.358   6.588  18.848 -2.4658 -0.4085  1.4710
 3725TIP3    H235371   3.365   6.725  18.784 -0.1979 -1.5300 -0.8528
 3726TIP3   OH235372   7.574   4.893  17.199  0.0314  0.0733  0.0720
 3726TIP3    H135373   7.515   4.863  17.269  0.8221 -0.4541  0.5353
 3726TIP3    H235374   7.609   4.976  17.232  0.1384 -0.0003  0.1421
 3727TIP3   OH235375   1.225   6.009  18.036 -0.0260  0.0134  0.1244
 3727TIP3    H135376   1.154   5.946  18.050 -0.3412 -0.2392 -2.3146
 3727TIP3    H235377   1.302   5.967  18.074 -0.4266 -1.4354 -0.5808
 3728TIP3   OH235378   1.199   6.041  18.494 -0.1275  0.0787  0.4425
 3728TIP3    H135379   1.198   6.048  18.589  0.5008  0.5172  0.4269
 3728TIP3    H235380   1.230   5.952  18.477  1.9667  0.7006  0.6703
 3729TIP3   OH235381   7.076   7.631  19.504 -0.6580 -0.4764 -0.3761
 3729TIP3    H135382   7.043   7.554  19.550  0.7175 -1.0555 -0.3260
 3729TIP3    H235383   7.135   7.597  19.438  0.8074  0.5537  0.3410
 3730TIP3   OH235384   4.069   1.111  18.530 -0.2740  0.1650  0.1137
 3730TIP3    H135385   4.106   1.106  18.442 -0.3509  1.0073  0.0253
 3730TIP3    H235386   4.140   1.082  18.588  0.1694  0.7428 -0.1346
 3731TIP3   OH235387   1.123   3.371  18.118  0.2818  0.6914  0.2570
 3731TIP3    H135388   1.067   3.355  18.041  0.6706  0.8086 -0.0516
 3731TIP3    H235389   1.169   3.452  18.098 -0.2561  1.1940  0.9954
 3732TIP3   OH235390   2.877   0.936  18.548  0.1598  0.2236  0.5749
 3732TIP3    H135391   2.836   0.868  18.495 -0.2047  0.3298  0.7140
 3732TIP3    H235392   2.941   0.890  18.602  0.5694  0.1225  0.0126
 3733TIP3   OH235393   4.566   7.055  17.566 -0.0958  0.2733 -0.1594
 3733TIP3    H135394   4.491   7.011  17.606  2.0535 -2.0292  1.6893
 3733TIP3    H235395   4.565   7.026  17.474 -2.5090  1.9518 -0.7662
 3734TIP3   OH235396   5.645   0.172  18.694 -0.3357 -0.5356 -0.3915
 3734TIP3    H135397   5.562   0.153  18.651  0.1781  0.1667 -1.7477
 3734TIP3    H235398   5.681   0.245  18.645  1.1649 -0.9305  0.0704
 3735TIP3   OH235399   0.218   0.822  18.576 -0.5752 -0.1157 -0.2274
 3735TIP3    H135400   0.242   0.820  18.483 -1.5036 -1.3365 -0.4547
 3735TIP3    H235401   0.210   0.916  18.596 -0.3730  0.1613 -1.3720
 3736TIP3   OH235402   5.148   0.958  19.103  0.4074  0.2181 -0.3356
 3736TIP3    H135403   5.224   0.980  19.050 -0.7196  1.7609 -1.3972
 3736TIP3    H235404   5.165   0.998  19.188  0.8335  0.4367 -0.5222
 3737TIP3   OH235405   0.276   7.299  16.826 -0.1886  0.1578  0.1828
 3737TIP3    H135406   0.233   7.248  16.895  1.1280  0.4732  1.2922
 3737TIP3    H235407   0.255   7.390  16.847 -1.8017  0.1642 -1.2839
 3738TIP3   OH235408   3.512   2.411  17.487 -0.0769 -0.4344  0.2941
 3738TIP3    H135409   3.497   2.504  17.502  0.2664 -0.4552  0.7867
 3738TIP3    H235410   3.601   2.408  17.452 -0.6613 -0.4343 -1.2701
 3739TIP3   OH235411   1.932   4.430  18.295  0.4855 -0.0385 -0.6154
 3739TIP3    H135412   1.875   4.490  18.249  1.0293  0.5643 -0.5262
 3739TIP3    H235413   1.979   4.382  18.226  0.5096  0.0874 -0.6846
 3740TIP3   OH235414   0.069   3.688  19.505 -0.0285 -0.4526  0.4595
 3740TIP3    H135415   0.063   3.742  19.426  2.1674  1.0029  1.2058
 3740TIP3    H235416   0.034   3.743  19.575 -2.2464 -1.8424  0.5527
 3741TIP3   OH235417   0.333   7.326  17.549  0.6405  0.0587  0.4056
 3741TIP3    H135418   0.359   7.409  17.509 -0.8649  0.8403  0.9909
 3741TIP3    H235419   0.245   7.310  17.516  0.4960 -0.7573  1.1511
 3742TIP3   OH235420   7.178   2.674  18.909  0.8745 -0.0231  0.5550
 3742TIP3    H135421   7.115   2.629  18.966 -0.3125  0.2777 -0.4749
 3742TIP3    H235422   7.164   2.767  18.927  1.6300  0.0304  0.9169
 3743TIP3   OH235423   5.750   0.252  19.784  0.1095 -0.4541 -0.3399
 3743TIP3    H135424   5.827   0.253  19.840 -1.4681 -0.6187  1.9948
 3743TIP3    H235425   5.757   0.331  19.731  1.7377 -0.3608 -0.0228
 3744TIP3   OH235426   4.148   7.231  18.037  0.3415 -0.3774  0.1058
 3744TIP3    H135427   4.200   7.163  18.079  1.8009  0.2072 -0.6905
 3744TIP3    H235428   4.110   7.189  17.960  0.4268 -0.5460  0.1573
 3745TIP3   OH235429   6.217   7.490  18.777 -0.0386  0.1496  0.1264
 3745TIP3    H135430   6.307   7.456  18.780 -0.4786 -1.0561  0.3412
 3745TIP3    H235431   6.194   7.502  18.869 -0.6687 -1.1907  0.1720
 3746TIP3   OH235432   0.978   3.106  19.178 -0.7618 -0.6236 -0.1036
 3746TIP3    H135433   1.066   3.145  19.170 -2.0152  2.3570 -0.7713
 3746TIP3    H235434   0.979   3.033  19.115  1.5893 -1.5551  0.8664
 3747TIP3   OH235435   4.851   5.661  18.063 -0.0071  0.4374  0.2528
 3747TIP3    H135436   4.780   5.690  18.120 -1.1037  1.8446 -1.6872
 3747TIP3    H235437   4.816   5.582  18.021  0.6629 -0.4000  1.2199
 3748TIP3   OH235438   1.594   4.429  18.063  0.5053  0.5934  0.3182
 3748TIP3    H135439   1.610   4.466  17.976 -0.7515 -0.7610 -0.5265
 3748TIP3    H235440   1.639   4.345  18.062 -0.5609  0.0030  0.4974
 3749TIP3   OH235441   2.776   2.569  19.064  0.2777 -0.1530 -0.1346
 3749TIP3    H135442   2.795   2.639  19.002 -0.5795 -0.5698 -0.8863
 3749TIP3    H235443   2.761   2.492  19.010 -1.6434 -0.2746  0.4843
 3750TIP3   OH235444   7.372   4.033  18.758  0.1856  0.4087  0.5295
 3750TIP3    H135445   7.412   4.100  18.702  1.0242 -0.6848 -0.2235
 3750TIP3    H235446   7.396   4.058  18.847  1.1397  0.6992  0.2067
 3751TIP3   OH235447   7.429   4.760  18.311  0.6308 -0.3810  0.0629
 3751TIP3    H135448   7.475   4.722  18.236  0.5289  0.3017 -0.3456
 3751TIP3    H235449   7.466   4.847  18.320 -0.6686  0.2323 -0.3492
 3752TIP3   OH235450   1.428   2.422  17.971  0.4224 -0.6074 -0.0994
 3752TIP3    H135451   1.389   2.471  17.899  0.9402  0.5027  0.3385
 3752TIP3    H235452   1.438   2.333  17.938  0.1274 -0.2516 -1.1872
 3753TIP3   OH235453   5.446   0.543  17.543  0.1660  0.0818  0.2855
 3753TIP3    H135454   5.479   0.617  17.492 -3.2890  1.0739 -0.7390
 3753TIP3    H235455   5.360   0.571  17.572 -0.4065 -2.8033  1.6425
 3754TIP3   OH235456   4.163   5.479  18.334 -0.4045 -0.1784  0.1188
 3754TIP3    H135457   4.186   5.544  18.401  1.5333 -1.2167  0.5279
 3754TIP3    H235458   4.225   5.495  18.263 -0.0181 -1.4301  0.1488
 3755TIP3   OH235459   0.056   5.156  16.791 -0.4147 -1.3007 -0.2772
 3755TIP3    H135460   0.144   5.119  16.784  0.6337  0.5668  1.6744
 3755TIP3    H235461   0.021   5.151  16.702  2.0241 -1.2715 -1.3266
 3756TIP3   OH235462   1.522   0.714  17.333  0.4988  0.3451 -0.0826
 3756TIP3    H135463   1.466   0.709  17.411  1.3243  0.2556  0.5137
 3756TIP3    H235464   1.549   0.624  17.317  0.3397  0.3643 -0.4753
 3757TIP3   OH235465   6.364   6.280  17.389 -0.5385 -0.3099 -0.7101
 3757TIP3    H135466   6.390   6.232  17.311  0.4287  0.4771 -0.8827
 3757TIP3    H235467   6.275   6.310  17.370 -1.3595 -2.3899 -0.4127
 3758TIP3   OH235468   3.818   3.076  17.821  0.1759 -0.8451 -1.0196
 3758TIP3    H135469   3.878   3.014  17.862 -0.2800 -0.5808  0.0946
 3758TIP3    H235470   3.731   3.041  17.841 -0.0670 -0.2772 -1.0636
 3759TIP3   OH235471   7.237   6.632  18.664  0.2816 -0.3781 -0.3787
 3759TIP3    H135472   7.142   6.632  18.653  0.3657  1.3975 -1.5192
 3759TIP3    H235473   7.253   6.683  18.743  0.2978 -0.5984 -0.2380
 3760TIP3   OH235474   2.486   2.465  17.305 -0.2475  1.0572  0.0720
 3760TIP3    H135475   2.437   2.547  17.307 -0.9602  0.6852 -0.9626
 3760TIP3    H235476   2.423   2.399  17.335 -0.4379  0.5614 -1.3480
 3761TIP3   OH235477   4.534   6.185  18.346  0.0433  0.3028  0.3956
 3761TIP3    H135478   4.597   6.255  18.329  0.2624 -0.0056 -0.0695
 3761TIP3    H235479   4.453   6.230  18.369  0.7482  0.7229  2.2704
 3762TIP3   OH235480   5.709   1.833  19.358  1.1199 -0.5978 -0.1144
 3762TIP3    H135481   5.804   1.843  19.367  0.9728  2.0162 -0.9037
 3762TIP3    H235482   5.672   1.902  19.413 -0.3610 -1.4794  0.0497
 3763TIP3   OH235483   2.956   3.858  17.588 -0.1265  0.1057 -0.0766
 3763TIP3    H135484   2.904   3.936  17.567 -2.6724 -1.0662  1.3500
 3763TIP3    H235485   2.960   3.809  17.505 -2.8756 -0.5344  0.0469
 3764TIP3   OH235486   7.638   0.634  18.917  0.3004  0.2349 -0.3300
 3764TIP3    H135487   7.611   0.726  18.922  0.2905  0.2508 -0.6531
 3764TIP3    H235488   7.733   0.637  18.916  0.3193  0.1977  0.4402
 3765TIP3   OH235489   0.477   1.028  19.094 -0.3154 -0.7071 -0.6898
 3765TIP3    H135490   0.571   1.021  19.076  0.1103  0.2756  0.9490
 3765TIP3    H235491   0.466   1.117  19.128 -1.9596 -0.5909 -1.4732
 3766TIP3   OH235492   2.272   6.160  17.519  0.1471 -0.2416 -0.4249
 3766TIP3    H135493   2.289   6.123  17.432 -1.1412 -1.8335 -0.0353
 3766TIP3    H235494   2.179   6.184  17.518  0.1098 -0.2937  0.5170
 3767TIP3   OH235495   1.263   1.945  17.296 -0.1285 -0.1599 -0.2524
 3767TIP3    H135496   1.185   1.890  17.296 -0.3383  0.1101 -1.7824
 3767TIP3    H235497   1.239   2.023  17.246  0.8449  0.3268  0.0016
 3768TIP3   OH235498   0.125   6.566  19.353 -0.5120  0.2231  0.1656
 3768TIP3    H135499   0.163   6.557  19.266  1.5827 -2.6519  1.1980
 3768TIP3    H235500   0.099   6.657  19.359  2.1897  1.3185 -2.3269
 3769TIP3   OH235501   1.503   1.937  17.420 -0.2555  0.3070  0.3940
 3769TIP3    H135502   1.418   1.927  17.378  0.1295 -0.0018 -0.3287
 3769TIP3    H235503   1.565   1.946  17.347  0.6760 -2.1001  0.8092
 3770TIP3   OH235504   6.679   2.169  16.951  0.2551 -0.1333  0.4696
 3770TIP3    H135505   6.679   2.263  16.937  1.0055  0.2105  2.4504
 3770TIP3    H235506   6.599   2.138  16.907 -0.1411  1.4456  0.0246
 3771TIP3   OH235507   7.121   6.783  19.282 -0.0088  0.1951  0.3222
 3771TIP3    H135508   7.089   6.710  19.230 -0.6597 -0.2795  1.3479
 3771TIP3    H235509   7.105   6.860  19.228 -0.8966 -0.2567 -0.0773
 3772TIP3   OH235510   4.737   5.070  18.104  0.4440 -0.1804 -0.8713
 3772TIP3    H135511   4.657   5.076  18.052  1.6174 -0.9022 -2.8619
 3772TIP3    H235512   4.799   5.128  18.060  1.1824  0.0079  0.3592
 3773TIP3   OH235513   4.776   6.921  18.186 -0.0567 -0.0842  0.0601
 3773TIP3    H135514   4.835   6.954  18.118  0.1625  1.0351  0.7732
 3773TIP3    H235515   4.828   6.922  18.266 -0.9202  0.5609  0.6270
 3774TIP3   OH235516   7.186   4.128  17.904  0.0062  0.1918  0.4464
 3774TIP3    H135517   7.186   4.173  17.988  2.1104  1.1337 -0.0055
 3774TIP3    H235518   7.249   4.056  17.915  2.0718  1.6866 -0.9376
 3775TIP3   OH235519   2.917   7.280  17.632  0.4950  0.5134  0.1956
 3775TIP3    H135520   2.822   7.274  17.629  0.4533  0.5247  1.1235
 3775TIP3    H235521   2.944   7.200  17.677  0.9063  0.6583  0.2116
 3776TIP3   OH235522   5.872   6.788  17.969 -0.0410  0.1206  0.3105
 3776TIP3    H135523   5.798   6.848  17.979  0.6479  0.9824  0.3987
 3776TIP3    H235524   5.875   6.739  18.051 -0.7357 -0.1801  0.1585
 3777TIP3   OH235525   4.660   1.124  19.366 -0.0941 -0.5945 -0.1788
 3777TIP3    H135526   4.654   1.094  19.275  1.0182 -0.8659 -0.1784
 3777TIP3    H235527   4.754   1.125  19.385 -0.0406  2.3678  0.0011
 3778TIP3   OH235528   5.812   7.152  18.075  0.3353 -0.6176 -0.3900
 3778TIP3    H135529   5.785   7.244  18.066  0.9267 -0.4599 -0.6333
 3778TIP3    H235530   5.907   7.156  18.083  0.4361 -1.2572 -1.1120
 3779TIP3   OH235531   4.634   1.853  17.868 -0.3702 -0.1040  0.3530
 3779TIP3    H135532   4.587   1.832  17.787 -1.2634  0.8328  0.6009
 3779TIP3    H235533   4.671   1.770  17.896  1.7544 -0.1134 -2.1009
 3780TIP3   OH235534   6.203   0.225  18.971  0.3990  0.1796  0.8144
 3780TIP3    H135535   6.198   0.155  19.036 -1.2624 -0.9146 -0.3983
 3780TIP3    H235536   6.165   0.302  19.015  1.6526  0.1959  1.9409
 3781TIP3   OH235537   5.364   0.781  18.627  0.5525  0.1781 -0.6303
 3781TIP3    H135538   5.451   0.742  18.618  1.7903  2.4834  0.5070
 3781TIP3    H235539   5.352   0.830  18.546  1.0945  1.1923 -0.1283
 3782TIP3   OH235540   4.475   3.705  19.112  0.0205 -0.7396  0.3771
 3782TIP3    H135541   4.570   3.721  19.114 -0.1432  0.4515 -0.3076
 3782TIP3    H235542   4.461   3.637  19.178  1.4585 -1.5300 -0.0810
 3783TIP3   OH235543   5.497   3.219  17.832 -0.0358 -0.3527 -0.1265
 3783TIP3    H135544   5.429   3.180  17.886 -0.2106  1.4524  1.0459
 3783TIP3    H235545   5.579   3.180  17.864 -0.0725  1.1220  1.9334
 3784TIP3   OH235546   2.842   2.137  19.146  0.4161  0.6209 -0.2121
 3784TIP3    H135547   2.769   2.196  19.127 -0.5256 -0.6536 -0.6825
 3784TIP3    H235548   2.831   2.115  19.239 -0.3129 -0.2094 -0.4785
 3785TIP3   OH235549   4.399   2.383  17.925 -0.2343  0.1896  0.1832
 3785TIP3    H135550   4.451   2.440  17.982 -1.4214  1.2873  0.1979
 3785TIP3    H235551   4.350   2.327  17.986  0.3116 -0.3164  0.1759
 3786TIP3   OH235552   6.491   3.821  17.451 -0.6299 -0.2886  0.0749
 3786TIP3    H135553   6.484   3.915  17.434  1.0722 -0.1463  0.0163
 3786TIP3    H235554   6.507   3.782  17.365 -1.5052 -0.6630  0.0744
 3787TIP3   OH235555   7.438   1.076  18.539 -0.6181  0.3822 -0.0674
 3787TIP3    H135556   7.356   1.124  18.527 -1.4368 -0.2856  2.2474
 3787TIP3    H235557   7.454   1.035  18.455 -2.8226  0.3201 -0.5229
 3788TIP3   OH235558   3.575   2.571  16.783  0.2399 -0.0567 -0.2437
 3788TIP3    H135559   3.561   2.504  16.716  0.4934  0.4746 -0.8481
 3788TIP3    H235560   3.670   2.584  16.784  0.1414  0.7645 -0.6171
 3789TIP3   OH235561   0.759   2.200  18.898  0.2834 -0.2127  0.5194
 3789TIP3    H135562   0.782   2.186  18.806 -0.8916  1.1977 -0.0385
 3789TIP3    H235563   0.824   2.150  18.947  1.1924 -0.6590 -1.0678
 3790TIP3   OH235564   0.522   5.825  17.320 -0.0253 -0.2870 -0.5558
 3790TIP3    H135565   0.543   5.872  17.239  0.4342  1.0656  0.3307
 3790TIP3    H235566   0.457   5.880  17.364  0.4368 -0.5325  0.4490
 3791TIP3   OH235567   5.765   2.697  17.687 -0.1678  0.4037  0.6181
 3791TIP3    H135568   5.730   2.676  17.774 -0.0950  0.3411  0.6328
 3791TIP3    H235569   5.812   2.618  17.661 -0.8757  0.1210  0.1699
 3792TIP3   OH235570   1.375   7.461  18.635  0.0460  0.1336  0.0941
 3792TIP3    H135571   1.322   7.540  18.643 -0.0106  0.3673 -1.9032
 3792TIP3    H235572   1.343   7.420  18.554  0.7974 -1.3695  0.5297
 3793TIP3   OH235573   2.533   5.853  18.587  0.6407  0.5177 -0.1946
 3793TIP3    H135574   2.538   5.758  18.576  1.5824  0.6155 -0.6582
 3793TIP3    H235575   2.609   5.875  18.641  0.0698  0.9412  0.4644
 3794TIP3   OH235576   7.379   1.351  16.962 -0.3138  0.6535 -0.5727
 3794TIP3    H135577   7.462   1.344  16.915  0.3860 -0.6569  0.7609
 3794TIP3    H235578   7.360   1.445  16.963  1.0318  0.9583 -1.1275
 3795TIP3   OH235579   6.747   1.857  16.939 -0.1918  0.2947 -0.1666
 3795TIP3    H135580   6.718   1.917  16.870 -0.9371 -0.1884 -0.2835
 3795TIP3    H235581   6.747   1.771  16.897  0.4682  0.1498  0.1172
 3796TIP3   OH235582   6.522   4.626  18.648  0.1390  0.3876 -0.1774
 3796TIP3    H135583   6.614   4.608  18.668 -0.1571  0.7422  1.6558
 3796TIP3    H235584   6.479   4.630  18.733 -1.1100  2.7861 -0.8156
 3797TIP3   OH235585   0.425   3.267  19.236  0.6685 -0.0010 -0.1979
 3797TIP3    H135586   0.510   3.259  19.279  0.4204  1.6999  0.6867
 3797TIP3    H235587   0.378   3.188  19.261  0.6918  0.6977  2.3673
 3798TIP3   OH235588   3.648   7.070  17.464  0.1119 -0.0171  0.1242
 3798TIP3    H135589   3.596   7.125  17.406  0.1062  0.0016  0.1473
 3798TIP3    H235590   3.586   7.010  17.503  0.1180 -0.0395  0.1008
 3799TIP3   OH235591   5.842   1.959  18.238 -0.2148 -0.7669 -0.4944
 3799TIP3    H135592   5.764   1.935  18.287  0.4246  1.9029  2.0711
 3799TIP3    H235593   5.898   1.881  18.243 -1.2389 -1.4496  0.8191
 3800TIP3   OH235594   2.515   4.428  17.469  0.3207 -0.1818  0.2429
 3800TIP3    H135595   2.590   4.371  17.489 -0.9844 -1.9892  0.1855
 3800TIP3    H235596   2.520   4.442  17.374  0.7500 -0.0241  0.2865
 3801TIP3   OH235597   5.526   1.384  19.104  0.5249  0.2770 -0.2808
 3801TIP3    H135598   5.492   1.380  19.014  0.7733 -2.4038 -0.3519
 3801TIP3    H235599   5.568   1.299  19.117  1.6977  1.1154  1.9451
 3802TIP3   OH235600   3.664   1.847  16.958 -0.1035  0.3366 -0.0141
 3802TIP3    H135601   3.731   1.839  17.026 -0.2625 -1.4404 -0.0220
 3802TIP3    H235602   3.656   1.759  16.921 -1.2573  0.8842 -1.1630
 3803TIP3   OH235603   2.313   4.252  17.234 -0.5529  0.3123  0.1647
 3803TIP3    H135604   2.265   4.238  17.153  1.2474  0.4360 -0.9606
 3803TIP3    H235605   2.394   4.295  17.208 -0.1590  0.8771  2.0986
 3804TIP3   OH235606   0.668   6.849  18.531  0.0847 -0.3290 -0.1198
 3804TIP3    H135607   0.629   6.785  18.591  0.3635 -1.0434 -0.6743
 3804TIP3    H235608   0.763   6.837  18.542  0.1590 -1.2681 -1.4874
 3805TIP3   OH235609   4.778   5.176  17.773 -0.7194 -0.0179  0.0374
 3805TIP3    H135610   4.797   5.082  17.771 -2.0060 -0.2868 -0.1052
 3805TIP3    H235611   4.766   5.201  17.681 -1.7419 -0.0168  0.1593
 3806TIP3   OH235612   4.357   1.754  17.669 -0.0038 -0.2542  0.0053
 3806TIP3    H135613   4.354   1.850  17.674  0.1451 -0.2910  1.3768
 3806TIP3    H235614   4.289   1.731  17.605 -0.4418  0.7458  0.0901
 3807TIP3   OH235615   5.889   4.341  19.428 -0.2691  0.1638 -0.6151
 3807TIP3    H135616   5.926   4.424  19.398 -0.3069 -0.0438 -1.2398
 3807TIP3    H235617   5.958   4.277  19.415 -0.4295 -0.0025 -0.6513
 3808TIP3   OH235618   6.184   2.692  19.614 -0.0230  0.0590  0.2071
 3808TIP3    H135619   6.097   2.728  19.596  0.1006 -0.4386 -1.5445
 3808TIP3    H235620   6.171   2.597  19.612  0.2761 -0.0300  1.5381
 3809TIP3   OH235621   0.473   2.880  19.353  0.0275  0.0118 -0.1846
 3809TIP3    H135622   0.456   2.957  19.299 -0.6489 -0.9209 -1.3520
 3809TIP3    H235623   0.464   2.806  19.293  0.5060 -0.9922  0.9416
 3810TIP3   OH235624   0.543   2.725  18.333 -0.2080 -0.4996  0.4259
 3810TIP3    H135625   0.565   2.813  18.364  1.9734 -0.6051 -0.6457
 3810TIP3    H235626   0.628   2.686  18.309 -1.2650 -2.3659 -0.4931
 3811TIP3   OH235627   3.170   1.318  18.128 -0.3006  0.1250  0.0938
 3811TIP3    H135628   3.210   1.404  18.118 -0.3069  0.5789  3.0397
 3811TIP3    H235629   3.080   1.336  18.155  0.0389 -0.6839  1.9953
 3812TIP3   OH235630   5.267   1.318  17.525 -0.2506 -0.1172 -0.6000
 3812TIP3    H135631   5.346   1.358  17.489 -1.0031  1.1660 -0.8696
 3812TIP3    H235632   5.285   1.308  17.619 -0.2270  1.3812 -0.4187
 3813TIP3   OH235633   6.569   4.762  19.162 -0.5676 -0.6772  0.4953
 3813TIP3    H135634   6.568   4.756  19.258 -0.5464  0.2240  0.5642
 3813TIP3    H235635   6.662   4.767  19.139 -0.5751 -0.8267  0.4359
 3814TIP3   OH235636   5.216   3.474  18.160  0.0799 -0.9477 -0.0751
 3814TIP3    H135637   5.234   3.544  18.097 -1.3462 -0.1564  0.3592
 3814TIP3    H235638   5.172   3.518  18.232 -1.0813 -2.3373  0.0962
 3815TIP3   OH235639   5.490   0.854  19.457  0.9381 -0.1685  0.2245
 3815TIP3    H135640   5.404   0.814  19.443  1.1302 -1.1167  1.5160
 3815TIP3    H235641   5.472   0.940  19.494  0.5250 -0.4160  0.6106
 3816TIP3   OH235642   1.155   2.035  18.916  0.5482 -0.2643  0.2829
 3816TIP3    H135643   1.103   1.955  18.927  0.4853 -0.2141  0.3497
 3816TIP3    H235644   1.120   2.075  18.836 -0.5008  0.5119  1.0983
 3817TIP3   OH235645   5.980   6.344  18.704  0.6851 -0.1177 -0.3593
 3817TIP3    H135646   5.937   6.293  18.635 -0.1262  0.0449  0.0136
 3817TIP3    H235647   5.973   6.435  18.675  2.2707 -0.1797 -1.1023
 3818TIP3   OH235648   1.596   7.616  18.565  0.0192 -0.0241  0.0386
 3818TIP3    H135649   1.512   7.589  18.602 -0.8712  2.8000  0.3308
 3818TIP3    H235650   1.581   7.707  18.537  2.0342 -0.5086 -2.9700
 3819TIP3   OH235651   2.641   1.136  17.330 -0.0112 -0.1554 -0.4009
 3819TIP3    H135652   2.704   1.091  17.274  0.6386 -0.9567  0.9300
 3819TIP3    H235653   2.644   1.088  17.413 -2.7530 -0.5631 -0.4288
 3820TIP3   OH235654   6.745   5.491  17.608 -0.1782 -0.3778  0.1652
 3820TIP3    H135655   6.710   5.404  17.627  0.8239 -0.1352  3.7935
 3820TIP3    H235656   6.682   5.552  17.648  0.8964  0.3906  0.7212
 3821TIP3   OH235657   4.551   1.986  18.751 -0.2707  0.6434  0.1289
 3821TIP3    H135658   4.517   2.037  18.824 -0.9197 -0.3025  0.4900
 3821TIP3    H235659   4.636   1.953  18.782 -0.2425  0.7882  0.2060
 3822TIP3   OH235660   3.622   0.570  18.670  0.0778 -0.0885 -0.1949
 3822TIP3    H135661   3.698   0.524  18.634 -0.6696 -0.9708 -0.6929
 3822TIP3    H235662   3.638   0.662  18.651  0.8958 -0.2838 -0.5109
 3823TIP3   OH235663   4.876   5.739  17.231 -0.4075  0.3059 -0.4525
 3823TIP3    H135664   4.954   5.793  17.223 -0.0020 -0.0273  1.0005
 3823TIP3    H235665   4.889   5.669  17.167  0.8570 -0.1608  0.2767
 3824TIP3   OH235666   5.803   6.774  18.702 -0.2417 -0.7332  0.6922
 3824TIP3    H135667   5.861   6.717  18.650 -0.3998 -0.4500  0.2001
 3824TIP3    H235668   5.852   6.855  18.712 -1.0591  0.0108 -0.8795
 3825TIP3   OH235669   0.158   7.634  17.284  0.1565 -0.6579  0.0678
 3825TIP3    H135670   0.110   7.717  17.287  1.9796  0.4303  1.6652
 3825TIP3    H235671   0.094   7.569  17.311 -0.1621  0.9706  3.9520
 3826TIP3   OH235672   6.667   7.195  19.338  0.0216  0.0702  0.3660
 3826TIP3    H135673   6.637   7.110  19.368  2.8040 -0.5571  1.6620
 3826TIP3    H235674   6.606   7.257  19.377 -2.2220 -1.2659 -0.8357
 3827TIP3   OH235675   2.233   1.239  18.023  0.1898  0.9970  0.2945
 3827TIP3    H135676   2.142   1.241  17.994 -0.3613  2.1900  1.9231
 3827TIP3    H235677   2.284   1.233  17.943 -1.3076  0.9462 -0.6917
 3828TIP3   OH235678   4.412   3.082  18.452  0.3733 -0.0736 -0.2009
 3828TIP3    H135679   4.358   3.144  18.404  0.4468  0.5322  0.4794
 3828TIP3    H235680   4.415   3.004  18.397  0.0312  0.4209 -0.9240
 3829TIP3   OH235681   6.584   4.621  16.592  0.2451 -0.2466  0.5211
 3829TIP3    H135682   6.542   4.535  16.586  0.5623 -0.4431  1.0049
 3829TIP3    H235683   6.677   4.602  16.594  0.4058  0.2216 -1.1662
 3830TIP3   OH235684   2.194   2.932  17.257  0.0888 -0.7172 -0.4883
 3830TIP3    H135685   2.239   2.996  17.314  2.4192 -1.9414 -0.8185
 3830TIP3    H235686   2.189   2.976  17.172  0.2620 -0.3808 -0.3306
 3831TIP3   OH235687   6.175   1.227  18.332  0.3378 -0.0366  0.3511
 3831TIP3    H135688   6.178   1.304  18.276  2.9344  0.0646  0.5223
 3831TIP3    H235689   6.147   1.261  18.417 -1.2185  0.2074 -0.2239
 3832TIP3   OH235690   5.912   5.031  18.479  0.0462 -0.7309 -0.1597
 3832TIP3    H135691   5.842   5.087  18.513  0.3868 -0.7263  0.5544
 3832TIP3    H235692   5.906   4.950  18.530 -0.4077 -1.3382 -1.1484
 3833TIP3   OH235693   6.638   6.220  19.247 -0.7483 -0.4282 -0.1971
 3833TIP3    H135694   6.571   6.164  19.287  0.4905 -2.3518 -0.6990
 3833TIP3    H235695   6.645   6.188  19.157  1.1522 -0.6086 -0.0279
 3834TIP3   OH235696   7.122   7.541  18.260  0.2144  0.3587 -0.0667
 3834TIP3    H135697   7.030   7.559  18.238 -0.1592  0.1546  1.2039
 3834TIP3    H235698   7.138   7.594  18.338  0.9545 -0.1700  0.1441
 3835TIP3   OH235699   1.507   1.109  19.413 -0.2858  0.1605  0.3313
 3835TIP3    H135700   1.549   1.048  19.473 -0.3817  0.3791  0.6227
 3835TIP3    H235701   1.575   1.172  19.391 -0.0563 -0.3079 -0.3295
 3836TIP3   OH235702   4.251   2.170  18.077  0.5019  0.2953 -1.1521
 3836TIP3    H135703   4.190   2.105  18.113  0.3665  0.9831 -0.1059
 3836TIP3    H235704   4.329   2.120  18.055  0.9421 -0.0415  0.9667
 3837TIP3   OH235705   5.919   1.251  18.752  0.6990  0.0839 -0.4496
 3837TIP3    H135706   5.984   1.283  18.816  2.1516 -0.4966 -1.5895
 3837TIP3    H235707   5.898   1.163  18.781  0.4712  0.2373 -0.1346
 3838TIP3   OH235708   0.967   2.040  17.479 -0.2980  0.0324  0.7281
 3838TIP3    H135709   1.025   2.112  17.505 -0.8143 -0.1323  2.5272
 3838TIP3    H235710   1.007   1.962  17.518  0.3697 -0.7348 -1.3715
 3839TIP3   OH235711   0.584   7.343  17.696 -0.2961 -0.4942 -0.1944
 3839TIP3    H135712   0.494   7.356  17.667 -0.2715 -2.1455 -1.0989
 3839TIP3    H235713   0.638   7.368  17.621 -0.0663 -0.9090 -0.1722
 3840TIP3   OH235714   0.544   4.823  18.067 -0.0864 -0.2815  0.1653
 3840TIP3    H135715   0.567   4.884  17.997 -1.0388 -1.2480 -1.0251
 3840TIP3    H235716   0.504   4.878  18.134 -1.3704  0.3783 -1.0926
 3841TIP3   OH235717   2.700   5.226  17.580  0.9011  0.0338  0.8602
 3841TIP3    H135718   2.759   5.295  17.608  0.8932  0.6211 -0.4956
 3841TIP3    H235719   2.715   5.217  17.486 -1.9813  1.0865  0.1688
 3842TIP3   OH235720   3.725   0.474  18.371  0.0281 -0.0185 -0.1523
 3842TIP3    H135721   3.646   0.436  18.410  0.9733  0.3776  2.3131
 3842TIP3    H235722   3.792   0.408  18.386  0.4701  0.2292 -1.0010
 3843TIP3   OH235723   6.645   1.191  19.683  0.0055  0.3407 -0.4441
 3843TIP3    H135724   6.644   1.172  19.777  0.2729 -0.1044 -0.5300
 3843TIP3    H235725   6.729   1.233  19.668  0.1826 -0.0501 -0.5694
 3844TIP3   OH235726   2.231   2.596  19.019 -0.0229 -0.1254 -0.0146
 3844TIP3    H135727   2.220   2.689  19.039 -1.4592 -0.3176  0.2105
 3844TIP3    H235728   2.189   2.584  18.934 -0.7183 -0.7379  0.4037
 3845TIP3   OH235729   1.817   4.715  19.269 -0.1066 -0.4140  0.0582
 3845TIP3    H135730   1.821   4.789  19.329  1.9977 -0.0920 -0.3802
 3845TIP3    H235731   1.883   4.735  19.202  1.0019 -2.9263  0.2696
 3846TIP3   OH235732   7.353   0.497  18.258 -0.4710  0.5775  0.2463
 3846TIP3    H135733   7.325   0.586  18.278 -0.1937  0.6734  0.2189
 3846TIP3    H235734   7.436   0.509  18.212 -0.8430  0.3464 -0.5080
 3847TIP3   OH235735   3.482   3.587  18.086 -0.6928 -0.3936  0.1433
 3847TIP3    H135736   3.522   3.635  18.158 -0.5813 -0.5148  0.1638
 3847TIP3    H235737   3.498   3.495  18.106 -0.5379 -0.4237 -0.1061
 3848TIP3   OH235738   3.468   6.788  19.580 -0.3118 -0.3632  0.4896
 3848TIP3    H135739   3.527   6.735  19.634 -0.2057 -0.9852 -0.2168
 3848TIP3    H235740   3.521   6.864  19.555  0.1225 -0.8034  0.0518
 3849TIP3   OH235741   7.678   7.401  19.405  0.1448 -0.1845  0.2635
 3849TIP3    H135742   7.749   7.367  19.352  1.1272 -3.2882  3.1909
 3849TIP3    H235743   7.698   7.494  19.416  2.6401 -0.5514 -0.5989
 3850TIP3   OH235744   2.014   6.108  18.874  0.0487  0.1358  0.3608
 3850TIP3    H135745   2.069   6.152  18.809 -0.2306 -0.7119 -0.4708
 3850TIP3    H235746   2.060   6.025  18.892  0.0518  0.2969  1.1506
 3851TIP3   OH235747   5.404   3.083  18.458  0.2215 -0.2538  0.1693
 3851TIP3    H135748   5.405   3.075  18.363  0.6687 -0.3721  0.1789
 3851TIP3    H235749   5.326   3.134  18.478 -0.4127 -1.0567 -0.1984
 3852TIP3   OH235750   1.659   6.779  18.888  0.4210  0.1720 -0.4461
 3852TIP3    H135751   1.673   6.741  18.975  2.5237 -1.0685 -1.2373
 3852TIP3    H235752   1.632   6.704  18.834 -0.5870  0.8737 -0.9389
 3853TIP3   OH235753   3.557   6.853  16.977 -0.1674  0.0556  0.3449
 3853TIP3    H135754   3.485   6.838  17.038 -1.1343  3.1824  0.1587
 3853TIP3    H235755   3.556   6.947  16.962  2.2801 -0.1531 -1.7958
 3854TIP3   OH235756   2.654   1.824  18.333  0.2200  0.0177 -0.1876
 3854TIP3    H135757   2.574   1.781  18.302  1.7782 -3.2367 -0.1306
 3854TIP3    H235758   2.701   1.848  18.253 -0.0839  0.5289 -0.2211
 3855TIP3   OH235759   0.373   4.682  17.646  0.2474  0.1305 -0.0157
 3855TIP3    H135760   0.424   4.636  17.712  1.7900 -0.7267 -1.7031
 3855TIP3    H235761   0.372   4.773  17.675  2.7008  0.1621  0.1953
 3856TIP3   OH235762   0.658   4.022  17.659  0.2658 -0.0783 -0.1558
 3856TIP3    H135763   0.665   4.057  17.570  0.4372  2.3335  0.7389
 3856TIP3    H235764   0.564   4.018  17.676  0.1833 -1.7754 -0.8585
 3857TIP3   OH235765   5.385   0.857  18.353  0.3286 -0.4943 -0.0793
 3857TIP3    H135766   5.444   0.929  18.333 -1.1566  0.4110 -1.5405
 3857TIP3    H235767   5.416   0.785  18.300  0.4643 -0.1985 -0.4061
 3858TIP3   OH235768   0.915   3.117  18.190  0.1948 -0.3364  0.6503
 3858TIP3    H135769   0.991   3.060  18.189 -1.3580 -2.7349  3.3916
 3858TIP3    H235770   0.933   3.179  18.261 -0.4621 -1.1211  1.5329
 3859TIP3   OH235771   0.782   7.601  19.055  0.5782  0.6534  0.0425
 3859TIP3    H135772   0.829   7.529  19.012 -2.2049 -0.8286 -0.8138
 3859TIP3    H235773   0.802   7.590  19.148 -0.0574 -1.5614 -0.0126
 3860TIP3   OH235774   0.070   2.384  17.696 -0.6624 -0.1237 -0.1547
 3860TIP3    H135775  -0.022   2.357  17.699 -0.7464  0.1592 -0.0738
 3860TIP3    H235776   0.108   2.333  17.625 -0.9030 -0.1878 -0.2401
 3861TIP3   OH235777   2.133   4.097  17.640  0.2006 -0.0275 -0.1302
 3861TIP3    H135778   2.114   4.088  17.734  1.3405 -3.5665 -0.0718
 3861TIP3    H235779   2.215   4.145  17.637 -0.7738  1.7816  0.5041
 3862TIP3   OH235780   6.578   1.855  19.371 -0.0632  0.0829 -0.3053
 3862TIP3    H135781   6.594   1.917  19.442  0.6327 -0.2411 -0.1669
 3862TIP3    H235782   6.562   1.910  19.294  0.5908  0.4499 -0.1922
 3863TIP3   OH235783   3.069   2.593  17.721 -0.1237  0.5748  0.1703
 3863TIP3    H135784   3.152   2.628  17.754  1.0882 -1.3943 -0.5973
 3863TIP3    H235785   3.025   2.560  17.799 -1.3157  3.5906  0.9207
 3864TIP3   OH235786   3.168   3.963  17.961 -0.3712  0.4856  0.9685
 3864TIP3    H135787   3.104   3.946  18.030 -0.1380  0.6601  1.2336
 3864TIP3    H235788   3.251   3.932  17.998 -0.2054  0.7893  0.8600
 3865TIP3   OH235789   4.593   0.192  19.133 -0.4492  0.0484 -0.2469
 3865TIP3    H135790   4.602   0.249  19.057  1.4378 -0.9041 -0.8068
 3865TIP3    H235791   4.601   0.103  19.098  1.7190 -0.3909  1.1506
 3866TIP3   OH235792   1.180   2.993  17.036  0.2034  0.3798 -0.3290
 3866TIP3    H135793   1.225   2.939  16.970  2.0121  1.7726 -0.3071
 3866TIP3    H235794   1.215   3.081  17.023 -2.4032  1.5425 -0.1387
 3867TIP3   OH235795   1.334   2.570  16.686  0.2728  0.1351  0.0728
 3867TIP3    H135796   1.286   2.622  16.621  1.3355  0.2220 -0.6770
 3867TIP3    H235797   1.328   2.480  16.654  0.1640  0.0712  0.2696
 3868TIP3   OH235798   1.170   1.312  18.062  0.2171  0.1450  0.0665
 3868TIP3    H135799   1.214   1.229  18.044 -1.4564 -0.6937 -0.3909
 3868TIP3    H235800   1.227   1.378  18.024  0.8748 -0.9288 -0.8804
 3869TIP3   OH235801   3.833   3.569  18.053  0.2773 -0.2812 -0.4071
 3869TIP3    H135802   3.817   3.477  18.036  2.8868 -1.0486  0.8583
 3869TIP3    H235803   3.758   3.614  18.013 -0.3428 -2.7981 -2.3492
 3870TIP3   OH235804   0.045   0.398  17.396  0.3726 -0.4045 -0.2360
 3870TIP3    H135805   0.077   0.479  17.356  0.1363 -0.3339 -0.2844
 3870TIP3    H235806  -0.040   0.422  17.432 -0.2519 -0.9293 -1.3092
 3871TIP3   OH235807   1.419   2.154  17.904  0.0351 -0.4412  0.3382
 3871TIP3    H135808   1.460   2.085  17.956 -0.0476 -2.3831 -1.9659
 3871TIP3    H235809   1.325   2.141  17.917  0.0294  0.3345  1.1692
 3872TIP3   OH235810   2.757   2.907  19.093  0.1055 -0.0093 -0.1561
 3872TIP3    H135811   2.796   2.870  19.014  0.1445 -0.7891  0.2221
 3872TIP3    H235812   2.811   2.874  19.165 -0.6533 -0.2956  0.2976
 3873TIP3   OH235813   5.544   0.312  17.960 -0.0738  0.0381  0.0347
 3873TIP3    H135814   5.533   0.359  18.043  2.9468  1.5458 -0.3148
 3873TIP3    H235815   5.499   0.366  17.896  1.1820  1.1695  0.0609
 3874TIP3   OH235816   6.576   6.637  18.411  0.3083  0.6915  0.1053
 3874TIP3    H135817   6.622   6.624  18.494  4.4058  1.5021 -1.8125
 3874TIP3    H235818   6.510   6.704  18.432  0.2181 -0.1268  2.9444
 3875TIP3   OH235819   5.157   7.626  19.255 -0.3062  0.3152  0.4619
 3875TIP3    H135820   5.214   7.587  19.189 -0.8822  1.0513 -0.4910
 3875TIP3    H235821   5.073   7.582  19.244 -0.6400  1.0157  0.1355
 3876TIP3   OH235822   0.961   1.570  19.124  0.1837 -0.3618  0.5043
 3876TIP3    H135823   0.994   1.495  19.074  0.2581  0.2088 -0.3051
 3876TIP3    H235824   1.023   1.578  19.197 -0.4435 -1.7645  1.2415
 3877TIP3   OH235825   5.379   6.094  18.331  0.0094  0.2369 -0.0968
 3877TIP3    H135826   5.337   6.107  18.246 -0.0914  0.1971 -0.0544
 3877TIP3    H235827   5.436   6.019  18.318 -0.9661 -0.5852  0.2064
 3878TIP3   OH235828   7.349   2.785  18.709 -0.5849 -0.0040 -0.3542
 3878TIP3    H135829   7.417   2.843  18.743 -0.6910  0.5662 -1.0972
 3878TIP3    H235830   7.330   2.725  18.781  1.5763 -0.9665 -0.5010
 3879TIP3   OH235831   2.569   4.874  19.072  0.0018 -0.8103  0.3693
 3879TIP3    H135832   2.598   4.782  19.080  1.4747 -0.5074 -0.9223
 3879TIP3    H235833   2.499   4.872  19.008  0.4490 -0.9776 -0.1233
 3880TIP3   OH235834   3.782   2.731  17.736 -0.3207 -0.1053 -0.3970
 3880TIP3    H135835   3.768   2.825  17.742 -0.1398 -0.0786 -0.4064
 3880TIP3    H235836   3.756   2.697  17.821 -1.0096 -0.1225 -0.6048
 3881TIP3   OH235837   5.727   4.531  18.185 -0.2519  0.0466  0.6904
 3881TIP3    H135838   5.712   4.620  18.217  1.8353  0.4634  0.6780
 3881TIP3    H235839   5.642   4.488  18.193 -0.6967  1.1953  3.3196
 3882TIP3   OH235840   6.049   7.105  17.865  0.1209 -0.5361  0.2973
 3882TIP3    H135841   6.138   7.103  17.828  0.0943 -0.5407  0.2331
 3882TIP3    H235842   6.056   7.161  17.942 -0.3310  1.3768 -0.9876
 3883TIP3   OH235843   3.152   7.171  18.012  0.2373  0.0336 -0.4097
 3883TIP3    H135844   3.139   7.265  18.007 -0.6301 -0.0243  0.5097
 3883TIP3    H235845   3.089   7.141  18.078  0.2082 -1.2428 -0.9817
 3884TIP3   OH235846   1.220   5.963  17.545  0.4577 -0.6120  0.2544
 3884TIP3    H135847   1.192   5.980  17.455  0.4666  2.1928  0.6851
 3884TIP3    H235848   1.311   5.992  17.547  0.2327  0.0757  1.3197
 3885TIP3   OH235849   6.169   0.265  17.616 -0.2544  0.0368  0.0143
 3885TIP3    H135850   6.167   0.254  17.521  0.1861  1.5330 -0.1985
 3885TIP3    H235851   6.178   0.176  17.651 -0.8933 -0.5699 -1.3187
 3886TIP3   OH235852   6.888   6.172  18.966 -0.0678  0.5240  0.6474
 3886TIP3    H135853   6.852   6.261  18.963  2.3283  1.5443 -1.0836
 3886TIP3    H235854   6.903   6.149  18.874  2.1094 -0.4387  1.1763
 3887TIP3   OH235855   7.468   6.110  17.728 -0.3908 -0.1307  0.1227
 3887TIP3    H135856   7.514   6.157  17.798  1.3695  0.6443 -1.4596
 3887TIP3    H235857   7.435   6.031  17.770 -1.2693  1.2844  2.3071
 3888TIP3   OH235858   2.315   0.274  16.943  0.0098 -0.1086 -0.3885
 3888TIP3    H135859   2.394   0.310  16.904 -0.9372  0.6511 -1.6949
 3888TIP3    H235860   2.339   0.255  17.034  1.7588 -0.2041 -0.8415
 3889TIP3   OH235861   6.260   4.351  17.823 -0.9350  0.6676 -0.0312
 3889TIP3    H135862   6.168   4.367  17.806 -1.3348 -1.1074  0.3066
 3889TIP3    H235863   6.263   4.265  17.863  0.8943  0.6126 -0.1856
 3890TIP3   OH235864   4.079   7.154  17.793 -0.2268  0.1725  0.0996
 3890TIP3    H135865   4.007   7.171  17.733  0.2399  3.8762  0.3770
 3890TIP3    H235866   4.158   7.168  17.741  0.3700 -2.4721  0.1616
 3891TIP3   OH235867   1.916   0.274  17.773 -0.3981 -0.2034  0.2993
 3891TIP3    H135868   1.888   0.238  17.689  1.6010  1.8645 -1.4136
 3891TIP3    H235869   2.005   0.240  17.785  0.0417  0.9644  0.5813
 3892TIP3   OH235870   1.404   5.821  19.500  0.2116  0.1235  0.1117
 3892TIP3    H135871   1.497   5.829  19.519  0.1117 -1.2432  1.3379
 3892TIP3    H235872   1.363   5.895  19.544  0.5667 -0.0876  0.8020
 3893TIP3   OH235873   3.137   2.783  17.411  0.4608 -0.2655  0.3642
 3893TIP3    H135874   3.183   2.815  17.489  0.1552  0.8593  0.0984
 3893TIP3    H235875   3.055   2.746  17.445 -0.0850  1.0291  0.5230
 3894TIP3   OH235876   0.766   0.291  18.553  0.2996  0.2396  0.0640
 3894TIP3    H135877   0.715   0.295  18.633 -1.7694 -0.1756 -1.1469
 3894TIP3    H235878   0.744   0.371  18.505  0.1601 -0.3155 -0.8289
 3895TIP3   OH235879   6.631   5.710  18.821 -0.3792  0.2460  0.5510
 3895TIP3    H135880   6.577   5.631  18.829 -0.1335  0.1828  1.7662
 3895TIP3    H235881   6.683   5.712  18.901  1.2642  0.4435 -0.4881
 3896TIP3   OH235882   5.221   0.122  19.463  0.5532  0.3097 -0.1924
 3896TIP3    H135883   5.228   0.187  19.393 -0.7229  1.3191  0.5823
 3896TIP3    H235884   5.169   0.052  19.426 -1.1846  1.3957  0.0771
 3897TIP3   OH235885   3.992   3.418  17.529 -0.0302  0.3890 -0.4703
 3897TIP3    H135886   4.076   3.376  17.549 -1.8399 -3.9953 -0.8003
 3897TIP3    H235887   4.008   3.469  17.450  2.0931 -1.4013 -1.2905
 3898TIP3   OH235888   3.304   7.492  17.636 -0.3683 -0.3383  0.7738
 3898TIP3    H135889   3.278   7.555  17.569 -1.6366  0.0590  1.5953
 3898TIP3    H235890   3.273   7.530  17.718 -1.0297 -1.9421  1.3132
 3899TIP3   OH235891   5.275   2.345  18.341  0.1311 -0.1136 -0.1077
 3899TIP3    H135892   5.342   2.410  18.361 -0.7698 -0.0380  3.1940
 3899TIP3    H235893   5.221   2.387  18.274  1.4372  1.1806 -0.4060
 3900TIP3   OH235894   0.166   3.770  17.860 -0.1141 -0.2524 -0.1985
 3900TIP3    H135895   0.146   3.746  17.951 -1.0579 -1.2753 -0.6563
 3900TIP3    H235896   0.232   3.706  17.832 -0.0994 -0.1677 -0.3578
 3901TIP3   OH235897   0.065   3.996  16.223  0.3031  0.5735 -0.0245
 3901TIP3    H135898   0.014   4.042  16.157  1.3865 -1.3765 -2.3681
 3901TIP3    H235899   0.003   3.938  16.266 -0.3600  1.6879  0.5781
 3902TIP3   OH235900   7.408   5.878  17.306 -0.1340 -0.5536  0.0135
 3902TIP3    H135901   7.482   5.921  17.264  0.1499 -0.9061  0.1501
 3902TIP3    H235902   7.343   5.867  17.237  0.5389 -1.6150 -0.4693
 3903TIP3   OH235903   4.849   5.828  16.839  0.3536  0.8372  0.1452
 3903TIP3    H135904   4.923   5.885  16.819 -0.1559  1.2231 -0.6842
 3903TIP3    H235905   4.866   5.798  16.929  1.5852  0.7892 -0.0865
 3904TIP3   OH235906   0.135   3.313  18.819 -0.3562 -0.2032 -0.4935
 3904TIP3    H135907   0.055   3.261  18.822 -1.5841  1.6445  1.8321
 3904TIP3    H235908   0.195   3.269  18.879 -0.3971 -0.3791 -0.5808
 3905TIP3   OH235909   2.604   4.933  17.669 -0.2003 -0.6798  0.6851
 3905TIP3    H135910   2.511   4.911  17.679 -1.2667  1.1994 -3.0336
 3905TIP3    H235911   2.642   4.857  17.625 -0.6284 -0.4523 -0.0959
 3906TIP3   OH235912   1.077   4.767  19.147 -0.0845 -0.3562  0.1333
 3906TIP3    H135913   1.011   4.730  19.088 -0.8694 -0.9312  1.3251
 3906TIP3    H235914   1.129   4.824  19.092 -1.8215  0.4248 -0.7906
 3907TIP3   OH235915   0.269   3.265  18.035 -0.3221  0.0559 -0.0090
 3907TIP3    H135916   0.338   3.328  18.016 -2.6919  2.7979 -0.1669
 3907TIP3    H235917   0.192   3.300  17.991 -1.8167 -3.0069 -0.0828
 3908TIP3   OH235918   0.017   0.436  19.281 -0.5984  0.2888 -0.2310
 3908TIP3    H135919  -0.044   0.388  19.336  0.1493  0.3956  0.7224
 3908TIP3    H235920   0.070   0.369  19.239  0.5689  0.2309  1.2419
 3909TIP3   OH235921   5.358   4.394  18.794 -0.1098 -0.3743  0.0603
 3909TIP3    H135922   5.405   4.448  18.857 -1.4425  0.0074  0.7717
 3909TIP3    H235923   5.373   4.437  18.710 -0.1287  0.3893  0.4387
 3910TIP3   OH235924   1.911   3.707  16.939  0.1139 -0.3598  0.1184
 3910TIP3    H135925   1.876   3.711  16.851  3.0144 -1.9977 -1.2559
 3910TIP3    H235926   1.835   3.690  16.995 -1.4399 -2.4174 -2.4281
 3911TIP3   OH235927   3.336   6.106  18.644  0.2696  0.1141 -0.4618
 3911TIP3    H135928   3.312   6.090  18.553 -1.5159  0.7214 -0.1349
 3911TIP3    H235929   3.252   6.108  18.691  0.8784  2.8828  0.7101
 3912TIP3   OH235930   6.964   6.914  18.331  0.4191  0.0001  0.1896
 3912TIP3    H135931   6.908   6.967  18.389 -0.6162 -1.0078  0.1420
 3912TIP3    H235932   6.903   6.876  18.267  1.4032  0.2500 -0.9380
 3913TIP3   OH235933   6.761   6.424  18.907  0.1495 -0.4077  0.0102
 3913TIP3    H135934   6.684   6.391  18.862  0.8865 -1.1900 -0.7108
 3913TIP3    H235935   6.734   6.433  18.999 -1.3167  1.0257 -0.5047
 3914TIP3   OH235936   7.434   5.749  18.290 -0.0334 -0.3682 -0.0542
 3914TIP3    H135937   7.380   5.793  18.225 -0.7760 -1.2720 -0.0747
 3914TIP3    H235938   7.387   5.668  18.310  1.1846 -1.0777  0.1082
 3915TIP3   OH235939   2.306   5.164  19.177  0.3061 -0.4596  0.0957
 3915TIP3    H135940   2.390   5.211  19.181 -0.3317  0.6525  1.1532
 3915TIP3    H235941   2.291   5.135  19.267  1.0893 -3.5680 -0.6410
 3916TIP3   OH235942   2.518   7.098  17.767  0.1032 -0.0935  0.5456
 3916TIP3    H135943   2.540   7.129  17.855 -0.8752  0.4621  0.6094
 3916TIP3    H235944   2.426   7.071  17.774  0.3365 -1.0917 -0.0384
 3917TIP3   OH235945   5.460   6.466  18.470 -0.6432 -0.4495  0.7373
 3917TIP3    H135946   5.520   6.483  18.398 -1.5763  1.9737  0.4219
 3917TIP3    H235947   5.481   6.534  18.535 -2.5541  0.0497  0.8897
 3918TIP3   OH235948   2.340   0.582  17.959  0.1805 -0.0891  0.0420
 3918TIP3    H135949   2.354   0.528  17.882 -0.5696  0.8733 -0.7866
 3918TIP3    H235950   2.265   0.637  17.937  0.9682  1.3556  0.8239
 3919TIP3   OH235951   6.194   5.660  18.326 -0.0843  0.2231 -0.7251
 3919TIP3    H135952   6.271   5.604  18.317 -1.0805 -1.2183 -0.6006
 3919TIP3    H235953   6.193   5.685  18.418 -0.7372 -1.2563 -0.3042
 3920TIP3   OH235954   3.552   0.710  18.319  0.0550  0.0555  0.0217
 3920TIP3    H135955   3.583   0.772  18.386 -0.9735 -0.3576  0.9076
 3920TIP3    H235956   3.613   0.637  18.324 -0.8806 -0.6886  1.6560
 3921TIP3   OH235957   1.080   1.203  17.134  0.1281  0.3939  0.5453
 3921TIP3    H135958   1.123   1.147  17.198  3.5430 -0.5828 -2.3043
 3921TIP3    H235959   1.039   1.142  17.073 -1.2120  1.2363  0.5663
 3922TIP3   OH235960   7.515   5.025  19.313  0.4999 -0.2658  0.4242
 3922TIP3    H135961   7.553   4.954  19.262  0.5518  1.3908 -1.9837
 3922TIP3    H235962   7.582   5.094  19.312 -0.7664  1.0112 -0.0649
 3923TIP3   OH235963   1.720   4.588  18.818 -0.0768 -0.2488 -0.5230
 3923TIP3    H135964   1.676   4.515  18.863 -1.0367  1.0475  0.7211
 3923TIP3    H235965   1.743   4.552  18.732 -1.0005 -1.8575 -0.1425
 3924TIP3   OH235966   3.517   2.670  18.016 -0.3324 -0.2002 -0.1060
 3924TIP3    H135967   3.598   2.678  18.065  0.0074 -0.4259 -0.6259
 3924TIP3    H235968   3.455   2.633  18.078  0.2749 -1.1175 -0.0244
 3925TIP3   OH235969   3.122   7.316  18.309  0.3663  0.0212 -0.7431
 3925TIP3    H135970   3.109   7.221  18.299  0.1486  0.0733 -0.9382
 3925TIP3    H235971   3.208   7.323  18.350  0.3568 -0.2660 -0.6684
 3926TIP3   OH235972   0.524   4.281  18.379  0.3714  0.2933  0.1523
 3926TIP3    H135973   0.455   4.257  18.441  0.1070  0.1884 -0.1810
 3926TIP3    H235974   0.513   4.221  18.306  0.5835  0.5202 -0.0687
 3927TIP3   OH235975   6.598   5.832  19.322  0.6751 -0.0077 -0.5717
 3927TIP3    H135976   6.671   5.771  19.309  0.9542  0.1371  0.2513
 3927TIP3    H235977   6.593   5.882  19.241  2.6667  1.2373 -0.0063
 3928TIP3   OH235978   4.584   3.659  18.828  0.2672  0.4600 -0.4861
 3928TIP3    H135979   4.504   3.702  18.855 -0.1396 -0.5716 -0.0102
 3928TIP3    H235980   4.652   3.697  18.884 -0.3896 -0.8628  1.2918
 3929TIP3   OH235981   5.159   1.196  17.310 -0.1641  0.9530 -0.1471
 3929TIP3    H135982   5.101   1.270  17.294 -0.8083  1.0518  2.3054
 3929TIP3    H235983   5.206   1.219  17.390 -0.1175 -1.1009  0.4674
 3930TIP3   OH235984   2.829   3.255  18.853 -0.0199 -0.0016 -0.5204
 3930TIP3    H135985   2.868   3.212  18.929  0.3376  0.4887 -0.4171
 3930TIP3    H235986   2.861   3.345  18.858 -2.3881  0.8574  0.4174
 3931TIP3   OH235987   1.181   3.404  19.114  0.0879  0.0155 -0.1510
 3931TIP3    H135988   1.163   3.426  19.205 -0.7375  0.2095 -0.3546
 3931TIP3    H235989   1.203   3.488  19.073  0.8395 -0.1249 -0.0544
 3932TIP3   OH235990   7.105   2.453  19.448  0.2465 -0.0602  0.3268
 3932TIP3    H135991   7.086   2.367  19.411  0.2472 -0.1359  0.5027
 3932TIP3    H235992   7.200   2.453  19.462  0.3741  0.2852 -0.4724
 3933TIP3   OH235993   2.083   0.726  18.288  1.0156  0.1252 -0.3807
 3933TIP3    H135994   2.123   0.642  18.309  0.5018  0.6423  3.3105
 3933TIP3    H235995   2.140   0.791  18.330 -0.5207  1.3165 -0.0511
 3934TIP3   OH235996   4.320   1.501  18.939 -0.1513 -0.2358 -0.4157
 3934TIP3    H135997   4.263   1.472  18.867 -0.2209 -1.1652  0.0061
 3934TIP3    H235998   4.281   1.463  19.017  0.4486  0.0122  0.0082
 3935TIP3   OH235999   3.236   1.942  16.840  0.1799 -0.1974  0.3480
 3935TIP3    H136000   3.273   1.987  16.763 -2.6333 -0.5996 -1.3920
 3935TIP3    H236001   3.264   1.995  16.914 -1.9943  3.9790 -1.4667
 3936TIP3   OH236002   1.165   2.720  18.292  0.5408  0.1569  0.1209
 3936TIP3    H136003   1.148   2.629  18.266  0.9439 -0.3153  1.4454
 3936TIP3    H236004   1.099   2.739  18.359  0.7058  0.7127  0.1331
 3937TIP3   OH236005   6.078   3.183  18.735 -0.2830 -0.2391  0.3040
 3937TIP3    H136006   6.017   3.254  18.754  0.9234  1.1268 -0.6687
 3937TIP3    H236007   6.094   3.191  18.641  2.3385  0.2949  0.7253
 3938TIP3   OH236008   2.916   1.096  18.161  0.0191 -0.2067 -0.4712
 3938TIP3    H136009   2.916   1.129  18.251  0.3961 -0.4344 -0.3841
 3938TIP3    H236010   2.837   1.132  18.122 -0.0764  0.0041 -0.0871
 3939TIP3   OH236011   2.483   6.476  18.529 -0.4220 -0.0134 -0.0110
 3939TIP3    H136012   2.416   6.513  18.472  0.1088  0.4672 -0.3351
 3939TIP3    H236013   2.508   6.548  18.587 -1.9642 -0.8643  1.8222
 3940TIP3   OH236014   3.564   0.419  17.370  0.7542 -0.6204  0.4279
 3940TIP3    H136015   3.499   0.470  17.322  1.7910  0.5367  0.1869
 3940TIP3    H236016   3.647   0.439  17.326  1.5487 -0.5483  1.9042
 3941TIP3   OH236017   0.091   6.963  18.493  0.1870 -0.0830  0.0745
 3941TIP3    H136018   0.122   7.051  18.474 -0.5487  0.6534  1.9940
 3941TIP3    H236019   0.091   6.918  18.409  0.3571  1.8187 -0.9893
 3942TIP3   OH236020   4.179   7.486  18.280 -0.5246 -0.2461  0.4381
 3942TIP3    H136021   4.096   7.450  18.309 -1.0407  0.3555 -0.2393
 3942TIP3    H236022   4.156   7.572  18.244  0.3340 -0.2290 -0.0930
 3943TIP3   OH236023   6.418   4.823  17.459  0.1869 -0.0289 -0.1906
 3943TIP3    H136024   6.457   4.823  17.547 -0.3544  0.5032  0.0554
 3943TIP3    H236025   6.337   4.873  17.469  0.6046  0.8772 -1.2109
 3944TIP3   OH236026   6.556   7.624  18.462 -0.6745 -0.4191  0.6711
 3944TIP3    H136027   6.516   7.701  18.502  1.4275  0.9415  0.2809
 3944TIP3    H236028   6.644   7.653  18.436  0.7598 -3.3506  1.8518
 3945TIP3   OH236029   3.677   1.464  17.715 -0.3393 -0.4158 -0.4373
 3945TIP3    H136030   3.763   1.505  17.712  0.0407 -1.1112  0.6058
 3945TIP3    H236031   3.637   1.487  17.631  0.6902  0.2697 -0.7573
 3946TIP3   OH236032   0.299   6.586  16.935  0.0932 -0.1617 -0.2202
 3946TIP3    H136033   0.329   6.676  16.922  0.6599 -0.3604 -0.3110
 3946TIP3    H236034   0.270   6.558  16.848  0.7709 -0.3705 -0.3841
 3947TIP3   OH236035   3.629   1.551  19.384 -0.5109  0.2304 -0.1564
 3947TIP3    H136036   3.609   1.540  19.477 -0.5544  1.0714 -0.0564
 3947TIP3    H236037   3.598   1.639  19.363  0.2189  0.3501 -0.7786
 3948TIP3   OH236038   0.997   2.349  19.159 -0.5147 -0.4023  0.2461
 3948TIP3    H136039   1.060   2.351  19.087  0.7663 -0.9133  1.3122
 3948TIP3    H236040   0.970   2.257  19.165 -0.0064 -0.5181  0.9034
 3949TIP3   OH236041   1.117   6.951  17.196 -0.0704 -0.1902  0.3642
 3949TIP3    H136042   1.044   6.960  17.135 -0.2102  0.5404  0.6242
 3949TIP3    H236043   1.123   6.858  17.215 -0.5382 -0.3230 -0.1418
 3950TIP3   OH236044   7.216   1.031  19.566 -0.2217  0.5299  0.2381
 3950TIP3    H136045   7.303   1.049  19.603  0.5084  0.4012 -1.3228
 3950TIP3    H236046   7.162   1.104  19.596  1.0827  1.9901 -0.8072
 3951TIP3   OH236047   1.676   2.879  19.353  0.2681  0.3530  0.1125
 3951TIP3    H136048   1.643   2.793  19.327  1.1717 -0.2361  0.8540
 3951TIP3    H236049   1.752   2.860  19.408  0.9386  1.6369 -0.3210
 3952TIP3   OH236050   7.465   0.614  16.606 -0.0618  0.8212 -0.0719
 3952TIP3    H136051   7.397   0.606  16.539  0.0864  1.2151 -0.2747
 3952TIP3    H236052   7.423   0.661  16.678 -0.7156 -1.0387  0.8182
 3953TIP3   OH236053   7.019   6.561  16.907 -0.4349 -0.5570 -0.1103
 3953TIP3    H136054   6.930   6.534  16.883 -0.1943 -0.6604 -0.9240
 3953TIP3    H236055   7.075   6.494  16.869  0.1068  0.4957 -1.2186
 3954TIP3   OH236056   5.854   7.628  18.146  0.0310 -0.4049  0.1809
 3954TIP3    H136057   5.819   7.657  18.230 -4.0162 -1.0586 -1.0453
 3954TIP3    H236058   5.817   7.690  18.083 -0.0781 -2.0332 -1.4271
 3955TIP3   OH236059   1.055   4.649  17.679  0.0061 -0.6179  0.8223
 3955TIP3    H136060   1.022   4.731  17.643 -0.2886  0.5557  3.5085
 3955TIP3    H236061   1.086   4.600  17.603 -1.0173  1.4030 -1.0113
 3956TIP3   OH236062   6.958   6.617  18.457 -0.5842 -0.2898  0.1498
 3956TIP3    H136063   6.964   6.592  18.365  0.7675  0.2514  0.0746
 3956TIP3    H236064   6.940   6.711  18.456  0.8252  0.0054  0.4121
 3957TIP3   OH236065   1.070   0.807  17.684  0.3958 -0.1977  0.3038
 3957TIP3    H136066   1.097   0.738  17.625  2.4703  1.4113 -0.7554
 3957TIP3    H236067   1.061   0.764  17.769 -1.9391 -2.4125 -0.9465
 3958TIP3   OH236068   7.304   4.550  16.612 -0.3243 -0.1186 -0.0587
 3958TIP3    H136069   7.319   4.644  16.612 -0.7401  0.0130  2.0494
 3958TIP3    H236070   7.226   4.538  16.557 -0.4702  0.8220 -0.0734
 3959TIP3   OH236071   2.191   4.277  16.996 -0.8571  0.2179 -0.1953
 3959TIP3    H136072   2.261   4.250  16.936 -1.4223 -1.2020 -0.2468
 3959TIP3    H236073   2.168   4.366  16.968  1.3433  0.9796  0.2191
 3960TIP3   OH236074   3.014   3.140  19.070  0.2646 -0.1579  0.1872
 3960TIP3    H136075   2.962   3.119  19.148  1.4882 -0.8223  0.8653
 3960TIP3    H236076   3.095   3.176  19.105  0.8644 -0.5491 -0.7762
 3961TIP3   OH236077   7.093   5.736  19.669 -0.4044 -0.3043  0.1252
 3961TIP3    H136078   7.080   5.700  19.756 -0.7461 -1.0867 -0.2413
 3961TIP3    H236079   7.071   5.829  19.678 -0.1903 -0.3244  0.9259
 3962TIP3   OH236080   0.159   4.708  18.707 -0.5838 -0.1365 -0.1200
 3962TIP3    H136081   0.105   4.730  18.632  0.1545  0.5809 -0.4637
 3962TIP3    H236082   0.249   4.709  18.673 -0.3883 -2.1418  0.2406
 3963TIP3   OH236083   2.227   2.383  18.406 -0.5288 -0.1637 -0.3337
 3963TIP3    H136084   2.289   2.418  18.471 -0.8970 -0.2466  0.0706
 3963TIP3    H236085   2.245   2.289  18.404 -1.2304 -0.3290  0.4464
 3964TIP3   OH236086   0.140   1.623  17.324  0.3327  0.2759 -0.4230
 3964TIP3    H136087   0.162   1.603  17.233 -1.4493  0.1027 -0.8532
 3964TIP3    H236088   0.083   1.551  17.352 -0.4547  1.1417  0.2945
 3965TIP3   OH236089   4.494   5.190  19.058 -0.2605  0.2767 -0.4969
 3965TIP3    H136090   4.538   5.275  19.057  1.1590 -0.4096  0.2857
 3965TIP3    H236091   4.565   5.127  19.064 -1.3777 -0.8683  2.0669
 3966TIP3   OH236092   6.013   0.010  17.507  0.5929  0.1295 -0.1839
 3966TIP3    H136093   6.029  -0.026  17.594  1.4857 -1.2121 -0.8696
 3966TIP3    H236094   5.945   0.076  17.521 -0.0797 -0.8247  1.3557
 3967TIP3   OH236095   5.559   5.215  17.135  0.3501 -0.2925 -0.5492
 3967TIP3    H136096   5.552   5.189  17.044  1.2550  1.5160 -1.1939
 3967TIP3    H236097   5.641   5.265  17.139 -0.9033  1.7985  0.6784
 3968TIP3   OH236098   1.151   1.955  18.608 -0.2171 -0.0227  0.4990
 3968TIP3    H136099   1.083   1.945  18.542 -0.4569 -0.8980  0.8709
 3968TIP3    H236100   1.197   2.035  18.582 -1.2109  0.4419  0.0886
 3969TIP3   OH236101   6.189   5.727  17.833 -0.0086 -0.6649 -0.2689
 3969TIP3    H136102   6.257   5.728  17.901 -1.3294 -1.0957  1.1220
 3969TIP3    H236103   6.146   5.642  17.843 -2.9890  0.8535  1.3176
 3970TIP3   OH236104   2.355   4.786  18.911  0.4977  0.1592  0.0690
 3970TIP3    H136105   2.268   4.808  18.878  0.6607  2.5378  1.0681
 3970TIP3    H236106   2.402   4.755  18.834 -1.2530 -1.3870 -0.4509
 3971TIP3   OH236107   4.457   3.525  19.409 -0.4647  0.1813  0.0031
 3971TIP3    H136108   4.450   3.448  19.353  1.0678  0.8939 -1.2575
 3971TIP3    H236109   4.383   3.579  19.383 -0.5238 -0.0873 -0.4116
 3972TIP3   OH236110   1.569   0.183  18.515 -0.0942 -0.2195  0.0107
 3972TIP3    H136111   1.504   0.239  18.473  0.0089 -0.8496 -1.0194
 3972TIP3    H236112   1.624   0.244  18.564  0.3146  0.6556 -1.4723
 3973TIP3   OH236113   7.155   0.604  19.603  0.0054 -0.2514 -0.4097
 3973TIP3    H136114   7.120   0.674  19.658 -0.5236 -0.8722  0.0714
 3973TIP3    H236115   7.077   0.556  19.573  0.3288 -0.3312 -1.1406
 3974TIP3   OH236116   5.071   4.283  18.322  0.2177  0.2763 -0.5857
 3974TIP3    H136117   5.084   4.376  18.340  0.0257  0.7012 -2.4181
 3974TIP3    H236118   4.987   4.261  18.361 -0.4253  1.2553 -1.3882
 3975TIP3   OH236119   3.697   7.545  16.920  0.1725  0.2344  0.5816
 3975TIP3    H136120   3.708   7.471  16.980  0.5951 -1.1378 -1.1040
 3975TIP3    H236121   3.785   7.567  16.892 -0.1575 -1.3439 -2.0019
 3976TIP3   OH236122   1.414   6.180  17.901  0.3290  0.4253 -0.0458
 3976TIP3    H136123   1.392   6.195  17.809  0.7040  0.0032 -0.2092
 3976TIP3    H236124   1.333   6.149  17.940  0.1347  0.7279 -0.2069
 3977TIP3   OH236125   5.195   3.186  19.442 -0.0909  0.1039  0.1557
 3977TIP3    H136126   5.099   3.191  19.443 -0.1867 -0.3027 -2.3446
 3977TIP3    H236127   5.223   3.275  19.423  0.0736  0.2520  1.0227
 3978TIP3   OH236128   6.911   3.280  19.521  0.2300 -0.3591 -0.5492
 3978TIP3    H136129   6.826   3.238  19.508 -0.2720  1.1333 -2.6020
 3978TIP3    H236130   6.969   3.235  19.459  0.6284 -0.4872 -0.0899
 3979TIP3   OH236131   6.675   0.389  19.507 -0.0776 -0.4534  0.1157
 3979TIP3    H136132   6.656   0.304  19.469 -0.1522 -0.8495  1.0126
 3979TIP3    H236133   6.769   0.390  19.521 -0.0206 -0.2253 -0.2578
 3980TIP3   OH236134   3.940   4.088  17.474  0.1427  0.4405 -0.0771
 3980TIP3    H136135   4.028   4.124  17.487 -0.0850  0.4723  1.6516
 3980TIP3    H236136   3.891   4.118  17.551 -1.2789  0.1241 -0.8398
 3981TIP3   OH236137   4.550   4.253  19.107 -0.2965  0.7327 -0.1160
 3981TIP3    H136138   4.496   4.332  19.112  0.1353  1.0732 -0.6856
 3981TIP3    H236139   4.576   4.248  19.015  0.9363  0.7827  0.2133
 3982TIP3   OH236140   5.538   5.348  19.480  0.0250  0.2159  0.3647
 3982TIP3    H136141   5.580   5.263  19.497  0.4754  0.6202  1.4132
 3982TIP3    H236142   5.446   5.327  19.463  0.5124 -0.6418 -1.4093
 3983TIP3   OH236143   2.473   0.699  17.686  0.1131  0.3422  0.2563
 3983TIP3    H136144   2.387   0.742  17.684  0.2513  0.6070 -0.0918
 3983TIP3    H236145   2.505   0.715  17.775 -0.7203 -0.8072  0.7903
 3984TIP3   OH236146   0.383   2.789  17.599 -0.3644  0.2642 -0.2046
 3984TIP3    H136147   0.442   2.819  17.669 -0.0613 -0.4759 -0.1352
 3984TIP3    H236148   0.334   2.717  17.638 -0.1921 -0.1570 -0.7586
 3985TIP3   OH236149   2.558   2.363  18.202 -0.1245  0.3672  0.2184
 3985TIP3    H136150   2.524   2.418  18.132  1.2769  0.6629 -0.2581
 3985TIP3    H236151   2.518   2.398  18.282  0.3915  1.8058 -0.1239
 3986TIP3   OH236152   3.116   2.502  19.613  0.1013 -0.2331 -0.3853
 3986TIP3    H136153   3.128   2.419  19.568 -4.5011 -1.5936  0.4207
 3986TIP3    H236154   3.114   2.567  19.543  0.2160 -1.2925 -1.4009
 3987TIP3   OH236155   7.270   3.847  17.407 -0.2323  0.1726  0.2417
 3987TIP3    H136156   7.209   3.913  17.441  0.3266  1.4553 -1.1211
 3987TIP3    H236157   7.357   3.878  17.434 -0.0639 -1.1733  1.4087
 3988TIP3   OH236158   6.653   2.749  18.993 -0.0346  0.3572  0.1288
 3988TIP3    H136159   6.692   2.754  19.080 -0.4717 -0.1236  0.3630
 3988TIP3    H236160   6.625   2.657  18.985 -0.4718  0.5246 -0.3054
 3989TIP3   OH236161   3.489   4.169  19.240  0.0097 -0.4624 -0.1551
 3989TIP3    H136162   3.514   4.077  19.246  1.1723 -0.0373  2.5151
 3989TIP3    H236163   3.568   4.214  19.209 -0.4179 -0.2529 -0.9970
 3990TIP3   OH236164   5.064   6.861  17.084  0.3796  0.0384 -0.0748
 3990TIP3    H136165   5.004   6.892  17.016 -0.0077 -0.1578  0.1672
 3990TIP3    H236166   5.070   6.766  17.068 -0.8897 -0.2638  1.0434
 3991TIP3   OH236167   6.543   5.524  17.262  0.1168 -0.1485 -0.1454
 3991TIP3    H136168   6.487   5.514  17.186  0.3022 -0.3682 -0.2539
 3991TIP3    H236169   6.497   5.478  17.333  0.2147 -0.4338 -0.2638
 3992TIP3   OH236170   3.270   7.639  17.877 -0.0785  0.2589 -0.1032
 3992TIP3    H136171   3.196   7.696  17.895  0.2130  0.1958  1.4305
 3992TIP3    H236172   3.311   7.625  17.962  0.0632 -1.9784 -0.4803
 3993TIP3   OH236173   7.543   3.082  16.890 -0.5679 -0.4514 -0.1091
 3993TIP3    H136174   7.460   3.084  16.842 -1.4097 -0.4276  1.2850
 3993TIP3    H236175   7.569   2.991  16.889  0.2836 -0.2414 -1.9560
 3994TIP3   OH236176   3.750   1.602  18.881  0.2455  0.1946  0.2058
 3994TIP3    H136177   3.742   1.618  18.976  0.6713  0.3714  0.2166
 3994TIP3    H236178   3.730   1.687  18.842 -1.2652 -0.2020  0.0571
 3995TIP3   OH236179   7.510   4.306  19.285  0.1786  0.6009 -0.1643
 3995TIP3    H136180   7.596   4.319  19.245 -0.4222  1.1237 -1.3192
 3995TIP3    H236181   7.449   4.349  19.226 -0.7808  1.1368  1.1659
 3996TIP3   OH236182   4.877   0.949  17.669 -0.1330  0.3079  0.4713
 3996TIP3    H136183   4.964   0.939  17.630 -1.0039 -0.9734 -1.3334
 3996TIP3    H236184   4.837   1.021  17.620  0.2064  1.5847  1.9806
 3997TIP3   OH236185   7.264   5.468  18.388  0.3904  0.3223 -0.3540
 3997TIP3    H136186   7.219   5.506  18.463 -0.2797 -2.5677  0.8365
 3997TIP3    H236187   7.195   5.432  18.332  1.0177 -0.8034 -0.4468
 3998TIP3   OH236188   1.054   5.488  19.602  0.3217  0.2045  0.0637
 3998TIP3    H136189   1.143   5.465  19.628  0.5385 -0.0616 -0.8696
 3998TIP3    H236190   0.998   5.426  19.649  0.5754  0.6757  1.0253
 3999TIP3   OH236191   0.770   4.108  18.480 -1.1074 -0.5202 -0.2136
 3999TIP3    H136192   0.798   4.196  18.454  0.6181 -0.7272  0.8018
 3999TIP3    H236193   0.779   4.055  18.400 -0.6192 -0.1066 -0.4366
 4000TIP3   OH236194   6.086   2.843  19.263 -0.2066  0.3807  0.1717
 4000TIP3    H136195   6.055   2.752  19.265  0.7761 -0.0700 -2.0807
 4000TIP3    H236196   6.174   2.837  19.228 -0.1567  2.2338 -0.0812
 4001TIP3   OH236197   6.960   4.349  18.608 -0.1006 -0.0316 -0.3417
 4001TIP3    H136198   7.028   4.393  18.557  1.3368  0.9437  2.2394
 4001TIP3    H236199   7.006   4.279  18.654 -1.4928 -1.3294 -0.8434
 4002TIP3   OH236200   3.764   3.866  16.742  0.0350 -0.0127 -1.1101
 4002TIP3    H136201   3.712   3.920  16.682 -0.4604 -0.0885 -0.7542
 4002TIP3    H236202   3.723   3.879  16.827  0.6349 -0.0367 -0.8143
 4003TIP3   OH236203   6.375   6.318  18.342  0.1589  0.3151 -0.3541
 4003TIP3    H136204   6.470   6.302  18.338  0.1716  0.0045  0.8156
 4003TIP3    H236205   6.336   6.239  18.305  0.3421 -0.2184  0.5531
 4004TIP3   OH236206   5.687   4.775  18.298  0.6850  0.2658  0.2340
 4004TIP3    H136207   5.761   4.834  18.306  0.8248  0.1720 -0.3113
 4004TIP3    H236208   5.634   4.791  18.376  0.2303  1.7991 -0.3535
 4005TIP3   OH236209   0.138   3.950  17.429  0.4673  0.5222 -0.7405
 4005TIP3    H136210   0.111   4.030  17.385 -2.1923  0.5205  0.6573
 4005TIP3    H236211   0.162   3.978  17.517 -0.8096 -0.1974 -0.1348
 4006TIP3   OH236212   2.739   5.431  17.793 -0.4777 -0.2350  0.2188
 4006TIP3    H136213   2.692   5.357  17.831 -0.1359  0.2154  1.5653
 4006TIP3    H236214   2.674   5.501  17.789 -1.1098 -0.8405 -2.0456
 4007TIP3   OH236215   6.965   6.286  19.294  0.6536 -0.1646 -0.4525
 4007TIP3    H136216   6.883   6.291  19.246  0.8878  0.4079 -0.8047
 4007TIP3    H236217   6.974   6.371  19.336  1.1279 -0.1788 -0.5174
 4008TIP3   OH236218   6.115   5.189  18.753  0.1442 -0.6643  0.4815
 4008TIP3    H136219   6.189   5.127  18.757 -1.0291 -2.0795  1.7649
 4008TIP3    H236220   6.058   5.154  18.685 -0.2035 -0.6184  0.7467
 4009TIP3   OH236221   7.585   1.813  18.564  0.1338  0.0269  0.0510
 4009TIP3    H136222   7.580   1.897  18.519  0.3855 -0.5767 -1.1488
 4009TIP3    H236223   7.609   1.835  18.654 -0.7886  1.2964  0.0135
 4010TIP3   OH236224   7.618   0.085  17.868 -0.2015  0.4003  0.7554
 4010TIP3    H136225   7.662   0.011  17.824 -1.0448  1.5340 -2.2771
 4010TIP3    H236226   7.529   0.053  17.883  0.1309 -0.0441  1.8420
 4011TIP3   OH236227   3.906   0.927  17.462 -0.0972  0.7998 -0.4251
 4011TIP3    H136228   3.873   0.837  17.465  0.0498  0.7244 -0.9066
 4011TIP3    H236229   3.905   0.950  17.369  3.0585  0.0831 -0.7707
 4012TIP3   OH236230   5.013   4.004  18.589  0.2367 -0.1102  0.0143
 4012TIP3    H136231   5.020   3.987  18.683  0.4952 -0.1260 -0.0067
 4012TIP3    H236232   4.976   3.924  18.553  1.8004 -0.8038 -0.1376
 4013TIP3   OH236233   4.019   0.134  18.349 -0.1599 -0.3500 -0.7585
 4013TIP3    H136234   4.044   0.186  18.272  2.8851 -1.0919 -0.3915
 4013TIP3    H236235   4.018   0.044  18.318  1.9038 -0.7450  0.1577
 4014TIP3   OH236236   1.895   0.555  17.739 -0.2775  0.0218 -0.2017
 4014TIP3    H136237   1.820   0.549  17.679 -0.1747 -2.6125 -0.1581
 4014TIP3    H236238   1.922   0.465  17.754 -1.0091  0.3521  4.7761
 4015TIP3   OH236239   5.323   3.809  18.640 -0.0059  0.3654 -0.2371
 4015TIP3    H136240   5.348   3.767  18.722 -1.1028 -0.7671 -0.4544
 4015TIP3    H236241   5.363   3.896  18.644  2.4262 -0.6926  0.1945
 4016TIP3   OH236242   1.437   7.467  19.619 -0.5391 -0.0111 -0.0998
 4016TIP3    H136243   1.402   7.490  19.533 -2.3255 -0.2006  0.5439
 4016TIP3    H236244   1.410   7.539  19.676  0.6343  0.1168  0.3272
 4017TIP3   OH236245   4.862   2.256  18.537  0.2298 -0.2401 -0.3458
 4017TIP3    H136246   4.932   2.193  18.554  0.1960 -0.6812 -1.7025
 4017TIP3    H236247   4.882   2.291  18.451  0.2276  1.6178  0.3658
 4018TIP3   OH236248   0.813   6.542  17.566 -0.1581 -0.6311 -0.2500
 4018TIP3    H136249   0.769   6.460  17.543 -0.1731 -0.4340 -0.9403
 4018TIP3    H236250   0.830   6.534  17.660 -4.5620  0.5869  0.9175
 4019TIP3   OH236251   1.368   3.181  19.140 -0.0156 -0.8814  0.5517
 4019TIP3    H136252   1.435   3.243  19.111  1.2119 -1.5173  1.9458
 4019TIP3    H236253   1.288   3.234  19.147  0.2139 -0.1608 -1.3795
 4020TIP3   OH236254   2.745   1.662  17.803  0.0455  0.1678 -0.2330
 4020TIP3    H136255   2.719   1.621  17.885  2.0281  2.6177  1.8010
 4020TIP3    H236256   2.761   1.589  17.743  0.8609 -1.8741  2.3050
 4021TIP3   OH236257   1.996   2.378  19.070  0.0036  0.0126  0.0765
 4021TIP3    H136258   1.996   2.282  19.067 -0.8241 -0.3463  4.3400
 4021TIP3    H236259   2.087   2.401  19.091 -0.0528  0.0225  0.3188
 4022TIP3   OH236260   3.077   6.624  18.883 -0.7742 -0.0357 -0.8421
 4022TIP3    H136261   3.161   6.670  18.871 -0.3170 -0.5175  0.3370
 4022TIP3    H236262   3.099   6.548  18.937 -1.9102 -0.4172 -0.8884
 4023TIP3   OH236263   2.699   3.403  18.266 -0.2639  0.2593  0.0834
 4023TIP3    H136264   2.655   3.483  18.236 -0.5299 -0.3490 -1.2427
 4023TIP3    H236265   2.730   3.362  18.185  0.7592 -0.4680  0.8301
 4024TIP3   OH236266   1.160   5.286  18.540  0.1709  0.3686  0.4881
 4024TIP3    H136267   1.110   5.253  18.465 -0.5847  0.2459  1.0219
 4024TIP3    H236268   1.134   5.377  18.547 -0.9386  0.0056  1.4914
 4025TIP3   OH236269   6.228   7.031  17.296  0.0269 -0.7420  0.2427
 4025TIP3    H136270   6.307   7.042  17.243 -1.1002  2.5734 -1.0322
 4025TIP3    H236271   6.176   6.967  17.248  0.6702 -0.6807 -0.5596
 4026TIP3   OH236272   7.281   0.721  18.377  0.6408  0.0580  0.2763
 4026TIP3    H136273   7.201   0.710  18.429  0.4474 -1.7471 -0.3398
 4026TIP3    H236274   7.290   0.816  18.367 -2.9839  0.3596 -1.9628
 4027TIP3   OH236275   1.699   4.002  17.475 -0.3754 -0.0075 -0.0941
 4027TIP3    H136276   1.769   4.063  17.497  0.1324 -0.5426 -0.2293
 4027TIP3    H236277   1.629   4.024  17.537 -0.6581  1.4948 -0.9123
 4028TIP3   OH236278   7.027   5.176  19.056 -0.3626  0.3610  0.1081
 4028TIP3    H136279   7.062   5.211  19.137 -1.1441  0.3659  0.4498
 4028TIP3    H236280   6.945   5.133  19.081  0.0317 -0.7814 -0.4658
 4029TIP3   OH236281   0.573   6.578  17.144 -0.4492 -0.3261 -0.8250
 4029TIP3    H136282   0.566   6.644  17.075 -0.4273 -0.2981 -0.7997
 4029TIP3    H236283   0.621   6.621  17.215  0.1423 -0.5716 -1.0658
 4030TIP3   OH236284   7.451   6.918  18.207  0.1262 -0.0604  0.6272
 4030TIP3    H136285   7.392   6.906  18.282 -1.5483  2.2632 -0.1784
 4030TIP3    H236286   7.496   7.001  18.226 -0.7360  0.8739 -1.0989
 4031TIP3   OH236287   7.583   1.510  16.644 -0.2850 -0.1754  0.0385
 4031TIP3    H136288   7.520   1.582  16.649 -0.9215 -0.6399 -0.9998
 4031TIP3    H236289   7.637   1.529  16.568 -0.4363 -0.7583 -0.2260
 4032TIP3   OH236290   1.034   2.424  18.508  0.4467 -0.3682 -0.5999
 4032TIP3    H136291   1.086   2.484  18.561 -0.8620  0.6221 -0.3739
 4032TIP3    H236292   0.959   2.402  18.564  0.1055 -0.9710 -1.2795
 4033TIP3   OH236293   6.863   0.544  17.629  0.0679 -0.0813  0.8391
 4033TIP3    H136294   6.892   0.494  17.706  0.8522 -0.5918  0.2265
 4033TIP3    H236295   6.856   0.634  17.661  0.1784 -0.3202  1.5662
 4034TIP3   OH236296   5.827   4.536  17.539 -0.1858 -0.3479 -0.1159
 4034TIP3    H136297   5.808   4.496  17.454 -0.4063 -1.8932  0.6323
 4034TIP3    H236298   5.742   4.571  17.568 -0.3230 -0.6878 -0.0999
 4035TIP3   OH236299   0.638   1.138  18.428 -0.1178  0.1033  0.4033
 4035TIP3    H136300   0.713   1.181  18.470 -0.1268  0.1821  0.3410
 4035TIP3    H236301   0.602   1.206  18.370  1.6453 -0.8337 -1.9517
 4036TIP3   OH236302   0.757   1.416  19.226 -0.0139 -0.0058 -0.3013
 4036TIP3    H136303   0.725   1.378  19.144 -1.8580  2.0057 -0.6061
 4036TIP3    H236304   0.827   1.476  19.199  0.3497 -0.4085 -0.2492
 4037TIP3   OH236305   6.475   2.075  19.229  0.1730  0.7477  0.1860
 4037TIP3    H136306   6.534   2.083  19.154 -1.3798  0.7398 -1.0747
 4037TIP3    H236307   6.448   2.165  19.248  0.7454  0.7781  0.9291
 4038TIP3   OH236308   1.942   5.051  19.420 -0.5598  0.8981  0.0592
 4038TIP3    H136309   1.898   5.135  19.408 -0.2110  1.4417  2.0955
 4038TIP3    H236310   1.872   4.990  19.444 -0.4991  1.3362  1.4791
 4039TIP3   OH236311   2.917   7.017  17.685 -0.0340  0.1166  0.0421
 4039TIP3    H136312   2.969   6.952  17.639  0.4333 -0.6661  1.6272
 4039TIP3    H236313   2.827   6.998  17.659  0.2066 -0.3620 -0.4665
 4040TIP3   OH236314   4.465   2.589  18.090  0.4194 -0.3172  0.5785
 4040TIP3    H136315   4.436   2.581  18.181  2.0539  1.0164  1.2836
 4040TIP3    H236316   4.544   2.643  18.095 -0.1203  0.8404 -1.7711
 4041TIP3   OH236317   0.278   2.909  19.561  0.4722  0.5739  0.9411
 4041TIP3    H136318   0.196   2.929  19.516  1.2245  2.8263  0.4254
 4041TIP3    H236319   0.344   2.907  19.491  1.3879  2.4553  1.6831
 4042TIP3   OH236320   7.559   2.682  18.332  0.6496 -0.1809 -0.1855
 4042TIP3    H136321   7.499   2.607  18.330 -0.4753  0.6956 -1.3496
 4042TIP3    H236322   7.632   2.653  18.387 -1.6725 -0.6478  2.9628
 4043TIP3   OH236323   5.350   4.271  17.874  0.3453 -0.4495 -0.6241
 4043TIP3    H136324   5.284   4.224  17.824 -1.3815  0.8598  0.2951
 4043TIP3    H236325   5.394   4.204  17.925 -1.1833 -1.2400 -0.2791
 4044TIP3   OH236326   0.000   1.372  19.407 -0.1006  0.6072  0.0334
 4044TIP3    H136327  -0.095   1.381  19.404 -0.1935  0.8209  2.1897
 4044TIP3    H236328   0.032   1.440  19.347 -1.2935  0.1058 -1.2197
 4045TIP3   OH236329   4.439   4.839  18.267 -0.1731  0.0639  0.1015
 4045TIP3    H136330   4.420   4.933  18.255 -0.4077  0.0680  0.4660
 4045TIP3    H236331   4.361   4.795  18.234 -0.3649  0.0312  0.5825
 4046TIP3   OH236332   1.153   2.221  17.208  0.1456  0.2369  0.0615
 4046TIP3    H136333   1.233   2.261  17.242  0.2784 -0.8708  1.1200
 4046TIP3    H236334   1.117   2.287  17.148  2.1826  0.4846 -0.9851
 4047TIP3   OH236335   6.666   3.630  18.900  0.3267 -0.0610  0.5903
 4047TIP3    H136336   6.715   3.661  18.976  0.0414  0.1581  0.6836
 4047TIP3    H236337   6.625   3.549  18.929  1.7105 -0.9768  0.1132
 4048TIP3   OH236338   1.277   1.743  17.564 -0.4404 -0.0094  0.0702
 4048TIP3    H136339   1.353   1.759  17.508  0.7439 -0.1827  1.5396
 4048TIP3    H236340   1.281   1.650  17.584 -0.0720  0.2682  1.4258
 4049TIP3   OH236341   0.944   5.285  19.740  0.2626 -0.1002 -0.1240
 4049TIP3    H136342   0.905   5.211  19.694  0.2862 -1.2064  1.5583
 4049TIP3    H236343   1.015   5.247  19.791  0.8187  1.2261  0.1388
 4050TIP3   OH236344   6.585   5.856  17.289  0.5795 -0.6046 -0.1562
 4050TIP3    H136345   6.620   5.927  17.343 -2.1893  1.5716 -1.0320
 4050TIP3    H236346   6.531   5.805  17.350 -1.7219  1.2645 -0.4749
 4051TIP3   OH236347   1.218   6.306  19.502 -0.2751  0.5123  0.1023
 4051TIP3    H136348   1.237   6.398  19.486 -2.2529  1.1163  0.8500
 4051TIP3    H236349   1.127   6.295  19.473 -0.4925 -0.8738  1.2047
 4052TIP3   OH236350   6.008   0.151  19.178  0.3569 -0.2551  0.0870
 4052TIP3    H136351   5.985   0.059  19.179 -1.0504  0.0671  1.2555
 4052TIP3    H236352   5.977   0.185  19.262  0.8450  1.2854 -0.3068
 4053TIP3   OH236353   5.022   3.725  18.355 -0.2898  0.2068 -0.0171
 4053TIP3    H136354   5.084   3.766  18.295 -0.0382 -0.3555 -0.1499
 4053TIP3    H236355   4.940   3.719  18.306  0.0296 -0.6454 -0.4736
 4054TIP3   OH236356   6.578   2.121  18.430 -0.1192 -0.5339 -0.3331
 4054TIP3    H136357   6.553   2.196  18.375 -2.3888  0.2470  1.5897
 4054TIP3    H236358   6.506   2.058  18.419  0.5546 -1.3711 -0.0243
 4055TIP3   OH236359   4.591   5.437  19.068 -0.1457 -0.5521 -0.4682
 4055TIP3    H136360   4.498   5.446  19.044 -0.1026 -1.1093 -0.8813
 4055TIP3    H236361   4.636   5.497  19.009 -0.1544 -1.0275 -0.9678
 4056TIP3   OH236362   1.866   2.144  16.786 -0.0055  0.1178  0.0113
 4056TIP3    H136363   1.925   2.101  16.723  0.1366  1.2303 -0.6489
 4056TIP3    H236364   1.834   2.221  16.739 -1.1355  0.1218  0.7643
 4057TIP3   OH236365   3.030   0.021  19.351  0.3254 -0.2187 -0.8857
 4057TIP3    H136366   3.062  -0.038  19.283  1.2874  0.0642 -0.6979
 4057TIP3    H236367   3.049  -0.025  19.433 -0.6630 -0.4813 -0.8015
 4058TIP3   OH236368   4.515   3.439  18.401 -0.3676 -0.2667  0.3417
 4058TIP3    H136369   4.523   3.534  18.409  1.1261 -0.4040  0.8852
 4058TIP3    H236370   4.422   3.423  18.383 -0.4644  1.3547 -0.7865
 4059TIP3   OH236371   4.475   2.090  18.419  0.1744 -0.1123 -0.7720
 4059TIP3    H136372   4.404   2.028  18.399 -0.2089 -0.5320  1.5574
 4059TIP3    H236373   4.554   2.046  18.387 -0.0833 -1.9245  0.8476
 4060TIP3   OH236374   1.627   1.740  17.916 -0.7142 -0.0764 -0.2884
 4060TIP3    H136375   1.599   1.648  17.913  1.6877 -0.8643 -1.9343
 4060TIP3    H236376   1.632   1.766  17.824  0.7421  0.9667  0.0581
 4061TIP3   OH236377   5.046   0.108  17.241  0.4376  0.4442 -0.5382
 4061TIP3    H136378   5.083   0.085  17.156 -0.4512  3.9878 -2.0657
 4061TIP3    H236379   4.951   0.098  17.230  0.2853  1.3217 -0.1061
 4062TIP3   OH236380   7.024   1.501  18.290  0.3822 -0.8417 -0.1754
 4062TIP3    H136381   7.031   1.502  18.195  2.1533 -0.6632 -0.0794
 4062TIP3    H236382   7.032   1.593  18.316 -1.4012 -0.7222  0.1201
 4063TIP3   OH236383   2.162   0.542  18.513  0.6579  0.5233  0.0338
 4063TIP3    H136384   2.131   0.504  18.596  1.1727 -0.8565 -0.3800
 4063TIP3    H236385   2.204   0.469  18.468  0.5723  1.3096 -1.3593
 4064TIP3   OH236386   3.129   5.477  17.267 -0.0725 -0.3828  0.5729
 4064TIP3    H136387   3.123   5.457  17.174  0.2947  0.4629  0.3566
 4064TIP3    H236388   3.089   5.401  17.311 -1.1735 -0.3351 -0.3015
 4065TIP3   OH236389   2.936   4.979  18.025  0.1729 -0.2183 -0.2291
 4065TIP3    H136390   2.888   4.999  17.944 -0.1666  0.6250  0.1721
 4065TIP3    H236391   3.011   5.038  18.023 -0.9359  1.3019  1.0615
 4066TIP3   OH236392   6.728   3.643  18.082  0.0518 -0.3779  0.1952
 4066TIP3    H136393   6.755   3.674  17.995 -0.7627  0.9162  0.3871
 4066TIP3    H236394   6.810   3.629  18.129  0.5022  2.5648  0.4481
 4067TIP3   OH236395   5.040   4.137  19.106  0.5753 -0.5480  0.2033
 4067TIP3    H136396   5.064   4.162  19.017 -0.0631 -0.1659  0.1359
 4067TIP3    H236397   5.074   4.208  19.161 -1.9509  0.9871 -0.0625
 4068TIP3   OH236398   6.686   1.036  17.038 -0.4420  0.4249 -0.6146
 4068TIP3    H136399   6.693   1.062  17.130 -0.3121 -1.3421 -0.0930
 4068TIP3    H236400   6.610   1.084  17.006 -0.5665  0.9689  0.4479
 4069TIP3   OH236401   4.902   7.065  18.892 -0.2843  0.4281 -0.0916
 4069TIP3    H136402   4.821   7.098  18.932  0.7540  1.4723  1.2196
 4069TIP3    H236403   4.906   6.973  18.917  0.3003  1.0274  2.2379
 4070TIP3   OH236404   4.030   1.629  16.915  1.0610  0.1352 -0.2442
 4070TIP3    H136405   4.062   1.589  16.835 -1.1977 -0.4217 -0.9564
 4070TIP3    H236406   3.935   1.635  16.902  0.6967  0.5654  2.1541
 4071TIP3   OH236407   7.289   1.176  17.272  0.4331  0.3064 -0.1903
 4071TIP3    H136408   7.319   1.194  17.361  1.9094 -1.4650 -0.2639
 4071TIP3    H236409   7.360   1.124  17.233 -0.8669 -0.2960 -1.8811
 4072TIP3   OH236410   6.465   7.354  17.455 -0.4246 -0.1757 -0.2867
 4072TIP3    H136411   6.438   7.347  17.363 -0.4259 -0.5788 -0.2572
 4072TIP3    H236412   6.549   7.310  17.459 -1.4648 -2.2353  0.3508
 4073TIP3   OH236413   6.698   1.797  18.957 -0.0390 -0.6533 -0.1705
 4073TIP3    H136414   6.693   1.806  18.862  2.5921  0.6472 -0.3002
 4073TIP3    H236415   6.661   1.711  18.975 -1.4076 -0.5829 -2.2434
 4074TIP3   OH236416   2.834   6.116  18.278  0.1080 -0.0794 -0.3800
 4074TIP3    H136417   2.763   6.070  18.234  0.1630 -1.1082  0.5573
 4074TIP3    H236418   2.792   6.189  18.324  0.1379  1.4764 -2.6672
 4075TIP3   OH236419   5.368   4.217  19.146 -0.3562  0.3469 -0.0855
 4075TIP3    H136420   5.427   4.259  19.084 -2.0610 -0.1530 -2.1736
 4075TIP3    H236421   5.376   4.269  19.226  0.5721  2.1586 -1.2968
 4076TIP3   OH236422   4.014   3.813  18.038 -0.3304  0.0831 -0.1528
 4076TIP3    H136423   4.042   3.771  18.119 -0.7172  0.8047  0.3677
 4076TIP3    H236424   3.961   3.747  17.993 -2.0130  0.3861  1.2623
 4077TIP3   OH236425   0.647   5.730  18.376 -0.1896  0.2374 -0.5503
 4077TIP3    H136426   0.661   5.659  18.438 -2.5158 -0.4285 -0.7174
 4077TIP3    H236427   0.599   5.797  18.426 -3.0472 -0.7526 -1.7903
 4078TIP3   OH236428   0.466   4.201  16.827  0.0860  0.0908 -0.0699
 4078TIP3    H136429   0.399   4.170  16.766  0.5368  0.6850 -0.8791
 4078TIP3    H236430   0.547   4.160  16.797  0.0031 -1.1678  1.3107
 4079TIP3   OH236431   1.355   5.514  19.573  0.2878  0.1007 -0.1631
 4079TIP3    H136432   1.344   5.608  19.580  0.0121  0.3189 -2.6867
 4079TIP3    H236433   1.330   5.493  19.484  1.6806 -2.1711 -0.1100
 4080TIP3   OH236434   5.343   3.788  19.447  0.5354  0.4361  0.3601
 4080TIP3    H136435   5.298   3.710  19.416  1.9769 -0.7448  1.1347
 4080TIP3    H236436   5.276   3.856  19.446 -0.3471 -0.3709 -1.9289
 4081TIP3   OH236437   7.046   3.061  16.505 -0.1726  0.2515  0.0682
 4081TIP3    H136438   7.132   3.020  16.515 -0.3457  0.0906  1.0337
 4081TIP3    H236439   7.064   3.147  16.467  0.3943  0.1289  0.0586
 4082TIP3   OH236440   7.528   6.297  18.463  0.1157 -0.2408 -0.0651
 4082TIP3    H136441   7.545   6.320  18.372 -0.1836 -0.5277 -0.1941
 4082TIP3    H236442   7.443   6.254  18.462  0.9102 -1.9146  0.0628
 4083TIP3   OH236443   4.787   0.420  18.388  0.2657  0.0670 -0.3991
 4083TIP3    H136444   4.859   0.364  18.418  0.7606 -0.3077 -2.1672
 4083TIP3    H236445   4.760   0.381  18.305 -1.4155  0.7194 -0.1932
 4084TIP3   OH236446   1.140   7.556  16.714 -0.0075 -0.7780  0.0384
 4084TIP3    H136447   1.092   7.545  16.796 -0.6459  0.0032 -0.2223
 4084TIP3    H236448   1.197   7.631  16.729 -1.3685  0.4699 -0.7733
 4085TIP3   OH236449   7.353   4.663  19.616  0.5623  0.4814  0.2583
 4085TIP3    H136450   7.380   4.746  19.656  1.2082  0.4356 -0.0682
 4085TIP3    H236451   7.364   4.599  19.686  0.5307  0.5953  0.3693
 4086TIP3   OH236452   2.180   0.227  18.931  0.2220 -0.4139  0.0303
 4086TIP3    H136453   2.219   0.198  18.849  0.1795  0.5249 -0.3390
 4086TIP3    H236454   2.223   0.174  18.998 -0.4135 -1.8431 -0.6587
 4087TIP3   OH236455   5.408   3.449  19.613  0.1547 -0.6397 -0.5302
 4087TIP3    H136456   5.471   3.519  19.625  0.2062 -0.0255 -3.6305
 4087TIP3    H236457   5.343   3.484  19.552  0.0941 -3.1861 -2.0903
 4088TIP3   OH236458   4.991   2.383  17.646  0.4826 -0.6382  0.3370
 4088TIP3    H136459   4.930   2.325  17.693  1.9770 -1.0267  1.8781
 4088TIP3    H236460   4.958   2.471  17.663 -0.4703 -0.9056 -0.0664
 4089TIP3   OH236461   4.082   4.624  16.964  0.1735 -0.7404 -0.0721
 4089TIP3    H136462   4.153   4.665  17.014 -1.4635  3.3467 -0.6538
 4089TIP3    H236463   4.124   4.552  16.917  3.7045  0.7729  0.4375
 4090TIP3   OH236464   5.912   2.744  17.184 -0.5688 -0.4033 -0.3597
 4090TIP3    H136465   5.853   2.740  17.109 -3.8520  1.2756  1.8824
 4090TIP3    H236466   5.873   2.685  17.249  1.1109 -0.3998  0.7258
 4091TIP3   OH236467   5.565   0.819  19.174 -0.1162  0.1495  0.1114
 4091TIP3    H136468   5.559   0.831  19.269 -0.6664  0.9054 -0.0153
 4091TIP3    H236469   5.492   0.761  19.153 -1.5627  1.9958 -0.1762
 4092TIP3   OH236470   2.647   4.380  18.123 -0.4850  0.1445 -0.2569
 4092TIP3    H136471   2.568   4.328  18.135  0.1915 -1.8021 -3.2053
 4092TIP3    H236472   2.718   4.323  18.153 -0.0267  1.3457  1.0757
 4093TIP3   OH236473   1.628   3.858  18.206 -0.1312  0.0956 -0.1666
 4093TIP3    H136474   1.634   3.818  18.119 -0.2401  1.2645 -0.7287
 4093TIP3    H236475   1.719   3.881  18.228 -0.2807  1.2448 -0.6862
 4094TIP3   OH236476   7.225   2.181  18.125  0.0394 -0.2135  0.3353
 4094TIP3    H136477   7.215   2.250  18.060  0.4154 -0.7393 -0.2986
 4094TIP3    H236478   7.294   2.125  18.089  2.4174  1.0755  2.5470
 4095TIP3   OH236479   2.346   7.036  17.158 -0.6527  0.0173  0.7451
 4095TIP3    H136480   2.306   7.072  17.078 -0.2836 -1.1844 -0.0036
 4095TIP3    H236481   2.309   6.948  17.165 -0.0403 -0.1901  1.4462
 4096TIP3   OH236482   7.303   3.702  16.102 -0.1394  0.2109  0.0548
 4096TIP3    H136483   7.350   3.698  16.186  2.1163 -1.9804 -1.1542
 4096TIP3    H236484   7.242   3.628  16.106 -0.9766  0.9004  0.2393
 4097TIP3   OH236485   6.434   2.876  18.041  0.4450  0.1052 -0.6430
 4097TIP3    H136486   6.442   2.860  18.135  0.1100  0.2891 -0.5823
 4097TIP3    H236487   6.343   2.856  18.021 -0.1974  2.5373 -0.4397
 4098TIP3   OH236488   1.704   0.384  17.894  1.1050 -0.6541  0.0101
 4098TIP3    H136489   1.786   0.352  17.857  0.8373 -0.8281 -0.4417
 4098TIP3    H236490   1.636   0.337  17.846  0.6397  1.3689 -1.4921
 4099TIP3   OH236491   7.645   3.124  19.101  0.7258  0.1079 -0.0564
 4099TIP3    H136492   7.659   3.031  19.120  0.6843  0.2092  0.4886
 4099TIP3    H236493   7.730   3.164  19.116  0.7454  0.1543 -0.3026
 4100TIP3   OH236494   1.188   1.889  18.051 -0.0303 -0.0092 -0.1862
 4100TIP3    H136495   1.158   1.811  18.098  1.4771 -0.1223  0.6534
 4100TIP3    H236496   1.126   1.957  18.076  0.5170 -0.1549  1.7463
 4101TIP3   OH236497   4.588   7.580  18.228 -0.4953 -0.3382  0.4964
 4101TIP3    H136498   4.497   7.574  18.198 -0.2007  0.5661 -0.6152
 4101TIP3    H236499   4.582   7.624  18.313 -1.3865 -3.3519  2.1478
 4102TIP3   OH236500   5.043   3.868  19.148  0.1438  0.3397  0.4614
 4102TIP3    H136501   5.114   3.854  19.211  1.7163  1.3646 -0.9815
 4102TIP3    H236502   5.037   3.963  19.140  0.0473  0.2333 -0.9923
 4103TIP3   OH236503   2.376   0.704  18.576  0.2639  0.2319  0.1335
 4103TIP3    H136504   2.303   0.647  18.551  1.3914 -0.9010 -0.7312
 4103TIP3    H236505   2.376   0.773  18.509  2.2897 -1.9216 -2.3599
 4104TIP3   OH236506   4.997   2.799  17.793  0.3961  0.2339  0.1670
 4104TIP3    H136507   4.947   2.727  17.755  2.0657 -0.5129 -0.7503
 4104TIP3    H236508   5.006   2.863  17.721  0.8397  0.2979  0.2731
 4105TIP3   OH236509   3.843   0.577  18.056 -0.0625  0.2571 -0.3948
 4105TIP3    H136510   3.936   0.575  18.079  0.4904  0.6155 -2.4304
 4105TIP3    H236511   3.797   0.561  18.139  1.7921  0.4519  0.7100
 4106TIP3   OH236512   6.156   6.700  18.822  0.0723 -0.2823 -0.6789
 4106TIP3    H136513   6.234   6.659  18.786 -0.8444 -1.7341 -1.0922
 4106TIP3    H236514   6.136   6.651  18.901 -0.4316  0.0672 -0.5807
 4107TIP3   OH236515   4.926   3.462  16.951  0.1220  0.4955 -0.0202
 4107TIP3    H136516   4.937   3.375  16.911 -0.6089  0.6284 -0.5270
 4107TIP3    H236517   4.888   3.516  16.882  0.8635  1.3181  0.1925
 4108TIP3   OH236518   0.779   5.103  18.184 -0.0314 -0.8350  0.1693
 4108TIP3    H136519   0.721   5.079  18.257  1.5564 -0.3540  1.6545
 4108TIP3    H236520   0.861   5.128  18.226 -0.1281  2.9754 -1.5185
 4109TIP3   OH236521   3.152   1.156  18.568  0.1126 -0.2628  0.3720
 4109TIP3    H136522   3.237   1.199  18.556 -0.3330  0.1588 -1.6152
 4109TIP3    H236523   3.166   1.066  18.538  0.5365 -1.0368  2.6936
 4110TIP3   OH236524   6.592   4.848  18.517 -0.0428 -0.3561 -0.2313
 4110TIP3    H136525   6.566   4.769  18.565  0.0182 -0.7531 -0.8467
 4110TIP3    H236526   6.663   4.820  18.460  0.2440  0.2348 -0.1713
 4111TIP3   OH236527   5.960   5.617  19.113  0.1041  0.1818 -0.3112
 4111TIP3    H136528   5.937   5.536  19.066 -0.6651 -0.0888  0.4950
 4111TIP3    H236529   6.039   5.649  19.069  0.2395 -0.8413 -0.8459
 4112TIP3   OH236530   7.463   5.397  17.801  0.6063 -0.5983  0.1073
 4112TIP3    H136531   7.383   5.347  17.786 -0.2441  0.7220  0.0548
 4112TIP3    H236532   7.436   5.488  17.790  1.4594  0.0780  2.9269
 4113TIP3   OH236533   1.154   4.645  18.303  0.3165 -0.4361 -0.4682
 4113TIP3    H136534   1.232   4.619  18.352 -1.0482 -0.6509  1.7400
 4113TIP3    H236535   1.178   4.728  18.262  1.6637 -0.4297  0.2638
 4114TIP3   OH236536   1.619   6.293  18.639  0.0568 -0.6493 -0.2391
 4114TIP3    H136537   1.644   6.282  18.731 -0.8526 -0.4186  0.0395
 4114TIP3    H236538   1.701   6.283  18.591  1.0839  2.0243  0.7770
 4115TIP3   OH236539   7.163   2.781  16.627 -0.4174 -0.3344 -0.4465
 4115TIP3    H136540   7.199   2.782  16.716 -0.3009 -0.6529 -0.4889
 4115TIP3    H236541   7.231   2.741  16.574 -0.5065 -0.1860 -0.6719
 4116TIP3   OH236542   4.039   3.681  17.083 -0.5527 -0.4963 -0.4045
 4116TIP3    H136543   3.969   3.626  17.118  0.5533 -0.5443  1.9048
 4116TIP3    H236544   4.118   3.649  17.126  0.0342  3.3931  1.7835
 4117TIP3   OH236545   7.111   6.006  17.712  0.1614  0.0078 -0.1194
 4117TIP3    H136546   7.141   6.083  17.761 -0.2927 -0.4605  0.9377
 4117TIP3    H236547   7.144   6.019  17.624  1.7514  0.4809  0.5085
 4118TIP3   OH236548   4.472   2.526  19.233  0.2708  0.0362  0.5927
 4118TIP3    H136549   4.511   2.467  19.298 -0.7505 -0.5079  0.7308
 4118TIP3    H236550   4.544   2.547  19.174  1.3720  1.0036  2.2093
 4119TIP3   OH236551   4.591   5.948  18.019 -1.0503 -0.6850  0.2335
 4119TIP3    H136552   4.502   5.944  17.986 -0.6211 -1.6774 -0.8881
 4119TIP3    H236553   4.597   5.873  18.079 -0.4528 -1.7745 -1.1343
 4120TIP3   OH236554   2.991   3.644  18.002  0.0987 -0.3400 -0.8728
 4120TIP3    H136555   3.009   3.602  18.086  0.1866 -1.5698 -1.4797
 4120TIP3    H236556   2.956   3.730  18.025  0.0705 -0.6787  0.4189
 4121TIP3   OH236557   5.532   3.342  18.586  0.3130 -0.0358 -0.0118
 4121TIP3    H136558   5.604   3.293  18.545 -0.1385 -0.7481  0.0408
 4121TIP3    H236559   5.453   3.295  18.560  0.0622 -1.0853  2.4112
 4122TIP3   OH236560   1.085   7.440  19.722  0.0695  0.4274  0.5219
 4122TIP3    H136561   1.159   7.499  19.739  0.2026  0.4352 -0.0496
 4122TIP3    H236562   1.013   7.499  19.699  0.2389  0.3727 -0.1820
 4123TIP3   OH236563   2.749   0.260  18.729 -0.6356  0.7123  0.1266
 4123TIP3    H136564   2.790   0.325  18.672  0.0411  0.2807  0.1103
 4123TIP3    H236565   2.703   0.313  18.795 -1.6053  1.2126 -0.9216
 4124TIP3   OH236566   1.099   5.675  18.300 -0.2298 -0.6746 -0.4566
 4124TIP3    H136567   1.031   5.743  18.294  1.3773  0.8580 -3.2480
 4124TIP3    H236568   1.180   5.723  18.312  0.7911 -2.2127 -0.8987
 4125TIP3   OH236569   2.589   0.375  16.942  0.2422  0.0593 -0.4705
 4125TIP3    H136570   2.640   0.295  16.928  1.0563  0.4306  0.2869
 4125TIP3    H236571   2.655   0.441  16.963 -0.5131  0.6752 -0.0204
 4126TIP3   OH236572   0.084   4.484  18.190 -0.5805  0.0324 -0.3921
 4126TIP3    H136573   0.087   4.485  18.286  0.2693 -0.5027 -0.4049
 4126TIP3    H236574  -0.007   4.463  18.169 -0.7955  0.2448  0.2962
 4127TIP3   OH236575   4.828   6.318  19.122 -0.0892 -0.2422  0.3006
 4127TIP3    H136576   4.922   6.340  19.127  0.0608 -0.9972  0.9267
 4127TIP3    H236577   4.808   6.322  19.028  0.1452  1.6203  0.2838
 4128TIP3   OH236578   4.997   6.297  18.287 -0.5293  0.1886  0.1206
 4128TIP3    H136579   5.080   6.328  18.324 -0.4499  0.0570  0.0542
 4128TIP3    H236580   5.015   6.206  18.263 -1.0171 -0.1909  1.1337
 4129TIP3   OH236581   1.936   2.824  19.431 -0.0400  0.2479 -0.1522
 4129TIP3    H136582   2.008   2.887  19.428 -0.4703  1.1147  3.3688
 4129TIP3    H236583   1.970   2.746  19.388  2.2652  1.2753 -0.3409
 4130TIP3   OH236584   2.153   6.486  17.817  0.6439 -0.0689 -0.1453
 4130TIP3    H136585   2.066   6.479  17.858  0.3657 -0.9596 -0.8533
 4130TIP3    H236586   2.135   6.526  17.732  0.7347 -1.4134 -0.8261
 4131TIP3   OH236587   1.201   3.994  17.958 -0.4133  0.0985 -0.6635
 4131TIP3    H136588   1.287   4.017  17.993 -0.4511 -0.1033 -0.4329
 4131TIP3    H236589   1.141   4.060  17.993 -1.0701 -1.9323  2.4571
 4132TIP3   OH236590   7.286   2.219  19.295 -0.0017  0.2918  0.4488
 4132TIP3    H136591   7.326   2.135  19.272 -1.4550 -0.8763  1.9106
 4132TIP3    H236592   7.202   2.195  19.334 -1.1972  2.5325 -0.5743
 4133TIP3   OH236593   3.734   6.695  19.656  0.4321 -0.2362  0.3619
 4133TIP3    H136594   3.727   6.731  19.567  0.9172 -0.0931  0.3773
 4133TIP3    H236595   3.819   6.650  19.656  0.4294 -0.2408  0.7546
 4134TIP3   OH236596   2.923   1.402  19.074 -0.8980  0.4785 -0.2017
 4134TIP3    H136597   2.889   1.451  19.149  1.4032  0.2834  1.0602
 4134TIP3    H236598   3.013   1.434  19.064 -1.0036  0.1446 -2.6047
 4135TIP3   OH236599   4.380   5.606  18.150 -0.1646 -0.3762 -0.2420
 4135TIP3    H136600   4.469   5.640  18.136  0.4269 -1.0228  1.5511
 4135TIP3    H236601   4.337   5.674  18.202  0.1349 -1.1128  1.0198
 4136TIP3   OH236602   2.027   4.403  17.786 -0.7751 -0.1063  0.3341
 4136TIP3    H136603   2.082   4.450  17.724  0.7134 -1.6923  0.3596
 4136TIP3    H236604   2.081   4.394  17.865 -1.0579 -1.6333  0.3944
 4137TIP3   OH236605   4.703   2.207  18.045  0.2968  0.0347  0.2599
 4137TIP3    H136606   4.712   2.117  18.076  1.8382  0.3547  0.8377
 4137TIP3    H236607   4.649   2.250  18.112  0.6460 -0.1556  0.6747
 4138TIP3   OH236608   2.084   6.615  19.262  0.0784  0.0374  0.1813
 4138TIP3    H136609   2.109   6.681  19.327  0.2431 -0.0437  0.2009
 4138TIP3    H236610   2.011   6.569  19.302 -2.3852  2.4296 -1.1969
 4139TIP3   OH236611   5.749   0.651  17.126 -0.3429 -0.1162 -0.2485
 4139TIP3    H136612   5.754   0.696  17.211  1.3208  1.1460 -0.9613
 4139TIP3    H236613   5.804   0.704  17.068 -2.3096 -0.3370 -2.4144
 4140TIP3   OH236614   7.583   3.033  18.493 -0.3255 -0.1144 -0.1721
 4140TIP3    H136615   7.542   3.084  18.563 -0.7378 -1.7391  0.8342
 4140TIP3    H236616   7.515   2.971  18.466  0.0862 -0.0165 -1.4877
 4141TIP3   OH236617   2.659   3.029  19.437 -0.7987  0.0164  0.7601
 4141TIP3    H136618   2.661   2.938  19.467  0.1858 -0.4469 -0.5940
 4141TIP3    H236619   2.742   3.040  19.390 -2.0495  0.7654 -1.4576
 4142TIP3   OH236620   0.146   4.200  19.598 -0.1226  0.1138  0.0589
 4142TIP3    H136621   0.124   4.286  19.562  0.1914  0.2552  0.2003
 4142TIP3    H236622   0.166   4.217  19.690 -0.3289 -0.1548  0.1554
 4143TIP3   OH236623   2.928   2.809  19.304 -0.2694 -0.1384  0.0689
 4143TIP3    H136624   2.961   2.778  19.220 -2.1367 -0.8180 -0.4572
 4143TIP3    H236625   2.985   2.767  19.369  0.5908 -0.3643 -0.8076
 4144TIP3   OH236626   0.636   5.311  19.308  0.3303  0.2406  0.5467
 4144TIP3    H136627   0.608   5.320  19.400  0.0620 -0.7432  0.5813
 4144TIP3    H236628   0.602   5.389  19.265  0.3248  0.6449  1.2554
 4145TIP3   OH236629   6.240   7.611  19.115 -0.2014 -0.2038  0.2709
 4145TIP3    H136630   6.167   7.626  19.055 -0.8449 -0.6653  0.9129
 4145TIP3    H236631   6.217   7.530  19.161 -0.2346  0.6646  1.8594
 4146TIP3   OH236632   5.186   5.601  17.319  0.0047  0.0764  0.1652
 4146TIP3    H136633   5.198   5.615  17.226  0.0390 -1.4328 -0.0890
 4146TIP3    H236634   5.136   5.519  17.325 -0.5540  0.4771  1.4567
 4147TIP3   OH236635   4.063   4.705  18.275  0.9044 -0.2527 -0.7075
 4147TIP3    H136636   4.110   4.721  18.193  1.1872 -0.2192 -0.5382
 4147TIP3    H236637   4.121   4.648  18.325 -0.4556 -2.5934 -1.6561
 4148TIP3   OH236638   4.216   2.811  18.230 -0.2437  0.4636  0.3491
 4148TIP3    H136639   4.136   2.767  18.259 -0.9010  1.5989  0.3356
 4148TIP3    H236640   4.282   2.742  18.225 -1.5770 -0.7819 -1.0367
 4149TIP3   OH236641   5.732   2.936  18.394  0.5101  0.0686 -0.1218
 4149TIP3    H136642   5.814   2.896  18.365  0.4086  0.7436 -1.3951
 4149TIP3    H236643   5.664   2.883  18.353  0.3626  0.9529 -1.0521
 4150TIP3   OH236644   3.041   6.822  17.391  0.4523  0.4475 -0.4700
 4150TIP3    H136645   2.996   6.740  17.373  1.3117  0.2497 -1.9213
 4150TIP3    H236646   3.003   6.886  17.331 -1.0041  1.4607  1.4147
 4151TIP3   OH236647   6.399   2.189  17.855  0.3173 -0.2247 -0.5240
 4151TIP3    H136648   6.489   2.209  17.882  0.9029 -0.9572 -1.8199
 4151TIP3    H236649   6.394   2.222  17.765 -0.3011 -1.3123 -0.9043
 4152TIP3   OH236650   1.794   0.207  18.229  0.1285  0.3230 -0.5811
 4152TIP3    H136651   1.748   0.289  18.208 -1.5052 -0.0598  1.1966
 4152TIP3    H236652   1.831   0.222  18.316 -2.5349 -1.6184  1.0573
 4153TIP3   OH236653   3.991   5.415  17.684  0.0406 -0.0748  0.5338
 4153TIP3    H136654   3.998   5.470  17.606  3.1754 -0.1424  0.6646
 4153TIP3    H236655   3.931   5.463  17.742 -1.7482  0.3468 -1.5425
 4154TIP3   OH236656   0.536   3.688  17.879  0.0383 -0.2755 -0.6026
 4154TIP3    H136657   0.623   3.680  17.840 -0.0841  0.3684 -1.0104
 4154TIP3    H236658   0.475   3.674  17.807 -0.1921  0.1173 -0.4857
 4155TIP3   OH236659   0.204   6.842  18.721  0.5067 -0.1790 -0.1268
 4155TIP3    H136660   0.183   6.898  18.646 -0.8019 -1.9226 -1.1283
 4155TIP3    H236661   0.145   6.871  18.790  0.1643 -0.0140 -0.4827
 4156TIP3   OH236662   0.161   4.076  18.082 -0.3267 -0.1431  0.2442
 4156TIP3    H136663   0.157   3.982  18.096  2.1682 -0.4242 -0.4325
 4156TIP3    H236664   0.255   4.096  18.080 -0.7136  1.9606 -1.9417
 4157TIP3   OH236665   5.639   6.702  18.961 -0.4708 -0.6421 -0.1098
 4157TIP3    H136666   5.624   6.792  18.988  0.6639 -0.3383 -0.4246
 4157TIP3    H236667   5.732   6.700  18.936 -0.9172 -1.4656 -1.7900
 4158TIP3   OH236668   4.328   1.802  19.038 -0.3555  0.4868  0.3435
 4158TIP3    H136669   4.305   1.895  19.045  0.0262  0.5978  0.1379
 4158TIP3    H236670   4.262   1.765  18.980  0.2543  0.9036 -0.6342
 4159TIP3   OH236671   5.883   0.660  18.823 -0.7689  0.0846  0.0486
 4159TIP3    H136672   5.879   0.721  18.749 -3.1358 -0.4295 -0.3269
 4159TIP3    H236673   5.927   0.582  18.788  0.3680  0.7537 -0.0652
 4160TIP3   OH236674   4.332   3.675  18.008 -0.5117 -0.2930  0.5057
 4160TIP3    H136675   4.261   3.660  18.069 -0.6111 -0.3698  0.3708
 4160TIP3    H236676   4.406   3.626  18.044 -0.2693  0.4901  1.1055
 4161TIP3   OH236677   6.668   3.996  18.922 -0.3098  0.3295  0.3906
 4161TIP3    H136678   6.740   3.937  18.943 -0.1393  0.0036 -1.0221
 4161TIP3    H236679   6.708   4.069  18.876 -1.0274 -0.8392 -2.3095
 4162TIP3   OH236680   2.721   6.607  19.169  0.5656  0.1668 -0.4986
 4162TIP3    H136681   2.809   6.610  19.132  0.0479 -0.2281 -1.8613
 4162TIP3    H236682   2.728   6.549  19.244  1.1340 -1.3252 -1.6498
 4163TIP3   OH236683   4.474   4.058  18.461 -0.8366 -0.0740  0.4137
 4163TIP3    H136684   4.384   4.029  18.471 -0.1477 -2.9514 -0.7592
 4163TIP3    H236685   4.493   4.048  18.367  0.5750  0.9687  0.5391
 4164TIP3   OH236686   7.295   5.313  17.601  0.3724 -0.3871 -0.2410
 4164TIP3    H136687   7.245   5.250  17.654 -2.5742  0.4313 -1.8220
 4164TIP3    H236688   7.305   5.270  17.516  0.9327  0.1371 -0.4492
 4165TIP3   OH236689   2.443   3.635  18.951 -0.1129  0.4311 -0.3116
 4165TIP3    H136690   2.472   3.722  18.923 -0.6998  0.3076 -1.3305
 4165TIP3    H236691   2.519   3.598  18.996  1.0567  0.4372 -2.2114
 4166TIP3   OH236692   1.852   0.099  18.001  0.1341  0.5341  0.5305
 4166TIP3    H136693   1.848   0.135  18.090  0.1088  0.0752  0.7189
 4166TIP3    H236694   1.782   0.143  17.954  0.5312  1.2309  0.5651
 4167TIP3   OH236695   6.069   7.551  18.426 -0.3449 -0.5478  0.1601
 4167TIP3    H136696   6.006   7.619  18.450 -1.2659 -0.2722 -2.6135
 4167TIP3    H236697   6.021   7.469  18.438 -0.0275 -0.5746  1.3100
 4168TIP3   OH236698   6.002   2.400  17.194  0.6191  0.2227 -0.4672
 4168TIP3    H136699   6.016   2.439  17.108  0.3258 -1.3989 -1.2969
 4168TIP3    H236700   6.091   2.387  17.229  0.7380  0.9142 -0.4880
 4169TIP3   OH236701   6.162   4.869  17.779  0.4986  0.2918  0.7400
 4169TIP3    H136702   6.079   4.843  17.817  0.0328  1.0214  0.2596
 4169TIP3    H236703   6.190   4.794  17.726  0.0886  0.0898  0.8110
 4170TIP3   OH236704   4.686   0.584  16.917 -0.0890  0.2112  0.3709
 4170TIP3    H136705   4.729   0.644  16.978 -0.8342  0.8550  0.2928
 4170TIP3    H236706   4.751   0.569  16.849  0.4554  0.1512  0.8937
 4171TIP3   OH236707   5.697   5.586  19.450 -0.3464 -0.5025  0.3567
 4171TIP3    H136708   5.625   5.649  19.446 -0.5645 -0.7732 -2.1538
 4171TIP3    H236709   5.653   5.501  19.460 -0.1731 -0.4317  1.7958
 4172TIP3   OH236710   5.269   5.645  17.567 -0.6434  0.4604 -0.6820
 4172TIP3    H136711   5.233   5.639  17.478 -1.9637  0.2570 -0.1511
 4172TIP3    H236712   5.220   5.580  17.617  0.7586 -0.1101 -0.0005
 4173TIP3   OH236713   1.910   0.243  18.485  0.3029  0.2654 -0.1594
 4173TIP3    H136714   1.923   0.150  18.499  1.7870  0.1277 -2.0771
 4173TIP3    H236715   1.997   0.281  18.486 -0.1044  1.3141 -1.3161
 4174TIP3   OH236716   4.532   4.772  17.421 -0.0337  0.2699  0.5471
 4174TIP3    H136717   4.490   4.811  17.345 -0.0136  0.6061  0.7081
 4174TIP3    H236718   4.618   4.813  17.426 -0.8704  1.9970  2.0864
 4175TIP3   OH236719   2.994   1.658  19.527  0.1257 -0.0055  0.5672
 4175TIP3    H136720   2.970   1.574  19.566 -1.0773  0.5101  0.9767
 4175TIP3    H236721   3.013   1.638  19.435  2.5841 -1.1667  1.2497
 4176TIP3   OH236722   4.185   1.453  18.662 -0.0421 -0.1498 -0.3931
 4176TIP3    H136723   4.134   1.439  18.742  1.6242 -1.9917  0.4220
 4176TIP3    H236724   4.121   1.449  18.591 -1.3512  0.0625  0.7369
 4177TIP3   OH236725   5.486   5.799  17.552 -0.5341  0.6340 -0.1879
 4177TIP3    H136726   5.523   5.805  17.464  0.2083  0.3482  0.0989
 4177TIP3    H236727   5.415   5.734  17.544  0.6549 -0.7082 -0.2195
 4178TIP3   OH236728   7.556   2.881  18.890 -0.1234 -0.1798  0.4704
 4178TIP3    H136729   7.518   2.821  18.954  1.4401 -1.6751  0.0816
 4178TIP3    H236730   7.621   2.828  18.844 -0.3929  1.1843 -1.5726
 4179TIP3   OH236731   2.213   4.547  17.331  0.0555 -0.0657  0.6302
 4179TIP3    H136732   2.125   4.581  17.314  1.1058  2.2306 -0.6386
 4179TIP3    H236733   2.244   4.518  17.245  0.7678 -0.3150  0.9662
 4180TIP3   OH236734   2.750   0.323  18.108  0.2003  0.3606 -0.4388
 4180TIP3    H136735   2.697   0.338  18.030 -0.1827  2.1030  0.1260
 4180TIP3    H236736   2.816   0.259  18.080 -2.8110 -2.8456 -0.8590
 4181TIP3   OH236737   3.383   0.891  19.367  0.3592 -0.3243 -0.3798
 4181TIP3    H136738   3.464   0.932  19.339  0.3555 -1.2636 -1.9249
 4181TIP3    H236739   3.317   0.923  19.305  0.0697 -1.4697 -0.7044
 4182TIP3   OH236740   1.302   5.541  17.527 -0.1183  0.2417 -0.1747
 4182TIP3    H136741   1.284   5.497  17.444  1.0538  1.8801 -1.3659
 4182TIP3    H236742   1.259   5.487  17.593 -0.2637 -1.6503 -1.7296
 4183TIP3   OH236743   4.427   2.770  19.122 -0.0815  0.0776  0.2740
 4183TIP3    H136744   4.333   2.777  19.107 -0.0943 -1.0215 -0.2428
 4183TIP3    H236745   4.437   2.691  19.176  0.5654 -0.0413 -0.0022
 4184TIP3   OH236746   2.078   6.873  17.724 -0.0174  0.4512  0.6140
 4184TIP3    H136747   2.107   6.920  17.646  0.4533  1.3774  1.3267
 4184TIP3    H236748   2.077   6.781  17.698 -0.5172  0.8100 -0.6766
 4185TIP3   OH236749   2.408   4.589  16.861 -0.4863 -0.4269 -0.3835
 4185TIP3    H136750   2.318   4.560  16.846 -0.8089  0.1102  0.4538
 4185TIP3    H236751   2.399   4.673  16.906  0.4301 -0.7232  0.3900
 4186TIP3   OH236752   0.081   7.546  18.239 -0.3629 -0.0659 -0.4277
 4186TIP3    H136753   0.174   7.567  18.233 -0.5545  0.8048 -0.5197
 4186TIP3    H236754   0.069   7.515  18.329  0.7763 -4.2909 -1.5200
 4187TIP3   OH236755   0.140   3.413  17.666  0.1179 -0.2357 -0.5016
 4187TIP3    H136756   0.092   3.451  17.592 -3.0970 -1.9651  0.5400
 4187TIP3    H236757   0.176   3.332  17.631 -0.8732 -0.7457 -0.3640
 4188TIP3   OH236758   0.119   1.895  17.223 -0.0088  0.3435 -0.2836
 4188TIP3    H136759   0.190   1.952  17.253  0.7882 -0.5191 -0.4791
 4188TIP3    H236760   0.111   1.830  17.293 -0.1032  0.0070 -0.6086
 4189TIP3   OH236761   1.283   0.289  18.935 -0.1640  0.0115 -0.6749
 4189TIP3    H136762   1.195   0.267  18.966  0.2479 -0.7377  0.0221
 4189TIP3    H236763   1.331   0.206  18.939  0.9362  0.6528  0.2164
 4190TIP3   OH236764   0.545   5.498  17.151  0.2593 -0.4170  0.2852
 4190TIP3    H136765   0.457   5.527  17.127  0.7502 -0.2160 -1.4436
 4190TIP3    H236766   0.596   5.579  17.155  0.4894 -0.5843  0.6881
 4191TIP3   OH236767   6.764   5.214  16.654  0.0780  0.0104  0.2983
 4191TIP3    H136768   6.691   5.243  16.708  0.5850 -1.1562  1.6568
 4191TIP3    H236769   6.725   5.157  16.588 -0.3881  0.4797  0.1583
 4192TIP3   OH236770   7.476   6.676  19.315  0.0010 -0.2064  0.0805
 4192TIP3    H136771   7.552   6.720  19.353  0.9062 -0.6567 -1.1581
 4192TIP3    H236772   7.451   6.731  19.241  0.6682 -1.3283 -1.0143
 4193TIP3   OH236773   4.552   1.014  18.645  0.1957  0.1881  0.4679
 4193TIP3    H136774   4.559   0.932  18.597 -0.5735  0.0164  0.6483
 4193TIP3    H236775   4.583   0.994  18.733 -1.1042 -0.2140  0.8519
 4194TIP3   OH236776   3.811   7.098  18.610  0.1935  0.3359 -0.1881
 4194TIP3    H136777   3.897   7.094  18.569  0.2964  0.2181  0.0362
 4194TIP3    H236778   3.775   7.010  18.598  0.0658  0.4132 -0.3657
 4195TIP3   OH236779   1.584   6.861  18.036  0.0273 -0.0806  0.3440
 4195TIP3    H136780   1.561   6.795  17.971  0.3010 -1.6752  1.7993
 4195TIP3    H236781   1.524   6.845  18.109 -0.0785  1.4724  0.6337
 4196TIP3   OH236782   6.607   0.480  18.179  0.3172 -0.0303  0.2121
 4196TIP3    H136783   6.538   0.473  18.245  2.4344  1.4532  2.8142
 4196TIP3    H236784   6.628   0.389  18.156 -1.5034 -0.5319  0.3943
 4197TIP3   OH236785   5.119   0.946  17.525  0.3383  0.0891  0.2266
 4197TIP3    H136786   5.152   0.857  17.513  1.8913  0.7649 -0.8107
 4197TIP3    H236787   5.112   0.981  17.436 -2.0386  0.4382  0.4805
 4198TIP3   OH236788   6.155   1.864  17.238  0.2968  0.1627 -0.2381
 4198TIP3    H136789   6.232   1.894  17.190  1.0359  0.9803  1.3917
 4198TIP3    H236790   6.096   1.939  17.240 -0.6021 -0.4745 -1.5227
 4199TIP3   OH236791   5.877   2.448  17.874  0.5351  0.5720  0.3251
 4199TIP3    H136792   5.922   2.481  17.796 -0.6157  0.0804 -0.5828
 4199TIP3    H236793   5.835   2.367  17.845 -1.1701  1.1582  1.0302
 4200TIP3   OH236794   3.722   4.185  18.803  1.0148 -0.0327 -0.6357
 4200TIP3    H136795   3.637   4.189  18.759  1.1032 -0.0956 -0.8159
 4200TIP3    H236796   3.759   4.273  18.794  0.7297  0.1455 -0.0755
 4201TIP3   OH236797   3.229   2.546  18.985  0.5334 -0.1808 -0.2564
 4201TIP3    H136798   3.201   2.524  18.896  1.7007 -0.9510 -0.4612
 4201TIP3    H236799   3.203   2.470  19.038  1.8201 -0.7596 -0.3915
 4202TIP3   OH236800   3.563   5.939  16.801  0.1702 -0.6372  0.0835
 4202TIP3    H136801   3.469   5.952  16.818  0.4074 -1.3787  2.2666
 4202TIP3    H236802   3.575   5.845  16.804  0.9981 -0.5556 -0.2965
 4203TIP3   OH236803   2.187   2.474  16.418  0.7240  0.7666 -0.6973
 4203TIP3    H136804   2.209   2.381  16.408  1.3402  0.5128  1.9979
 4203TIP3    H236805   2.272   2.517  16.426  0.4260  1.1740  0.4910
 4204TIP3   OH236806   6.246   2.120  19.013 -0.3447 -0.1552  0.6734
 4204TIP3    H136807   6.193   2.172  19.074  0.3140  1.1614  0.1614
 4204TIP3    H236808   6.181   2.074  18.959 -1.0186  1.4175  0.0604
 4205TIP3   OH236809   2.238   1.305  18.299  0.5248  0.3480  0.1296
 4205TIP3    H136810   2.274   1.245  18.364 -1.7531 -0.2986  0.8878
 4205TIP3    H236811   2.236   1.255  18.218  0.0235 -0.1032  0.4158
 4206TIP3   OH236812   4.640   0.336  16.674  0.0130 -0.4245  0.1548
 4206TIP3    H136813   4.574   0.399  16.648  0.0763  0.3004  1.6191
 4206TIP3    H236814   4.715   0.389  16.702  0.7327 -1.1948 -0.2407
 4207TIP3   OH236815   0.461   4.154  18.091 -0.0432  0.0106 -0.4173
 4207TIP3    H136816   0.470   4.059  18.093 -2.4635 -0.3629 -2.3616
 4207TIP3    H236817   0.548   4.186  18.068  1.0097 -1.6466  1.0813
 4208TIP3   OH236818   1.324   2.784  18.703 -0.4453 -0.1936  0.5606
 4208TIP3    H136819   1.264   2.710  18.710  1.6145 -2.0094  0.3986
 4208TIP3    H236820   1.370   2.786  18.787 -0.2971  0.7590  0.4646
 4209TIP3   OH236821   4.888   3.395  18.140  0.0836  0.1203 -0.0639
 4209TIP3    H136822   4.818   3.328  18.141  0.2499 -0.0588 -0.3886
 4209TIP3    H236823   4.967   3.345  18.121 -0.0172  0.6239 -1.9876
 4210TIP3   OH236824   4.588   5.727  17.816 -0.0752 -0.1478  0.1870
 4210TIP3    H136825   4.683   5.712  17.808 -0.2409 -0.8035 -0.7614
 4210TIP3    H236826   4.581   5.808  17.866  0.9980  0.0464  0.0564
 4211TIP3   OH236827   0.359   7.138  18.955 -0.0619 -0.2190 -0.2228
 4211TIP3    H136828   0.431   7.189  18.993 -0.9158  0.7574  0.1317
 4211TIP3    H236829   0.370   7.050  18.991  0.8258 -0.0347 -0.0122
 4212TIP3   OH236830   4.997   6.115  18.009 -0.3317 -0.3290  0.4370
 4212TIP3    H136831   4.965   6.107  17.919 -0.5918  1.2971  0.3657
 4212TIP3    H236832   4.922   6.091  18.064 -0.0415 -1.7664  0.2489
 4213TIP3   OH236833   2.155   0.941  19.378 -0.0414 -0.5257  0.6849
 4213TIP3    H136834   2.131   1.028  19.345  0.8142 -0.4341  0.2753
 4213TIP3    H236835   2.226   0.958  19.440  1.1699 -1.0174 -0.4968
 4214TIP3   OH236836   6.649   3.678  19.578 -0.2480 -0.1574 -0.0308
 4214TIP3    H136837   6.632   3.602  19.523 -1.6842  0.4165 -0.4265
 4214TIP3    H236838   6.588   3.669  19.651  0.5571 -0.1065  0.6591
 4215TIP3   OH236839   4.307   1.862  18.343 -0.3911 -0.6798  0.0129
 4215TIP3    H136840   4.277   1.797  18.407 -1.6758  0.4568  0.6076
 4215TIP3    H236841   4.229   1.884  18.293 -0.1549  0.8970  0.2845
 4216TIP3   OH236842   6.721   6.450  19.181 -0.0462 -0.4363  0.3419
 4216TIP3    H136843   6.708   6.523  19.242  0.1486 -0.9283  0.9748
 4216TIP3    H236844   6.655   6.386  19.205  1.0990 -1.3521  1.1508
 4217TIP3   OH236845   3.960   0.839  18.521 -0.0400 -0.2243  0.3711
 4217TIP3    H136846   4.048   0.806  18.504  0.0559  0.4259 -0.4457
 4217TIP3    H236847   3.969   0.934  18.517 -0.8553 -0.1613 -0.0994
 4218TIP3   OH236848   0.700   4.073  16.827 -0.6225  0.2261  0.0956
 4218TIP3    H136849   0.770   4.120  16.874 -0.8749 -0.3073  1.0292
 4218TIP3    H236850   0.747   4.011  16.771 -0.3144  0.9085 -0.4272
 4219TIP3   OH236851   1.853   0.220  19.573  0.4966  0.1613  0.2501
 4219TIP3    H136852   1.938   0.264  19.581  0.8177 -0.1385 -1.2517
 4219TIP3    H236853   1.867   0.134  19.612  0.2433  0.8490  1.9661
 4220TIP3   OH236854   1.217   6.276  18.122 -0.4642  0.2151  0.5677
 4220TIP3    H136855   1.257   6.304  18.040  0.4515  1.2678  1.3318
 4220TIP3    H236856   1.200   6.183  18.110  0.6776  0.1057 -0.4231
 4221TIP3   OH236857   5.621   6.871  19.643  0.0433 -0.2466 -0.4092
 4221TIP3    H136858   5.551   6.841  19.585 -1.0410 -1.6362  1.4740
 4221TIP3    H236859   5.606   6.823  19.724  0.5122  2.7020  1.5815
 4222TIP3   OH236860   1.304   0.200  16.779 -0.2724  0.4600 -0.0106
 4222TIP3    H136861   1.239   0.254  16.823  1.8252  0.6134  3.2116
 4222TIP3    H236862   1.350   0.260  16.720 -0.3193  1.3361  0.8297
 4223TIP3   OH236863   5.798   0.056  17.145  0.2836 -0.0372 -0.3539
 4223TIP3    H136864   5.842  -0.004  17.206 -0.3981 -0.7965 -0.6059
 4223TIP3    H236865   5.764  -0.000  17.076 -1.6842  0.4479  0.1748
 4224TIP3   OH236866   2.721   1.319  18.576  0.7119 -0.4538 -0.0027
 4224TIP3    H136867   2.681   1.386  18.520  0.1965 -0.4525  0.3648
 4224TIP3    H236868   2.777   1.269  18.517  1.4774  0.5899 -0.2041
 4225TIP3   OH236869   4.869   2.618  16.963  0.0550 -0.2307  0.2271
 4225TIP3    H136870   4.814   2.687  16.927  0.4507  0.8193  1.5557
 4225TIP3    H236871   4.956   2.637  16.928  0.2085  0.1009  0.7713
 4226TIP3   OH236872   7.659   4.493  17.852  0.6607  0.4525 -0.0017
 4226TIP3    H136873   7.685   4.416  17.802 -0.3229  0.8816 -1.2276
 4226TIP3    H236874   7.596   4.460  17.916  1.4204  0.0044  0.5230
 4227TIP3   OH236875   2.549   2.758  18.938  0.3060  0.3897  0.0386
 4227TIP3    H136876   2.576   2.792  19.024  0.9998  0.9074 -0.3734
 4227TIP3    H236877   2.478   2.697  18.958 -1.3818  2.4993  0.7646
 4228TIP3   OH236878   6.226   7.182  18.628  0.4079 -0.2076 -0.1926
 4228TIP3    H136879   6.314   7.187  18.667  0.1975 -2.4053  0.6802
 4228TIP3    H236880   6.168   7.163  18.701 -0.4223 -1.4318 -1.1257
 4229TIP3   OH236881   4.136   3.967  19.371 -0.0532  0.2017 -0.0555
 4229TIP3    H136882   4.176   4.033  19.315 -0.9992  0.8508 -0.0004
 4229TIP3    H236883   4.209   3.917  19.407  0.6078  0.3546 -1.1482
 4230TIP3   OH236884   6.720   4.113  17.133 -0.2367 -0.1049  0.4483
 4230TIP3    H136885   6.747   4.189  17.082 -0.1119 -0.2894  0.2411
 4230TIP3    H236886   6.725   4.040  17.072  1.7601 -0.6468  1.2024
 4231TIP3   OH236887   4.312   5.673  18.580  0.1664  0.1148 -0.1568
 4231TIP3    H136888   4.315   5.593  18.632  0.8162  0.6785  0.7042
 4231TIP3    H236889   4.364   5.736  18.629  0.0670  0.9347 -1.0579
 4232TIP3   OH236890   4.509   5.782  18.935 -0.3049 -0.6962 -0.4583
 4232TIP3    H136891   4.438   5.785  18.871 -0.0956 -2.1707 -0.7803
 4232TIP3    H236892   4.560   5.705  18.912 -1.2186 -2.3530  2.5011
 4233TIP3   OH236893   5.969   4.785  17.544 -0.2970  0.1652  0.6405
 4233TIP3    H136894   5.960   4.690  17.543  0.8375 -0.0124  2.2332
 4233TIP3    H236895   5.909   4.814  17.613  0.5523  0.4106  1.2938
 4234TIP3   OH236896   7.349   3.903  17.952  0.0141  0.4647  0.0109
 4234TIP3    H136897   7.292   3.831  17.980  0.0606  0.0459 -0.9523
 4234TIP3    H236898   7.417   3.907  18.019  0.9718 -1.5023 -0.7531
 4235TIP3   OH236899   5.127   2.041  17.113 -0.6619  0.0091 -0.3966
 4235TIP3    H136900   5.153   1.975  17.049  0.0305  0.1906 -0.3073
 4235TIP3    H236901   5.035   2.023  17.130 -0.3929 -1.1581 -0.1056
 4236TIP3   OH236902   0.800   7.142  19.194 -0.3281  0.3908  0.1219
 4236TIP3    H136903   0.865   7.113  19.258 -1.6799  1.9127  2.3317
 4236TIP3    H236904   0.740   7.068  19.185  0.6551 -0.3438 -0.5078
 4237TIP3   OH236905   7.425   6.423  18.191 -0.3497 -0.0593  0.0789
 4237TIP3    H136906   7.331   6.426  18.212 -0.0486 -0.8313  1.7065
 4237TIP3    H236907   7.452   6.515  18.191 -0.7626  0.0965  1.4484
 4238TIP3   OH236908   6.958   6.461  17.250 -0.3953  0.8648  0.3645
 4238TIP3    H136909   7.001   6.442  17.334  0.2664 -0.8971 -0.3281
 4238TIP3    H236910   7.012   6.529  17.210  0.8217 -0.1260  0.2518
 4239TIP3   OH236911   3.096   1.608  17.775 -0.2622 -0.1367  0.2746
 4239TIP3    H136912   3.142   1.621  17.858  0.4392  0.9067 -0.2587
 4239TIP3    H236913   3.017   1.662  17.783 -0.2751 -0.1634  0.3265
 4240TIP3   OH236914   0.056   7.590  18.528 -0.5911  0.3087  0.1008
 4240TIP3    H136915   0.152   7.587  18.526 -0.5749  0.6183 -1.8412
 4240TIP3    H236916   0.035   7.682  18.540 -0.6631  0.2434  0.5031
 4241TIP3   OH236917   2.487   1.287  19.205 -0.0673 -0.6624  0.5258
 4241TIP3    H136918   2.392   1.298  19.207 -0.0932 -1.0057  1.4651
 4241TIP3    H236919   2.519   1.365  19.160 -0.7678 -0.3884  0.4849
 4242TIP3   OH236920   5.976   7.472  19.593  0.4501  0.2821  0.6440
 4242TIP3    H136921   5.952   7.421  19.515  0.9866 -0.4461  0.9438
 4242TIP3    H236922   5.906   7.536  19.602 -0.4210 -0.6076  0.4314
 4243TIP3   OH236923   0.090   2.465  17.315  0.2464  0.0808  0.1914
 4243TIP3    H136924   0.087   2.369  17.320  1.5224 -0.0491 -0.8574
 4243TIP3    H236925   0.093   2.483  17.221 -1.3749  1.2436  0.3192
 4244TIP3   OH236926   6.845   0.388  18.819  0.6155  0.4138 -0.3130
 4244TIP3    H136927   6.793   0.397  18.898  1.0431 -0.2460  0.0552
 4244TIP3    H236928   6.936   0.397  18.848  0.7243  1.7297 -0.9672
 4245TIP3   OH236929   3.780   4.406  18.086 -0.1412  0.4951  0.0562
 4245TIP3    H136930   3.865   4.363  18.075  0.2589  1.2643  0.0523
 4245TIP3    H236931   3.724   4.366  18.019  0.4198  0.4736 -0.4076
 4246TIP3   OH236932   1.415   7.640  16.825  0.2040  0.6443  0.8618
 4246TIP3    H136933   1.370   7.720  16.799  0.6127  0.9408  1.0645
 4246TIP3    H236934   1.449   7.603  16.744  0.2968  0.8495  0.8085
 4247TIP3   OH236935   2.358   3.704  17.630  0.0970 -0.1371  0.1216
 4247TIP3    H136936   2.415   3.629  17.645  1.2665  1.0165  1.8435
 4247TIP3    H236937   2.290   3.696  17.697 -0.2140 -0.0871 -0.1891
 4248TIP3   OH236938   5.039   1.773  19.296 -0.3196 -0.1015 -0.4007
 4248TIP3    H136939   4.954   1.784  19.253  0.0107 -0.1502 -1.0715
 4248TIP3    H236940   5.068   1.862  19.314 -1.7946 -0.0807  2.4353
 4249TIP3   OH236941   5.860   4.597  17.246 -0.1012 -0.5409  0.3564
 4249TIP3    H136942   5.767   4.601  17.268 -0.0932 -0.5518  0.3930
 4249TIP3    H236943   5.891   4.687  17.260 -0.5144 -0.0599 -1.5098
 4250TIP3   OH236944   5.189   3.528  19.465 -0.0187  0.3170  0.1950
 4250TIP3    H136945   5.099   3.498  19.480  1.1514 -2.7337  1.8835
 4250TIP3    H236946   5.217   3.481  19.386  0.8986 -0.7974  1.1661
 4251TIP3   OH236947   6.312   3.666  19.191 -0.1150  0.3246  0.2749
 4251TIP3    H136948   6.271   3.694  19.110  1.9412 -1.6430 -1.5625
 4251TIP3    H236949   6.376   3.735  19.210  0.3962  0.1043 -0.5961
 4252TIP3   OH236950   1.592   6.548  18.744  0.6647  0.3810 -0.2001
 4252TIP3    H136951   1.605   6.461  18.706  0.1369 -0.5626  1.6549
 4252TIP3    H236952   1.499   6.550  18.766  0.4412  1.8508 -1.1454
 4253TIP3   OH236953   5.979   4.591  18.129 -0.4628  0.0794  0.1354
 4253TIP3    H136954   5.889   4.563  18.147  0.2161 -1.2557  1.7710
 4253TIP3    H236955   6.033   4.521  18.165  1.2534  1.1402 -0.2632
 4254TIP3   OH236956   4.990   4.909  18.921 -0.5277 -0.7419  0.7685
 4254TIP3    H136957   4.897   4.922  18.905 -0.7721 -0.5316  2.2981
 4254TIP3    H236958   5.001   4.814  18.920 -1.0754 -0.8341  2.2469
 4255TIP3   OH236959   2.077   5.598  18.139 -0.4268 -0.0210  0.1134
 4255TIP3    H136960   2.060   5.649  18.218 -2.2113 -0.7962  0.2665
 4255TIP3    H236961   2.034   5.514  18.154  0.0156 -0.5308 -1.3034
 4256TIP3   OH236962   1.344   4.644  18.775  0.5795  0.7491 -0.6074
 4256TIP3    H136963   1.261   4.626  18.731  0.9058  1.0986 -1.3755
 4256TIP3    H236964   1.410   4.634  18.707  1.3848 -1.3886  0.3984
 4257TIP3   OH236965   2.447   1.360  17.353 -0.0642 -0.1614 -0.6573
 4257TIP3    H136966   2.514   1.295  17.336 -0.5218 -0.8271  0.0298
 4257TIP3    H236967   2.388   1.318  17.416  0.4347  1.4433  0.9693
 4258TIP3   OH236968   4.825   4.538  18.875 -0.2205  0.0672 -0.2271
 4258TIP3    H136969   4.882   4.502  18.944 -1.5715 -0.4149  0.6928
 4258TIP3    H236970   4.774   4.606  18.920 -1.3302 -0.4550 -0.6497
 4259TIP3   OH236971   2.393   2.097  18.665 -0.3581 -0.3723  0.3694
 4259TIP3    H136972   2.443   2.156  18.608 -1.7304  0.1171 -0.3729
 4259TIP3    H236973   2.453   2.077  18.737  1.3762 -0.8867 -1.1419
 4260TIP3   OH236974   5.014   2.329  16.928 -0.3214  0.0058  0.1672
 4260TIP3    H136975   4.922   2.303  16.917  0.1615 -1.0178 -1.9438
 4260TIP3    H236976   5.014   2.383  17.007 -2.3141 -1.9752  1.6548
 4261TIP3   OH236977   7.074   1.746  18.396  0.0149  0.3105  0.1984
 4261TIP3    H136978   7.152   1.801  18.393 -0.5465  1.0886 -1.6548
 4261TIP3    H236979   7.005   1.804  18.428 -0.0999  0.0203  0.4798
 4262TIP3   OH236980   4.139   0.455  17.057 -0.2819 -0.0764 -0.5494
 4262TIP3    H136981   4.147   0.547  17.030  1.9964 -0.2445 -0.6361
 4262TIP3    H236982   4.071   0.420  17.000 -1.5107  1.6348 -0.2283
 4263TIP3   OH236983   6.081   3.373  19.315 -0.1253  0.1224  0.5530
 4263TIP3    H136984   6.125   3.321  19.248  1.4222 -0.6041  2.0522
 4263TIP3    H236985   6.150   3.428  19.351 -1.0745  0.9890  1.1115
 4264TIP3   OH236986   6.174   5.101  17.944 -0.1266  0.0617  0.2207
 4264TIP3    H136987   6.169   5.043  17.868  0.2580 -1.0663  1.0381
 4264TIP3    H236988   6.267   5.124  17.949  0.2865 -1.7297  1.6784
 4265TIP3   OH236989   0.905   3.750  18.340  0.0879 -0.0481  0.2960
 4265TIP3    H136990   0.940   3.816  18.399  0.5026 -0.6074  0.6840
 4265TIP3    H236991   0.892   3.673  18.395 -0.5512 -0.2424 -0.1127
 4266TIP3   OH236992   1.043   4.245  18.739 -0.0480 -0.3441 -1.2207
 4266TIP3    H136993   1.089   4.314  18.692  0.5196 -0.5159 -0.9324
 4266TIP3    H236994   0.964   4.288  18.773  1.4361  0.8172  0.9744
 4267TIP3   OH236995   4.949   0.852  16.662  0.3957 -0.1045 -0.9646
 4267TIP3    H136996   4.989   0.817  16.741  3.1345  0.3450 -2.0321
 4267TIP3    H236997   4.925   0.942  16.685  3.4395  0.8829 -1.2056
 4268TIP3   OH236998   1.888   1.300  19.048 -1.3589  0.1927  0.2030
 4268TIP3    H136999   1.962   1.332  18.997 -0.4968  0.5089  1.6191
 4268TIP3    H237000   1.841   1.379  19.075 -0.7545  0.1490  1.4382
 4269TIP3   OH237001   6.603   4.452  18.280  0.5050  0.2854 -0.4393
 4269TIP3    H137002   6.533   4.468  18.344  0.5430 -0.1701 -0.2851
 4269TIP3    H237003   6.650   4.377  18.315 -0.2545 -0.7919 -1.6646
 4270TIP3   OH237004   5.903   3.232  19.482  0.3285 -0.1214  0.0238
 4270TIP3    H137005   5.880   3.151  19.437  0.3254 -1.2267  1.9076
 4270TIP3    H237006   5.970   3.272  19.427  0.5206 -1.5264 -0.8232
 4271TIP3   OH237007   7.647   6.624  19.003  0.4215  0.6168  0.2278
 4271TIP3    H137008   7.593   6.622  18.923  0.7892  1.0004 -0.0327
 4271TIP3    H237009   7.657   6.532  19.027  1.7144  0.3664 -1.1274
 4272TIP3   OH237010   6.564   1.485  19.086  0.4751  0.5013  0.3438
 4272TIP3    H137011   6.648   1.469  19.044  0.7272  1.9990  0.2311
 4272TIP3    H237012   6.586   1.519  19.172 -0.0369 -0.5611  0.9143
 4273TIP3   OH237013   6.262   3.606  18.113 -0.1867 -0.4774  0.1104
 4273TIP3    H137014   6.201   3.645  18.175 -0.8323  0.2231 -0.9388
 4273TIP3    H237015   6.330   3.566  18.168 -0.4645  0.5653  1.2525
 4274TIP3   OH237016   2.361   1.010  19.563  0.2490  0.6350  0.1245
 4274TIP3    H137017   2.454   1.005  19.585 -0.0818  1.0516  1.7647
 4274TIP3    H237018   2.316   0.974  19.640 -0.9426  0.0351 -0.8155
 4275TIP3   OH237019   7.005   3.504  19.030  0.3165  0.0694  0.2520
 4275TIP3    H137020   7.056   3.563  19.086 -0.3548  0.3185  0.6118
 4275TIP3    H237021   7.000   3.423  19.081 -0.7554  0.4705  0.8122
 4276TIP3   OH237022   1.100   4.297  18.398 -0.0059  0.1001 -0.1679
 4276TIP3    H137023   1.007   4.301  18.378  0.3469  0.8485 -1.7904
 4276TIP3    H237024   1.129   4.213  18.362  0.1404  0.3069 -0.5300
 4277TIP3   OH237025   5.362   2.771  18.632  0.4264  0.0495 -0.2293
 4277TIP3    H137026   5.356   2.686  18.675  0.7459  0.1199 -0.0458
 4277TIP3    H237027   5.272   2.806  18.635  0.2160 -0.4447 -0.6529
 4278TIP3   OH237028   7.033   2.609  17.739  0.2343  0.0896 -0.1516
 4278TIP3    H137029   7.069   2.660  17.666  1.0568 -0.4727 -0.1537
 4278TIP3    H237030   7.097   2.619  17.809  0.5046 -1.0937 -0.2167
 4279TIP3   OH237031   0.509   0.147  16.894 -0.0530  0.0656 -0.0775
 4279TIP3    H137032   0.414   0.147  16.894 -0.0540 -0.5209  0.2025
 4279TIP3    H237033   0.534   0.076  16.834  0.1948 -0.7922  1.0133
 4280TIP3   OH237034   2.308   0.919  17.424  0.2093 -0.1531 -0.3130
 4280TIP3    H137035   2.363   0.850  17.388  0.2440 -0.4856  0.3779
 4280TIP3    H237036   2.221   0.902  17.387 -0.1711 -1.5492  1.1176
 4281TIP3   OH237037   2.089   4.503  18.058  0.7602 -0.2440  0.3631
 4281TIP3    H137038   2.029   4.577  18.046  0.6466 -0.6112 -1.6950
 4281TIP3    H237039   2.172   4.544  18.083  0.6954  0.6128 -0.7306
 4282TIP3   OH237040   0.123   2.675  19.424  0.5119  0.1240 -0.1819
 4282TIP3    H137041   0.202   2.654  19.474 -0.4863 -0.3624  1.2521
 4282TIP3    H237042   0.083   2.747  19.473  0.3977  0.8226 -1.2762
 4283TIP3   OH237043   6.699   6.373  17.306  0.5704  0.0511  0.2539
 4283TIP3    H137044   6.793   6.386  17.301  0.4384  0.5575 -1.8419
 4283TIP3    H237045   6.681   6.302  17.245 -0.2963 -0.8292  1.4872
 4284TIP3   OH237046   3.488   1.273  18.380 -0.3467  0.6827  0.4819
 4284TIP3    H137047   3.515   1.349  18.329 -1.1711  0.4792 -0.2896
 4284TIP3    H237048   3.446   1.215  18.316 -0.9074  0.1701  1.2944
 4285TIP3   OH237049   0.577   0.861  18.436 -0.1964 -0.4713  0.0581
 4285TIP3    H137050   0.624   0.825  18.511 -0.1268 -1.3265 -0.3836
 4285TIP3    H237051   0.605   0.953  18.432  0.3649 -0.6116  0.6291
 4286TIP3   OH237052   3.983   4.992  18.204  0.0664 -0.5568  0.0819
 4286TIP3    H137053   4.041   5.067  18.191  1.4602 -1.7756 -1.0576
 4286TIP3    H237054   4.040   4.924  18.240 -1.0287 -1.2959  0.4772
 4287TIP3   OH237055   7.012   5.418  17.622 -0.0817 -0.2640  0.2023
 4287TIP3    H137056   6.925   5.458  17.611 -0.1563 -0.6768 -0.8154
 4287TIP3    H237057   7.003   5.330  17.587  0.8330 -0.2057 -0.2110
 4288TIP3   OH237058   3.718   7.638  18.638 -0.2379  0.3851  0.0737
 4288TIP3    H137059   3.715   7.664  18.546  0.1298  1.8975  0.4622
 4288TIP3    H237060   3.727   7.720  18.686 -1.1654 -0.3227  1.5191
 4289TIP3   OH237061   1.951   1.944  19.106 -0.2182 -0.7598 -0.4323
 4289TIP3    H137062   2.023   1.882  19.112  0.2592 -0.3601 -1.7422
 4289TIP3    H237063   1.885   1.910  19.167  0.4497 -1.9730 -0.3577
 4290TIP3   OH237064   2.620   1.491  17.161 -0.5260 -0.6280 -0.2922
 4290TIP3    H137065   2.562   1.489  17.085  0.9273 -0.0293 -1.4694
 4290TIP3    H237066   2.568   1.452  17.231 -1.8567 -1.3771 -1.6215
 4291TIP3   OH237067   3.437   4.521  19.205 -0.3094  0.2316  0.3997
 4291TIP3    H137068   3.527   4.511  19.236 -0.2094  2.2023  0.8317
 4291TIP3    H237069   3.399   4.433  19.213  1.3892 -0.4989  0.7663
 4292TIP3   OH237070   3.957   4.636  19.193  0.2863  0.3308 -0.2173
 4292TIP3    H137071   4.020   4.611  19.126  0.5755 -2.5149  0.9686
 4292TIP3    H237072   4.011   4.661  19.268  0.1011 -2.1119  0.8035
 4293TIP3   OH237073   6.221   2.731  18.854  0.7142  0.0874 -0.4127
 4293TIP3    H137074   6.235   2.685  18.771 -0.3213 -0.4916 -0.2831
 4293TIP3    H237075   6.127   2.747  18.857  0.4336 -1.6511  1.5509
 4294TIP3   OH237076   1.537   3.125  17.796 -0.1080 -0.3122  0.4309
 4294TIP3    H137077   1.532   3.030  17.797  1.2296 -0.3935  0.8781
 4294TIP3    H237078   1.492   3.151  17.716  0.3037 -1.3693 -0.1590
 4295TIP3   OH237079   1.535   0.608  18.483 -0.2609  0.5715  0.2585
 4295TIP3    H137080   1.603   0.659  18.439 -1.3132  1.4105 -0.4366
 4295TIP3    H237081   1.570   0.518  18.485  0.6939  0.9117 -0.4082
 4296TIP3   OH237082   6.121   1.557  16.718 -0.1427  0.2133 -0.3006
 4296TIP3    H137083   6.190   1.507  16.675  0.0197  1.5940 -1.7471
 4296TIP3    H237084   6.046   1.550  16.659 -0.3371  1.0615 -0.1676
 4297TIP3   OH237085   3.265   2.878  17.662 -0.3709 -0.0426  0.2364
 4297TIP3    H137086   3.285   2.810  17.727 -1.0339  0.9544  1.5378
 4297TIP3    H237087   3.346   2.927  17.654 -0.0141 -0.7189 -0.3937
 4298TIP3   OH237088   6.842   7.545  18.267 -0.1479  0.6747 -0.0427
 4298TIP3    H137089   6.785   7.527  18.193  1.0640  0.7232 -1.0343
 4298TIP3    H237090   6.809   7.626  18.304 -0.8573  0.5804 -0.4579
 4299TIP3   OH237091   4.833   6.826  19.025  0.0617  0.0619 -0.4851
 4299TIP3    H137092   4.877   6.741  19.019 -0.1340 -0.0542 -0.2364
 4299TIP3    H237093   4.779   6.820  19.103 -0.5216  0.1494 -0.8759
 4300TIP3   OH237094   6.687   7.504  19.035  0.1472  0.2095  0.7174
 4300TIP3    H137095   6.644   7.523  19.119 -0.8353 -1.4589  0.6506
 4300TIP3    H237096   6.684   7.586  18.987 -0.8564  0.7505  1.6539
 4301TIP3   OH237097   2.012   6.755  18.151 -0.2720  0.0172  0.0874
 4301TIP3    H137098   2.084   6.814  18.175 -1.4809  1.5597  0.0758
 4301TIP3    H237099   1.934   6.810  18.156 -1.5038 -1.7045  0.4315
 4302TIP3   OH237100   7.293   6.741  18.919 -0.1109  0.2321 -0.6713
 4302TIP3    H137101   7.356   6.731  18.990 -0.4775 -1.2257 -0.5243
 4302TIP3    H237102   7.292   6.835  18.901  2.9823  0.2228 -1.4675
 4303TIP3   OH237103   5.595   2.886  19.033 -0.1997  0.2137 -0.4543
 4303TIP3    H137104   5.514   2.836  19.045  0.4756 -0.4488  1.9509
 4303TIP3    H237105   5.599   2.903  18.939 -0.5906 -4.0870 -1.4619
 4304TIP3   OH237106   1.750   1.485  19.171  0.4565 -0.1208  0.1664
 4304TIP3    H137107   1.665   1.519  19.196 -0.2863  0.4148 -2.7485
 4304TIP3    H237108   1.807   1.507  19.245 -1.7644 -0.0804  1.9869
 4305TIP3   OH237109   1.507   5.693  17.494  0.0808 -0.2010 -0.5137
 4305TIP3    H137110   1.425   5.649  17.515  0.6266 -1.1915 -0.3951
 4305TIP3    H237111   1.483   5.784  17.480 -1.0370 -0.4837 -0.4845
 4306TIP3   OH237112   5.374   1.253  17.781  0.1811 -0.0167 -0.0724
 4306TIP3    H137113   5.332   1.167  17.780 -0.0798  0.0134  2.2532
 4306TIP3    H237114   5.376   1.278  17.873  1.1192  2.0688 -0.5840
 4307TIP3   OH237115   6.669   2.928  17.765  0.2461 -0.0204 -0.3912
 4307TIP3    H137116   6.718   2.976  17.832 -1.4928  2.4677 -0.7691
 4307TIP3    H237117   6.727   2.928  17.689  1.0081 -0.1806  0.1686
 4308TIP3   OH237118   0.196   5.843  19.077  0.1285 -0.1426 -0.2756
 4308TIP3    H137119   0.237   5.880  19.156 -0.4244  1.0233 -0.5079
 4308TIP3    H237120   0.250   5.877  19.005 -0.7913  0.8197 -0.5369
 4309TIP3   OH237121   1.104   7.597  17.273  0.3275  0.0113  0.0122
 4309TIP3    H137122   1.014   7.586  17.304 -0.6067  2.8341 -1.3830
 4309TIP3    H237123   1.095   7.627  17.183  2.6508  1.2131  0.1164
 4310TIP3   OH237124   5.312   1.660  17.983  0.1227 -0.0430  0.0019
 4310TIP3    H137125   5.373   1.625  18.047  0.1641 -1.1464 -0.6164
 4310TIP3    H237126   5.344   1.628  17.899 -1.1762 -0.4678 -0.3552
 4311TIP3   OH237127   0.822   5.531  18.114 -0.1088 -0.1422  0.6408
 4311TIP3    H137128   0.774   5.460  18.070  0.0770 -1.1249  1.9702
 4311TIP3    H237129   0.812   5.606  18.055 -1.1985 -0.9788 -0.2999
 4312TIP3   OH237130   1.073   4.868  17.906  0.5242  0.1161 -0.3242
 4312TIP3    H137131   1.062   4.958  17.875 -2.2168  0.8236  2.2812
 4312TIP3    H237132   0.987   4.827  17.894  1.4254 -1.8531 -0.4843
 4313TIP3   OH237133   6.761   3.080  19.280  0.0217 -0.3175  0.2128
 4313TIP3    H137134   6.812   3.018  19.332 -0.1571 -0.2232  0.5045
 4313TIP3    H237135   6.696   3.114  19.342 -0.5803 -0.6492 -0.2259
 4314TIP3   OH237136   3.657   4.217  17.518 -0.2210  0.1433 -0.1918
 4314TIP3    H137137   3.629   4.138  17.564 -2.3422  0.9622  0.0438
 4314TIP3    H237138   3.593   4.228  17.448  1.5956  0.2272 -1.9014
 4315TIP3   OH237139   2.381   4.052  18.893  0.5675 -0.4257 -0.2886
 4315TIP3    H137140   2.448   3.984  18.899 -0.5753 -1.7520 -1.7095
 4315TIP3    H237141   2.327   4.038  18.971  0.2497 -1.2840 -0.6498
 4316TIP3   OH237142   5.377   6.180  18.981  0.5903  0.2324 -0.0876
 4316TIP3    H137143   5.386   6.215  18.893  0.4212 -0.4064 -0.3668
 4316TIP3    H237144   5.310   6.234  19.023 -0.8217 -0.7146 -1.0244
 4317TIP3   OH237145   7.198   5.726  18.024 -0.3910  0.0783 -0.0096
 4317TIP3    H137146   7.125   5.664  18.022  0.8721 -1.5283  1.3369
 4317TIP3    H237147   7.162   5.803  18.069 -2.2183  0.7862 -2.4209
 4318TIP3   OH237148   3.126   3.113  17.697  0.1672 -0.0537 -0.3555
 4318TIP3    H137149   3.072   3.034  17.708  1.1155 -0.4064  2.4880
 4318TIP3    H237150   3.216   3.082  17.705  0.5844  1.2261  0.0992
 4319TIP3   OH237151   1.760   3.024  19.097  0.0989  0.1603  0.0143
 4319TIP3    H137152   1.752   2.995  19.188 -4.0720 -0.7352 -0.4468
 4319TIP3    H237153   1.820   2.960  19.057  0.2667 -0.7485  1.6288
 4320TIP3   OH237154   3.785   1.120  17.640 -0.2551 -0.5846  0.1455
 4320TIP3    H137155   3.803   1.054  17.573 -0.3520 -0.0222 -0.4410
 4320TIP3    H237156   3.869   1.163  17.655 -0.0962 -1.1140  0.8370
 4321TIP3   OH237157   6.765   0.110  18.369  0.1332 -0.0192 -0.1628
 4321TIP3    H137158   6.779   0.162  18.448 -0.2879 -0.5130  0.2428
 4321TIP3    H237159   6.745   0.174  18.301  0.0992  0.3815  0.2247
 4322TIP3   OH237160   7.446   0.363  18.527 -0.2871  0.0198  0.8044
 4322TIP3    H137161   7.532   0.401  18.544  0.2778 -1.4204  1.2936
 4322TIP3    H237162   7.404   0.424  18.467  1.0165  0.8116  0.6680
 4323TIP3   OH237163   7.105   7.103  19.715  0.6613 -0.3995 -0.1569
 4323TIP3    H137164   7.153   7.044  19.656 -0.7499 -1.0103 -0.7307
 4323TIP3    H237165   7.030   7.052  19.744  0.8912  0.1886  1.5554
 4324TIP3   OH237166   0.955   3.368  17.902 -0.3950  0.0582 -0.3438
 4324TIP3    H137167   0.930   3.374  17.810 -0.5346 -1.5162 -0.4326
 4324TIP3    H237168   0.902   3.435  17.945  0.1460  1.2634 -1.4757
 4325TIP3   OH237169   6.553   4.790  19.442 -0.6123  0.1397  0.1873
 4325TIP3    H137170   6.624   4.729  19.461  0.4110  1.4750  0.8086
 4325TIP3    H237171   6.475   4.748  19.481 -0.1714 -1.2638 -0.3697
 4326TIP3   OH237172   5.744   3.726  17.182  0.0265  0.7051  0.3667
 4326TIP3    H137173   5.652   3.702  17.175  0.2773 -0.7567  1.4902
 4326TIP3    H237174   5.765   3.714  17.274  0.7773  3.3370  0.6236
 4327TIP3   OH237175   0.325   7.287  18.457  0.9424  0.0086  0.0594
 4327TIP3    H137176   0.389   7.239  18.405  1.9732  0.0577  1.2278
 4327TIP3    H237177   0.343   7.260  18.547  0.8911  1.8450  0.6479
 4328TIP3   OH237178   0.815   1.807  16.723 -0.2837  0.4103  0.0498
 4328TIP3    H137179   0.833   1.721  16.685  2.2286  0.4729  0.9294
 4328TIP3    H237180   0.773   1.788  16.806  1.2861 -0.0859  0.7767
 4329TIP3   OH237181   6.287   6.975  19.422  0.6513  0.0624 -0.4673
 4329TIP3    H137182   6.242   6.986  19.506  2.8821  1.5588  0.6104
 4329TIP3    H237183   6.234   6.910  19.376 -0.8458 -0.5602  1.9283
 4330TIP3   OH237184   4.097   4.685  17.324  0.5699 -0.0138  0.3699
 4330TIP3    H137185   4.152   4.699  17.246  1.0135 -1.7656  0.3196
 4330TIP3    H237186   4.047   4.766  17.333  1.9470  0.9931 -0.5715
 4331TIP3   OH237187   5.134   4.554  17.621 -0.0204 -0.0645 -0.2439
 4331TIP3    H137188   5.103   4.610  17.691  0.6728 -0.2142  0.2004
 4331TIP3    H237189   5.069   4.563  17.551 -1.0303 -0.3655  0.6310
 4332TIP3   OH237190   1.471   4.341  18.681 -0.0828 -0.3663  0.1013
 4332TIP3    H137191   1.503   4.358  18.770 -1.5886 -0.3551  0.6668
 4332TIP3    H237192   1.498   4.251  18.663  1.3387  0.0370  0.0343
 4333TIP3   OH237193   5.788   4.129  19.221  0.1392 -0.1963 -0.2362
 4333TIP3    H137194   5.789   4.035  19.203 -0.4166  0.2211 -2.8484
 4333TIP3    H237195   5.836   4.138  19.303 -1.0504 -2.8789  0.8905
 4334TIP3   OH237196   1.939   2.403  17.656 -0.0330  0.2222  0.2220
 4334TIP3    H137197   1.996   2.469  17.696 -0.1640  1.0981 -0.9787
 4334TIP3    H237198   1.976   2.387  17.570 -2.2426  1.7726 -1.1216
 4335TIP3   OH237199   7.538   2.306  17.144 -0.4002 -0.1844 -0.0645
 4335TIP3    H137200   7.588   2.341  17.218 -0.5031  0.0808 -0.1188
 4335TIP3    H237201   7.527   2.213  17.164  1.7308 -0.6794 -0.9316
 4336TIP3   OH237202   5.896   0.630  16.789  0.1212  0.2732  0.3347
 4336TIP3    H137203   5.978   0.627  16.739  1.0837 -1.0353  1.9142
 4336TIP3    H237204   5.898   0.714  16.834 -0.8588  1.5725 -1.8757
 4337TIP3   OH237205   5.856   4.590  16.814  0.0554 -0.4943 -0.0663
 4337TIP3    H137206   5.772   4.603  16.858 -0.4592 -0.3207 -1.0587
 4337TIP3    H237207   5.898   4.676  16.818 -0.3667 -0.2480 -0.6385
 4338TIP3   OH237208   3.330   4.212  17.905 -0.3278  0.2131 -0.4321
 4338TIP3    H137209   3.268   4.140  17.922  0.7243 -0.5105  0.5125
 4338TIP3    H237210   3.293   4.287  17.951 -0.2881 -0.3357  0.5246
 4339TIP3   OH237211   5.119   4.294  18.890 -0.4276 -0.1697  0.2119
 4339TIP3    H137212   5.087   4.358  18.954 -0.8901 -0.5239  0.3383
 4339TIP3    H237213   5.201   4.332  18.857  0.6043 -0.6608  2.0747
 4340TIP3   OH237214   3.003   7.407  17.249 -0.3500  0.2776 -0.3339
 4340TIP3    H137215   3.031   7.399  17.340  1.7908 -0.4494 -0.9870
 4340TIP3    H237216   3.067   7.467  17.210  0.1621 -1.1887 -1.8524
 4341TIP3   OH237217   0.295   1.480  18.046  0.0348 -0.0532 -0.2608
 4341TIP3    H137218   0.350   1.549  18.083 -0.1027 -0.8345  1.4885
 4341TIP3    H237219   0.304   1.406  18.107 -1.0307 -1.0446 -1.2517
 4342TIP3   OH237220   2.652   1.818  18.006  0.5069 -0.3184 -0.2405
 4342TIP3    H137221   2.668   1.795  17.914  2.7924 -1.8347  0.4434
 4342TIP3    H237222   2.559   1.800  18.020 -0.0407  0.5483 -2.3858
 4343TIP3   OH237223   1.416   2.294  17.263  0.1089 -0.0573  0.4145
 4343TIP3    H137224   1.500   2.250  17.277 -0.4651 -0.9398  1.2003
 4343TIP3    H237225   1.415   2.314  17.169  0.9854 -0.4880  0.3027
 4344TIP3   OH237226   6.161   3.928  19.106 -0.0946  0.6291 -0.2298
 4344TIP3    H137227   6.168   3.908  19.199  0.0804  0.6276 -0.2431
 4344TIP3    H237228   6.067   3.936  19.090 -0.1886 -0.3141 -0.2484
 4345TIP3   OH237229   7.586   2.819  16.902 -0.0002  0.4840 -0.1630
 4345TIP3    H137230   7.559   2.749  16.962 -1.7439  0.6246 -0.7182
 4345TIP3    H237231   7.595   2.776  16.817  2.6247  0.2510  0.1518
 4346TIP3   OH237232   7.343   1.937  19.255  0.3517 -0.3744 -0.1429
 4346TIP3    H137233   7.282   1.873  19.291 -0.8996  0.4701 -0.6981
 4346TIP3    H237234   7.413   1.885  19.217 -0.9287 -1.4550 -1.1169
 4347TIP3   OH237235   7.101   3.550  19.895  0.6929  0.4758 -0.2185
 4347TIP3    H137236   7.041   3.590  19.957  1.0946  1.9037 -0.7095
 4347TIP3    H237237   7.073   3.459  19.889  0.7212  0.2605  2.1332
 4348TIP3   OH237238   1.729   2.226  18.968  0.8675  0.0194 -0.0219
 4348TIP3    H137239   1.804   2.270  18.927  0.8627 -0.2947 -0.3786
 4348TIP3    H237240   1.665   2.296  18.981  0.8851  0.1374 -0.5252
 4349TIP3   OH237241   5.946   1.790  18.931 -0.0964 -0.2798 -0.0758
 4349TIP3    H137242   5.945   1.724  18.862  0.3544 -1.2341  0.7932
 4349TIP3    H237243   6.026   1.771  18.981  0.0131  0.9005  0.2351
 4350TIP3   OH237244   6.388   3.275  18.192  0.3692  0.5991  0.0551
 4350TIP3    H137245   6.426   3.361  18.175 -0.4349  0.9966  0.1680
 4350TIP3    H237246   6.419   3.252  18.279  1.9452 -0.0044 -0.6327
 4351TIP3   OH237247   0.409   3.624  18.289  0.3282 -0.0458  0.2854
 4351TIP3    H137248   0.424   3.635  18.383  2.3380 -0.7997  0.1039
 4351TIP3    H237249   0.425   3.531  18.273  1.2148  0.2903 -0.9757
 4352TIP3   OH237250   0.129   0.997  18.261 -0.0713 -0.1393 -0.3521
 4352TIP3    H137251   0.057   0.981  18.200  0.5410  1.9559 -1.7398
 4352TIP3    H237252   0.173   0.913  18.270 -1.4068 -0.9603 -1.1816
 4353TIP3   OH237253   1.701   7.198  18.283  0.6237 -0.8354  0.1047
 4353TIP3    H137254   1.745   7.139  18.344 -0.7807 -0.7462  1.2735
 4353TIP3    H237255   1.693   7.148  18.202  1.4574 -1.4043  0.3625
 4354TIP3   OH237256   2.958   2.902  17.697  0.0530 -0.0007 -0.5599
 4354TIP3    H137257   2.869   2.932  17.679 -0.0452 -1.0579 -1.9917
 4354TIP3    H237258   2.958   2.809  17.673  1.1974 -0.3689  0.6943
 4355TIP3   OH237259   5.707   1.527  17.853 -0.3772  0.6657  0.1101
 4355TIP3    H137260   5.798   1.543  17.829 -0.6571  0.7269 -0.9474
 4355TIP3    H237261   5.709   1.446  17.904  0.2510  0.6394  0.0441
 4356TIP3   OH237262   3.399   0.767  19.601 -0.3297 -0.1012 -1.2674
 4356TIP3    H137263   3.369   0.825  19.530  1.3425  1.0268 -1.1069
 4356TIP3    H237264   3.428   0.688  19.555  0.7362  0.6168 -1.8862
 4357TIP3   OH237265   1.541   1.218  18.006 -0.0106 -0.2763 -0.5993
 4357TIP3    H137266   1.591   1.188  18.081 -1.0630  0.2376  0.3321
 4357TIP3    H237267   1.453   1.185  18.021 -0.5893  1.1038 -0.8325
 4358TIP3   OH237268   6.022   3.341  17.398  0.2026 -0.1540 -0.2333
 4358TIP3    H137269   6.069   3.394  17.463  1.0457 -0.8982 -0.2139
 4358TIP3    H237270   5.946   3.306  17.445  0.7553 -0.6072  0.3319
 4359TIP3   OH237271   0.569   5.638  19.342 -0.4038 -0.0962  0.1891
 4359TIP3    H137272   0.650   5.688  19.348 -0.8228  0.4914  1.1902
 4359TIP3    H237273   0.544   5.645  19.250  0.2452  0.4205  0.0414
 4360TIP3   OH237274   7.006   3.220  17.082  0.2322 -0.4600  0.2049
 4360TIP3    H137275   6.945   3.175  17.141 -0.9393 -1.7742 -1.8432
 4360TIP3    H237276   7.092   3.185  17.105 -0.0697 -0.3038  1.6488
 4361TIP3   OH237277   5.425   6.733  17.008 -0.3751 -0.4073 -0.1536
 4361TIP3    H137278   5.439   6.762  16.918 -0.4189  3.1155  0.8420
 4361TIP3    H237279   5.468   6.648  17.012  0.9437 -0.0095 -3.0828
 4362TIP3   OH237280   7.023   6.050  18.458  0.0562  0.1898 -0.3145
 4362TIP3    H137281   7.043   5.991  18.385  0.2256  0.1015 -0.1968
 4362TIP3    H237282   6.970   6.119  18.419  1.5225  1.0499 -0.8721
 4363TIP3   OH237283   5.694   0.445  17.518  0.5093 -0.5652 -0.7442
 4363TIP3    H137284   5.712   0.413  17.606  0.0936  2.3175  0.4855
 4363TIP3    H237285   5.600   0.462  17.518  0.6161  0.0562 -1.5257
 4364TIP3   OH237286   1.153   1.953  17.699 -0.4400  0.1414  0.8618
 4364TIP3    H137287   1.084   1.915  17.754  1.2615 -1.7844  1.8214
 4364TIP3    H237288   1.196   1.878  17.659 -1.3854  1.4398 -3.0264
 4365TIP3   OH237289   3.126   2.806  19.046  0.5827  0.2573 -0.4262
 4365TIP3    H137290   3.184   2.863  19.097  0.9403 -0.7013  0.2707
 4365TIP3    H237291   3.184   2.747  18.999  0.2067 -1.3539  1.0290
 4366TIP3   OH237292   0.727   2.430  18.526  0.1204 -0.2987  0.1453
 4366TIP3    H137293   0.643   2.447  18.570  0.5357 -1.8673  1.6454
 4366TIP3    H237294   0.705   2.370  18.455 -0.2954  0.9286 -0.8155
 4367TIP3   OH237295   6.408   2.033  19.561  0.0241 -0.2783  0.9811
 4367TIP3    H137296   6.439   2.120  19.588 -0.3851  0.0620  0.3920
 4367TIP3    H237297   6.313   2.036  19.579 -0.0504 -0.4737  0.6172
 4368TIP3   OH237298   0.899   6.377  18.380 -0.3164 -0.0002 -0.5396
 4368TIP3    H137299   0.978   6.371  18.434 -0.1077  0.3448 -0.8096
 4368TIP3    H237300   0.923   6.335  18.298 -0.5490 -0.2735 -0.4705
 4369TIP3   OH237301   1.069   3.575  17.714  0.4020 -0.2298 -0.2531
 4369TIP3    H137302   1.032   3.509  17.655 -0.3147  0.9066 -1.1105
 4369TIP3    H237303   1.124   3.629  17.657  3.5449 -1.8776  0.9805
 4370TIP3   OH237304   5.987   4.667  18.438  0.4205  0.5950 -0.4974
 4370TIP3    H137305   5.991   4.596  18.374  0.1910 -1.1691  1.3173
 4370TIP3    H237306   6.077   4.674  18.471 -0.0270 -0.6786  1.1192
 4371TIP3   OH237307   1.176   0.183  17.985 -1.0991 -0.3476 -0.0625
 4371TIP3    H137308   1.259   0.141  18.005 -0.9757 -0.5032 -0.8828
 4371TIP3    H237309   1.111   0.131  18.033 -0.6092  0.6613  1.8103
 4372TIP3   OH237310   4.407   2.861  17.530  0.3706  0.0791  0.3555
 4372TIP3    H137311   4.421   2.955  17.547  1.1291 -0.1012  0.7468
 4372TIP3    H237312   4.367   2.828  17.610 -0.0926  0.1046  0.1376
 4373TIP3   OH237313   5.807   0.796  19.448 -0.0950  0.1692 -0.1217
 4373TIP3    H137314   5.713   0.812  19.449 -0.2265 -0.4912  1.6895
 4373TIP3    H237315   5.841   0.850  19.519  0.8753  0.2256 -0.6164
 4374TIP3   OH237316   0.378   2.121  18.632 -0.3487  0.0693  0.3880
 4374TIP3    H137317   0.408   2.091  18.546  0.6324 -2.8996  1.6421
 4374TIP3    H237318   0.288   2.088  18.639 -0.9923  1.6636 -0.0666
 4375TIP3   OH237319   0.942   2.956  17.257 -0.0111  0.1328 -0.0403
 4375TIP3    H137320   1.017   2.912  17.216  0.4216  0.1818  0.6759
 4375TIP3    H237321   0.872   2.890  17.255 -0.1291  0.2822 -1.2193
 4376TIP3   OH237322   1.481   2.829  18.924 -0.5275  0.6559 -0.1538
 4376TIP3    H137323   1.465   2.851  19.016 -0.5121  1.4367 -0.3310
 4376TIP3    H237324   1.564   2.872  18.903 -1.7247  2.6036 -1.2165
 4377TIP3   OH237325   6.747   7.521  17.486  0.5694  0.0287 -0.0236
 4377TIP3    H137326   6.738   7.473  17.403  0.8710  1.1409 -0.7267
 4377TIP3    H237327   6.751   7.613  17.459  0.2471  0.4306  1.2688
 4378TIP3   OH237328   5.772   5.007  17.489 -0.2998  0.0332  0.0134
 4378TIP3    H137329   5.747   4.937  17.550 -0.5408 -1.0422 -1.2859
 4378TIP3    H237330   5.689   5.050  17.468 -0.2120  0.4251  0.4725
 4379TIP3   OH237331   6.570   5.650  17.735  0.1204 -0.5753 -0.1389
 4379TIP3    H137332   6.587   5.728  17.682  1.6780  0.2369  1.4537
 4379TIP3    H237333   6.512   5.680  17.805 -1.4440 -1.5060 -0.9691
 4380TIP3   OH237334   6.123   3.513  17.860 -0.0026 -0.3449 -0.0494
 4380TIP3    H137335   6.056   3.446  17.872 -0.5930 -0.1706 -2.1172
 4380TIP3    H237336   6.160   3.525  17.948 -0.0138 -3.1972  0.4530
 4381TIP3   OH237337   2.260   4.079  18.296  0.2175 -0.2108  0.1619
 4381TIP3    H137338   2.347   4.096  18.259  0.4604  2.0394  1.6167
 4381TIP3    H237339   2.218   4.164  18.298 -0.8518 -0.7310  2.3761
 4382TIP3   OH237340   0.040   1.990  17.520  0.3252  0.1733  0.1700
 4382TIP3    H137341   0.112   1.933  17.546 -0.4473 -1.0194 -0.2354
 4382TIP3    H237342   0.068   2.077  17.548  0.1415 -0.7685  3.8887
 4383TIP3   OH237343   2.615   2.306  16.542  0.0843 -0.4551  0.3542
 4383TIP3    H137344   2.703   2.292  16.578  0.0532 -2.4611 -0.2202
 4383TIP3    H237345   2.608   2.242  16.471 -0.8140  1.6175 -1.5410
 4384TIP3   OH237346   4.426   4.889  17.910 -0.1329  0.0256  0.4127
 4384TIP3    H137347   4.423   4.882  17.815 -0.1599  0.3920  0.3819
 4384TIP3    H237348   4.480   4.816  17.939 -1.6006 -1.1756  0.2509
 4385TIP3   OH237349   3.626   5.776  17.499 -0.6819 -0.3353 -0.1505
 4385TIP3    H137350   3.676   5.745  17.424 -0.8724 -1.4080  0.1432
 4385TIP3    H237351   3.692   5.808  17.561 -0.3466 -1.5932  0.1688
 4386TIP3   OH237352   4.585   3.400  18.025  0.2045 -0.5958  0.1355
 4386TIP3    H137353   4.578   3.484  18.071 -0.5513 -0.4984 -0.1332
 4386TIP3    H237354   4.609   3.337  18.093  1.1411 -0.1078  0.2750
 4387TIP3   OH237355   4.891   3.897  17.633 -0.3608  0.0693  0.1678
 4387TIP3    H137356   4.882   3.910  17.539  1.7521  0.1627 -0.0607
 4387TIP3    H237357   4.959   3.831  17.643  0.1776  0.7813  1.6415
 4388TIP3   OH237358   4.622   1.617  17.693 -0.7656  0.5441 -0.0052
 4388TIP3    H137359   4.672   1.566  17.630 -0.8656  0.6084 -0.1386
 4388TIP3    H237360   4.548   1.651  17.642 -0.6646  0.8711  0.0672
 4389TIP3   OH237361   6.024   1.978  18.566 -0.0926  1.3296 -0.1730
 4389TIP3    H137362   6.091   2.021  18.619 -0.8136 -0.3392  2.2794
 4389TIP3    H237363   6.040   1.885  18.579 -2.8236  0.8556  0.5439
 4390TIP3   OH237364   5.014   7.267  18.747 -0.3850  0.5930  0.1233
 4390TIP3    H137365   5.011   7.216  18.828 -0.7357 -0.8540 -0.7778
 4390TIP3    H237366   5.029   7.202  18.678  4.4556  2.0923 -0.6519
 4391TIP3   OH237367   5.046   1.975  18.264  0.1869  0.1381  0.5859
 4391TIP3    H137368   5.066   1.919  18.188 -0.4515 -0.1982  0.6625
 4391TIP3    H237369   5.008   2.054  18.226 -0.3056 -0.1070  0.5589
 4392TIP3   OH237370   6.467   2.367  17.611  0.3455 -0.1854 -0.5832
 4392TIP3    H137371   6.423   2.432  17.557  0.1182 -0.2055 -0.4272
 4392TIP3    H237372   6.553   2.357  17.572  0.2126 -0.1378 -0.8891
 4393TIP3   OH237373   1.619   4.550  17.804 -1.0218  0.0276 -0.3588
 4393TIP3    H137374   1.526   4.540  17.784 -1.1214 -1.7342  0.7747
 4393TIP3    H237375   1.663   4.536  17.720 -1.7691  1.5142 -1.0396
 4394TIP3   OH237376   4.792   6.617  18.197 -0.5507  0.4356  0.4800
 4394TIP3    H137377   4.810   6.574  18.113 -1.1012  0.8620  0.1320
 4394TIP3    H237378   4.876   6.653  18.225 -0.1272 -0.6943  0.6803
 4395TIP3   OH237379   4.062   5.537  17.114 -0.1416  0.6033  0.3701
 4395TIP3    H137380   3.974   5.565  17.140  0.0082  1.0919  0.3749
 4395TIP3    H237381   4.106   5.619  17.089  0.6579  0.5024  1.4125
 4396TIP3   OH237382   1.745   2.289  17.015 -0.1057  0.0424 -0.3003
 4396TIP3    H137383   1.653   2.315  17.020  0.0496  0.4193  1.3290
 4396TIP3    H237384   1.752   2.240  16.934 -1.6368  0.4390 -0.7029
 4397TIP3   OH237385   3.740   1.327  19.140 -0.1150 -0.5499  0.2992
 4397TIP3    H137386   3.813   1.326  19.201 -0.8154  0.2140  1.1737
 4397TIP3    H237387   3.746   1.412  19.097  0.5908 -1.2216 -1.0048
 4398TIP3   OH237388   5.202   5.412  18.230 -0.1839  0.0424  0.7204
 4398TIP3    H137389   5.247   5.463  18.163  1.3977  0.2506  1.8790
 4398TIP3    H237390   5.109   5.420  18.208  0.0504  2.7465  0.4180
 4399TIP3   OH237391   6.806   2.530  18.343  0.8141 -0.1991  0.0794
 4399TIP3    H137392   6.748   2.466  18.303  1.3831 -1.7455  1.6484
 4399TIP3    H237393   6.890   2.485  18.353  1.4342  1.0070  0.6066
 4400TIP3   OH237394   2.722   1.682  18.941 -0.3763 -0.6694 -0.2517
 4400TIP3    H137395   2.793   1.617  18.935  1.1674  1.0532 -1.8973
 4400TIP3    H237396   2.732   1.735  18.862 -1.2489  1.8966  1.2606
 4401TIP3   OH237397   6.470   7.027  18.628 -0.1139 -0.3453 -0.6100
 4401TIP3    H137398   6.522   7.037  18.707  1.9320 -0.0049 -1.9271
 4401TIP3    H237399   6.464   6.933  18.614 -0.3708 -0.4015 -0.1586
 4402TIP3   OH237400   7.011   1.899  19.249  0.2371 -0.6854  0.6959
 4402TIP3    H137401   7.012   1.870  19.157  2.3051 -0.1086  0.4911
 4402TIP3    H237402   6.957   1.833  19.294  1.9444 -2.9579 -0.3538
 4403TIP3   OH237403   3.708   1.880  18.797 -0.1003 -0.1771 -0.6150
 4403TIP3    H137404   3.798   1.895  18.768 -0.2599  1.0825 -0.4840
 4403TIP3    H237405   3.655   1.892  18.718 -0.2730  0.3804 -0.4143
 4404TIP3   OH237406   6.251   7.409  19.545  0.1419  0.2420 -0.2208
 4404TIP3    H137407   6.282   7.391  19.634  0.3547 -0.8181 -0.4959
 4404TIP3    H237408   6.162   7.443  19.558  0.2385  0.2706  0.4141
 4405TIP3   OH237409   7.619   0.112  19.419 -0.0966  0.5112  0.0823
 4405TIP3    H137410   7.540   0.064  19.444  0.1997 -0.4875 -0.8190
 4405TIP3    H237411   7.617   0.191  19.473 -1.4730  0.2911  0.3949
 4406TIP3   OH237412   3.167   2.227  19.529 -0.0817 -0.4279  0.4758
 4406TIP3    H137413   3.170   2.154  19.467  2.1379 -0.1861  0.2350
 4406TIP3    H237414   3.198   2.190  19.611  0.5937  0.1127  0.4744
 4407TIP3   OH237415   4.199   6.152  17.282  1.1029 -0.4990  0.0860
 4407TIP3    H137416   4.222   6.107  17.201 -0.9513  0.9613 -1.4214
 4407TIP3    H237417   4.275   6.206  17.302  1.4772 -0.5365 -1.1357
 4408TIP3   OH237418   3.884   3.789  18.913  0.1304 -0.5658  0.0645
 4408TIP3    H137419   3.848   3.872  18.943  0.2008 -0.5923  0.2230
 4408TIP3    H237420   3.853   3.725  18.977 -1.2718 -0.9401 -0.9422
 4409TIP3   OH237421   5.095   6.070  17.519  0.1356 -0.0806 -0.1041
 4409TIP3    H137422   5.152   6.079  17.596 -1.8943  1.5659  1.3154
 4409TIP3    H237423   5.112   6.149  17.467 -0.3586  0.1036  0.0048
 4410TIP3   OH237424   0.200   4.807  18.007 -0.4899 -0.3091 -0.5016
 4410TIP3    H137425   0.163   4.821  18.095 -0.8198  2.1669 -0.9538
 4410TIP3    H237426   0.261   4.880  17.995  0.3409 -1.1991 -1.9454
 4411TIP3   OH237427   0.106   5.980  17.803  0.8088 -0.0355 -0.3582
 4411TIP3    H137428   0.081   5.889  17.787 -2.0337  0.5003  0.4670
 4411TIP3    H237429   0.091   6.023  17.719 -0.3156  0.1206 -0.0896
 4412TIP3   OH237430   6.595   4.083  19.202  0.3020 -0.4091  0.2661
 4412TIP3    H137431   6.607   4.022  19.130  0.1143  0.4749 -0.5415
 4412TIP3    H237432   6.676   4.135  19.203 -0.2776  0.5227 -0.2449
 4413TIP3   OH237433   0.842   6.080  18.818  0.0114  0.6562 -0.1614
 4413TIP3    H137434   0.809   6.013  18.759 -0.9282 -0.0785  1.1579
 4413TIP3    H237435   0.765   6.110  18.867  1.0358 -0.3158  2.2219
 4414TIP3   OH237436   7.176   1.397  17.698 -0.4499  0.0871 -0.0275
 4414TIP3    H137437   7.096   1.371  17.653 -0.3936 -0.4669  0.1793
 4414TIP3    H237438   7.247   1.360  17.645 -0.3776 -0.4243  0.4108
 4415TIP3   OH237439   2.728   3.298  16.638 -0.1237  0.3259 -0.5225
 4415TIP3    H137440   2.812   3.288  16.592 -0.0046  1.0065 -0.4696
 4415TIP3    H237441   2.667   3.326  16.570 -0.8067 -2.0635 -0.9790
 4416TIP3   OH237442   2.276   5.386  18.968 -0.1706 -1.0976  0.0617
 4416TIP3    H137443   2.262   5.307  19.021  0.0755 -1.4314 -0.3636
 4416TIP3    H237444   2.361   5.373  18.927  0.2473 -0.2286  0.6292
 4417TIP3   OH237445   7.177   3.397  19.287  0.3360 -0.2402 -0.5806
 4417TIP3    H137446   7.238   3.436  19.224  0.7028 -0.4143 -0.3317
 4417TIP3    H237447   7.127   3.334  19.235 -1.1773  1.4519 -1.3015
 4418TIP3   OH237448   6.578   3.464  17.126 -0.2126  0.4040  0.2646
 4418TIP3    H137449   6.543   3.405  17.193  0.6781  0.5690  0.8794
 4418TIP3    H237450   6.534   3.436  17.045 -0.4974 -0.4901  0.7161
 4419TIP3   OH237451   1.915   4.801  17.000  0.0445  0.3498 -0.3624
 4419TIP3    H137452   1.996   4.790  17.050 -1.1868 -2.2126  1.2865
 4419TIP3    H237453   1.910   4.723  16.944 -2.1781 -0.6689  1.0867
 4420TIP3   OH237454   6.766   2.158  17.808  0.6637  0.1981 -0.2967
 4420TIP3    H137455   6.839   2.118  17.857 -1.2630  0.8504  3.4890
 4420TIP3    H237456   6.722   2.084  17.766  1.1577 -0.7441  0.7876
 4421TIP3   OH237457   0.249   2.217  17.567  0.3908 -0.7165  0.0477
 4421TIP3    H137458   0.266   2.150  17.501  2.8601 -0.7607  0.6151
 4421TIP3    H237459   0.312   2.198  17.636 -0.6838  0.6085  1.4471
 4422TIP3   OH237460   3.852   3.246  18.323  0.4135 -0.9684  0.4728
 4422TIP3    H137461   3.811   3.159  18.329  3.2453 -2.7056 -2.0843
 4422TIP3    H237462   3.926   3.242  18.384 -0.3845  0.3433  1.5711
 4423TIP3   OH237463   4.054   0.605  19.410 -1.1663  0.4833 -0.0805
 4423TIP3    H137464   4.142   0.567  19.413 -1.0182  0.9053  1.6599
 4423TIP3    H237465   4.069   0.699  19.406 -1.5379  0.5424 -0.0736
 4424TIP3   OH237466   5.566   5.568  18.528  0.1509 -0.0085  0.2859
 4424TIP3    H137467   5.485   5.527  18.555  1.5831 -2.3020  1.3681
 4424TIP3    H237468   5.560   5.658  18.562 -1.4737 -0.4540  1.2618
 4425TIP3   OH237469   2.051   4.891  19.222  0.3756 -0.0832 -0.2017
 4425TIP3    H137470   2.134   4.847  19.243  0.2449 -0.7450 -1.0024
 4425TIP3    H237471   2.034   4.947  19.298  1.8896  0.5728 -0.2983
 4426TIP3   OH237472   2.909   7.627  16.784 -0.0059 -0.2035 -0.0013
 4426TIP3    H137473   2.970   7.562  16.749  0.4468 -0.1244  0.6244
 4426TIP3    H237474   2.963   7.685  16.838 -0.5938  0.0159  0.3696
 4427TIP3   OH237475   6.376   2.496  17.392  0.2049  0.1016 -0.2811
 4427TIP3    H137476   6.404   2.436  17.323  0.6190  1.3493 -1.2395
 4427TIP3    H237477   6.439   2.568  17.388 -1.4094  1.5642 -0.5188
 4428TIP3   OH237478   2.975   5.249  17.312 -0.0299  0.1127  1.4461
 4428TIP3    H137479   2.997   5.159  17.288 -0.5870  0.2513  0.3800
 4428TIP3    H237480   2.882   5.257  17.292  0.0849  1.0135  1.2620
 4429TIP3   OH237481   0.380   1.122  17.783  0.0801 -0.1065 -0.1883
 4429TIP3    H137482   0.409   1.212  17.794 -0.1823 -0.1670  1.1024
 4429TIP3    H237483   0.329   1.103  17.861 -0.5206 -1.1305 -0.8038
 4430TIP3   OH237484   7.424   6.483  19.492  0.1894  0.0019  0.5361
 4430TIP3    H137485   7.451   6.553  19.431 -1.8202 -0.0114 -0.4676
 4430TIP3    H237486   7.408   6.529  19.574  1.7881  0.2139  0.7627
 4431TIP3   OH237487   1.113   6.654  18.970 -0.1910  0.0751  0.0929
 4431TIP3    H137488   1.043   6.669  19.033 -0.2222 -2.1178  0.6640
 4431TIP3    H237489   1.070   6.612  18.895  0.3435 -0.3399  0.0105
 4432TIP3   OH237490   1.401   6.165  17.624  0.0892 -0.5456 -0.0241
 4432TIP3    H137491   1.458   6.109  17.571 -1.4307 -1.0881 -1.1718
 4432TIP3    H237492   1.420   6.253  17.593  1.1544 -0.5804  0.4735
 4433TIP3   OH237493   0.310   3.330  17.008 -0.2842 -0.0989  0.2989
 4433TIP3    H137494   0.348   3.349  16.922 -1.5578 -1.2127 -0.5291
 4433TIP3    H237495   0.298   3.235  17.009  1.6223 -0.4326  2.5465
 4434TIP3   OH237496   5.119   2.124  17.809  0.0621  0.0071 -0.3336
 4434TIP3    H137497   5.155   2.123  17.898 -1.1808 -0.9337  0.1819
 4434TIP3    H237498   5.026   2.106  17.820 -0.2665  0.7008 -1.7747
 4435TIP3   OH237499   5.083   1.791  18.034 -0.5104 -0.0003  0.1988
 4435TIP3    H137500   5.172   1.762  18.014 -0.0063  1.6641 -0.1330
 4435TIP3    H237501   5.054   1.732  18.104  0.5031 -1.1389 -0.2953
 4436TIP3   OH237502   4.654   3.266  18.238 -0.0173  0.4498  0.4378
 4436TIP3    H137503   4.715   3.213  18.291  1.1599  1.0137 -0.3083
 4436TIP3    H237504   4.607   3.319  18.302 -1.8156 -1.9908  1.2983
 4437TIP3   OH237505   0.081   6.475  17.745 -0.2286  0.2215  0.1577
 4437TIP3    H137506   0.156   6.505  17.796 -0.4958 -0.1763  0.7920
 4437TIP3    H237507   0.120   6.445  17.662  0.6304 -2.0254  1.2755
 4438TIP3   OH237508   5.479   4.902  18.821 -0.5600  0.3443  0.0848
 4438TIP3    H137509   5.443   4.833  18.765 -0.9696 -0.1413  0.9300
 4438TIP3    H237510   5.402   4.939  18.865 -0.1297 -0.1545  1.2972
 4439TIP3   OH237511   5.011   5.015  18.177  0.5689 -0.1147  0.5369
 4439TIP3    H137512   5.072   4.952  18.216 -1.1448 -1.5842  0.9524
 4439TIP3    H237513   5.024   5.005  18.083  0.3559 -1.0929  0.5978
 4440TIP3   OH237514   7.337   2.465  17.047 -0.2053  0.2694 -0.3252
 4440TIP3    H137515   7.345   2.526  17.120 -1.6282  1.3058 -0.9824
 4440TIP3    H237516   7.422   2.421  17.042  0.7844  2.0189  0.3216
 4441TIP3   OH237517   1.423   0.660  19.564 -0.5043  0.2267  0.2648
 4441TIP3    H137518   1.334   0.695  19.568 -0.4316  0.4819 -0.2821
 4441TIP3    H237519   1.419   0.587  19.503  0.1906  1.9660 -2.0477
 4442TIP3   OH237520   4.842   6.448  19.399 -0.1608  0.5264  0.2048
 4442TIP3    H137521   4.780   6.376  19.387  0.8974 -0.1763 -1.2150
 4442TIP3    H237522   4.849   6.457  19.494 -1.3708 -0.3086  0.3950
 4443TIP3   OH237523   6.959   0.014  18.752  0.1063  0.2076 -0.0270
 4443TIP3    H137524   7.032   0.071  18.778  1.0387 -0.7718 -0.3925
 4443TIP3    H237525   6.970  -0.065  18.805 -0.2328 -0.2580 -0.6332
 4444TIP3   OH237526   1.273   7.305  17.647 -0.4167  0.4371 -0.1069
 4444TIP3    H137527   1.319   7.356  17.714  2.7044  0.2499 -1.9302
 4444TIP3    H237528   1.278   7.359  17.568 -0.9086 -0.8378 -1.0408
 4445TIP3   OH237529   5.266   5.362  17.144 -0.5435  0.3220  0.0311
 4445TIP3    H137530   5.313   5.279  17.138 -0.4590  0.3446  0.3859
 4445TIP3    H237531   5.190   5.343  17.199  0.1781  0.7930  1.2265
 4446TIP3   OH237532   6.276   1.704  16.935  0.1857 -0.0858 -0.5902
 4446TIP3    H137533   6.224   1.785  16.935 -0.3302 -0.4103 -0.8532
 4446TIP3    H237534   6.233   1.648  16.870  1.1007 -0.2194 -1.0896
 4447TIP3   OH237535   2.443   7.605  18.424 -0.2355 -0.1084 -0.6698
 4447TIP3    H137536   2.484   7.533  18.376 -0.8775 -0.4206 -0.7629
 4447TIP3    H237537   2.510   7.673  18.427  0.9426 -1.2766  0.7647
 4448TIP3   OH237538   2.263   6.221  19.515 -1.0506 -0.6908 -0.6748
 4448TIP3    H137539   2.288   6.297  19.569 -0.3585 -1.1547 -0.3293
 4448TIP3    H237540   2.302   6.239  19.430 -1.0096 -0.5910 -0.6350
 4449TIP3   OH237541   0.692   4.235  19.302 -0.2168 -0.1559  0.0432
 4449TIP3    H137542   0.698   4.142  19.282 -1.7508 -0.7063  1.7548
 4449TIP3    H237543   0.649   4.238  19.388  0.7214  2.1063  0.5144
 4450TIP3   OH237544   1.475   7.441  18.372  0.1950  0.1548  0.4811
 4450TIP3    H137545   1.506   7.470  18.287  0.1868 -0.7547  0.1545
 4450TIP3    H237546   1.526   7.492  18.435  0.7483  0.2817 -0.0610
 4451TIP3   OH237547   0.204   0.952  17.368  0.1467  0.4807  0.5637
 4451TIP3    H137548   0.222   0.999  17.287 -1.8496  0.5482  0.1121
 4451TIP3    H237549   0.212   1.019  17.437 -2.2142  1.4735 -0.0259
 4452TIP3   OH237550   4.666   0.360  18.146  0.1761 -0.0148  0.6702
 4452TIP3    H137551   4.587   0.412  18.161  0.1661 -0.2142  1.3449
 4452TIP3    H237552   4.670   0.349  18.051  0.9510  2.4433  0.3433
 4453TIP3   OH237553   1.628   2.031  19.153 -0.1764 -0.8779  0.3070
 4453TIP3    H137554   1.670   2.086  19.087  1.5197 -1.0661  1.1840
 4453TIP3    H237555   1.550   1.998  19.109 -0.8017  1.5038 -0.5398
 4454TIP3   OH237556   7.552   1.812  17.739  0.1716  1.1273 -0.2862
 4454TIP3    H137557   7.585   1.881  17.797  0.6232 -0.2337  1.1529
 4454TIP3    H237558   7.563   1.847  17.651  1.9448  2.2419  0.3325
 4455TIP3   OH237559   3.448   0.829  18.066  0.4536  0.4947 -0.3272
 4455TIP3    H137560   3.499   0.799  18.141  1.6684  1.7449 -0.6029
 4455TIP3    H237561   3.478   0.919  18.051 -0.5269  0.6341 -1.6529
 4456TIP3   OH237562   3.521   3.334  17.846 -0.2025 -0.8011 -0.3410
 4456TIP3    H137563   3.488   3.260  17.795 -1.2315  0.1740 -1.1414
 4456TIP3    H237564   3.490   3.412  17.799 -0.5054  0.1483  1.3365
 4457TIP3   OH237565   6.282   1.729  17.460  0.0346  0.3776  0.4144
 4457TIP3    H137566   6.232   1.781  17.397  0.4930 -0.3029 -0.5443
 4457TIP3    H237567   6.368   1.772  17.464 -0.6347  1.6512  2.1940
 4458TIP3   OH237568   5.342   5.314  17.488 -0.2134 -0.5161  0.1488
 4458TIP3    H137569   5.333   5.356  17.574  0.8218 -1.2021  0.6223
 4458TIP3    H237570   5.253   5.312  17.453 -0.5866  0.1955  1.0036
 4459TIP3   OH237571   5.717   3.039  17.997 -0.0458  0.4342 -0.0719
 4459TIP3    H137572   5.640   2.990  18.023  0.3943 -1.0209 -1.3694
 4459TIP3    H237573   5.730   3.018  17.904  2.5820 -0.3536  0.3843
 4460TIP3   OH237574   4.691   2.701  18.258 -0.5155  0.5823 -0.2965
 4460TIP3    H137575   4.784   2.694  18.281 -0.3166 -1.3904 -1.4424
 4460TIP3    H237576   4.684   2.785  18.211  1.0735 -0.0099 -1.6985
 4461TIP3   OH237577   4.946   4.158  17.221  0.2443  0.7005 -0.1896
 4461TIP3    H137578   4.971   4.239  17.265 -0.7708  1.1060 -0.3220
 4461TIP3    H237579   4.903   4.186  17.141  0.8432 -0.0054 -0.7808
 4462TIP3   OH237580   1.235   3.542  18.644  0.1525 -0.1857 -0.3029
 4462TIP3    H137581   1.299   3.471  18.637 -0.1961 -0.6083  0.6329
 4462TIP3    H237582   1.170   3.509  18.706  0.4189  1.2630  0.7994
 4463TIP3   OH237583   2.220   3.687  19.257  0.2448 -0.0990  0.1920
 4463TIP3    H137584   2.299   3.655  19.214  0.4756 -2.5689  2.2169
 4463TIP3    H237585   2.191   3.614  19.312 -1.6557  1.8349  1.9561
 4464TIP3   OH237586   0.420   7.559  17.406 -0.6316 -0.1333 -0.5131
 4464TIP3    H137587   0.482   7.530  17.338 -0.2712  1.1482 -0.7491
 4464TIP3    H237588   0.337   7.569  17.360 -0.3944  0.7059 -0.7664
 4465TIP3   OH237589   6.025   4.010  16.591 -0.2016 -0.3187 -0.0453
 4465TIP3    H137590   6.018   4.084  16.651  0.2363  0.6627 -1.1702
 4465TIP3    H237591   6.067   4.046  16.513  1.1715 -2.0256 -0.1554
 4466TIP3   OH237592   1.111   5.825  17.759  0.4453 -0.3808  0.7375
 4466TIP3    H137593   1.138   5.865  17.676  0.5442  1.3078  1.5513
 4466TIP3    H237594   1.110   5.897  17.822 -1.0995 -1.3376  1.8892
 4467TIP3   OH237595   6.419   5.345  18.505  0.7187 -0.2324 -0.7660
 4467TIP3    H137596   6.333   5.314  18.479  0.4841  0.6371 -1.0606
 4467TIP3    H237597   6.435   5.422  18.450  1.5415 -0.1880 -0.4887
 4468TIP3   OH237598   7.589   2.857  18.120  0.3193 -0.0780 -0.2852
 4468TIP3    H137599   7.570   2.794  18.190 -0.4355  0.5813  0.1088
 4468TIP3    H237600   7.659   2.815  18.069 -1.3691 -2.0550 -1.1042
 4469TIP3   OH237601   1.713   6.589  18.471 -0.3511 -0.0450  0.2190
 4469TIP3    H137602   1.786   6.610  18.529 -0.0854  0.8027 -0.3942
 4469TIP3    H237603   1.752   6.539  18.399 -0.1679  1.1885 -0.5847
 4470TIP3   OH237604   0.447   5.555  17.431 -1.0190  0.0399  0.1327
 4470TIP3    H137605   0.472   5.486  17.370 -0.2292 -0.6338  1.1896
 4470TIP3    H237606   0.455   5.636  17.380  0.2233 -0.4503 -0.4925
 4471TIP3   OH237607   0.523   2.470  19.487  0.0629  0.2582  0.2067
 4471TIP3    H137608   0.459   2.416  19.441 -0.5956  1.7221 -0.6630
 4471TIP3    H237609   0.567   2.409  19.546  0.2246 -1.4815 -1.6045
 4472TIP3   OH237610   7.501   2.835  19.301  0.2960  0.3608 -0.2270
 4472TIP3    H137611   7.511   2.793  19.215  0.0754 -0.3873  0.1034
 4472TIP3    H237612   7.419   2.800  19.335  0.3792  0.6623  0.2903
 4473TIP3   OH237613   1.347   2.753  18.070  0.5042 -0.1790 -0.0385
 4473TIP3    H137614   1.268   2.761  18.122  1.5803  0.8826  1.5245
 4473TIP3    H237615   1.342   2.825  18.007  0.3148 -0.0001  0.1833
 4474TIP3   OH237616   4.590   1.223  18.462  0.4209  0.1795 -0.2628
 4474TIP3    H137617   4.527   1.206  18.392 -0.9050  0.3644  0.8431
 4474TIP3    H237618   4.570   1.157  18.529 -0.4103  1.9023  1.2516
 4475TIP3   OH237619   1.700   5.737  19.522 -0.2516 -0.1194 -0.3761
 4475TIP3    H137620   1.743   5.655  19.546 -2.2370 -1.5207 -1.3068
 4475TIP3    H237621   1.759   5.777  19.458 -0.6449 -2.4118 -2.3157
 4476TIP3   OH237622   5.034   1.151  18.782  0.4468 -0.8317 -0.0465
 4476TIP3    H137623   5.105   1.123  18.841 -1.0590 -2.3629  1.1699
 4476TIP3    H237624   4.954   1.130  18.831 -0.8557  0.0837 -1.7032
 4477TIP3   OH237625   6.083   0.622  19.689 -0.3170 -0.2759 -0.0250
 4477TIP3    H137626   6.102   0.700  19.638 -0.5961  0.9899  1.7187
 4477TIP3    H237627   6.168   0.579  19.700 -0.0526  0.1423 -0.4158
 4478TIP3   OH237628   0.879   2.527  18.130  0.0434 -0.1125 -0.5332
 4478TIP3    H137629   0.824   2.463  18.085  2.2303 -1.4544 -1.4990
 4478TIP3    H237630   0.913   2.583  18.060  0.2625  0.4006 -0.0256
 4479TIP3   OH237631   0.046   6.549  19.726  0.6313 -0.4557  0.1810
 4479TIP3    H137632  -0.005   6.545  19.644  1.1908  0.4563 -0.2318
 4479TIP3    H237633   0.113   6.482  19.716 -0.5258 -1.7673  0.7888
 4480TIP3   OH237634   1.833   4.300  18.758  0.1629  0.0872  0.0803
 4480TIP3    H137635   1.806   4.232  18.696 -1.0357  1.9466 -1.5313
 4480TIP3    H237636   1.847   4.378  18.704  0.7192  1.3489  1.9535
 4481TIP3   OH237637   5.043   2.695  17.239  0.3154 -0.0504 -0.1179
 4481TIP3    H137638   4.982   2.674  17.168 -0.1051 -0.1977  0.2847
 4481TIP3    H237639   5.108   2.625  17.236  0.0155 -0.3357 -0.0410
 4482TIP3   OH237640   2.393   2.146  18.351  0.2371 -0.0324 -0.1050
 4482TIP3    H137641   2.480   2.144  18.312 -0.2849 -0.4368 -1.3168
 4482TIP3    H237642   2.334   2.149  18.276 -0.9083 -3.2666  0.5139
 4483TIP3   OH237643   6.272   0.383  18.004 -0.3085 -0.0095 -0.6422
 4483TIP3    H137644   6.331   0.429  17.945  0.2064  0.2954  0.0942
 4483TIP3    H237645   6.260   0.442  18.078  0.8653 -1.2726  0.6121
 4484TIP3   OH237646   6.083   5.356  19.526 -0.4213  0.1545 -0.0763
 4484TIP3    H137647   6.039   5.437  19.502 -0.0063  0.9177  1.6064
 4484TIP3    H237648   6.064   5.344  19.619  0.3293 -1.1676 -0.0598
 4485TIP3   OH237649   7.289   5.089  19.183 -0.4937 -0.2305  0.3875
 4485TIP3    H137650   7.379   5.085  19.215 -0.8770  1.3492  1.7817
 4485TIP3    H237651   7.235   5.092  19.262 -1.6681  0.6696 -0.4017
 4486TIP3   OH237652   3.752   0.017  19.006  0.4413  0.4310  0.8563
 4486TIP3    H137653   3.729   0.058  18.922  3.1050 -1.1477 -0.7919
 4486TIP3    H237654   3.678   0.037  19.063 -0.7464  3.0107 -1.3407
 4487TIP3   OH237655   3.095   0.710  18.477 -0.4912  0.3007 -0.1323
 4487TIP3    H137656   3.147   0.644  18.431  0.3509  1.1567 -0.4567
 4487TIP3    H237657   3.146   0.731  18.555  0.7443  2.5799 -1.4222
 4488TIP3   OH237658   5.886   7.363  18.817  0.2416 -0.0933  0.3877
 4488TIP3    H137659   5.926   7.444  18.849  0.2417 -0.0577  0.2977
 4488TIP3    H237660   5.792   7.384  18.812  0.1340 -0.3474  1.1264
 4489TIP3   OH237661   6.375   0.905  17.667 -0.3410 -0.0872  0.0782
 4489TIP3    H137662   6.428   0.981  17.692 -1.5362  0.6477  0.4925
 4489TIP3    H237663   6.408   0.833  17.720  0.7327  0.1683 -0.2270
 4490TIP3   OH237664   0.015   2.961  19.456  0.3930 -0.2913  0.0689
 4490TIP3    H137665  -0.026   3.023  19.516  0.7078  0.0573 -0.0743
 4490TIP3    H237666  -0.058   2.926  19.405  0.1431 -0.4688  0.5368
 4491TIP3   OH237667   1.450   2.564  18.578  0.2447 -0.1089  0.1827
 4491TIP3    H137668   1.388   2.505  18.621  0.7778 -0.7317  0.1124
 4491TIP3    H237669   1.415   2.651  18.594 -1.4016 -0.4929 -1.0392
 4492TIP3   OH237670   3.048   1.696  18.842 -0.4695  0.5799 -0.4641
 4492TIP3    H137671   3.001   1.751  18.904  0.7917  0.0486  1.0447
 4492TIP3    H237672   2.989   1.622  18.826 -0.5812  0.4210  0.6077
 4493TIP3   OH237673   0.620   1.713  16.949  0.2707  0.1706 -0.4513
 4493TIP3    H137674   0.533   1.674  16.945  0.4386 -0.1330 -1.8544
 4493TIP3    H237675   0.680   1.640  16.939  0.6906  0.3909  0.4001
 4494TIP3   OH237676   3.837   1.118  18.784  0.2706 -0.0680 -0.0293
 4494TIP3    H137677   3.804   1.139  18.697  0.2187 -1.1749 -0.2908
 4494TIP3    H237678   3.761   1.127  18.841  0.1870  0.1717 -0.1783
 4495TIP3   OH237679   4.789   5.332  18.006  0.3721  0.9228 -0.1325
 4495TIP3    H137680   4.793   5.295  17.917  0.0662 -0.8468  0.5402
 4495TIP3    H237681   4.699   5.364  18.014  0.4740  1.3186 -0.5471
 4496TIP3   OH237682   6.094   7.510  18.048 -0.2831 -0.4450  0.4005
 4496TIP3    H137683   6.137   7.594  18.064  0.8800 -0.5422 -1.8223
 4496TIP3    H237684   6.007   7.520  18.087  0.5661  0.9668  2.0978
 4497TIP3   OH237685   4.236   1.376  18.051 -0.2279 -0.0143 -0.2779
 4497TIP3    H137686   4.219   1.418  18.135  2.5927 -0.1288  0.4245
 4497TIP3    H237687   4.246   1.449  17.990  0.4844  0.1850  0.0706
 4498TIP3   OH237688   3.570   5.708  19.139 -0.1064  0.2869  0.1419
 4498TIP3    H137689   3.588   5.620  19.172  0.5273  0.1826 -0.4740
 4498TIP3    H237690   3.649   5.734  19.092  0.2872  1.7624  1.5000
 4499TIP3   OH237691   2.647   2.701  18.312 -0.1096  0.0909  0.2044
 4499TIP3    H137692   2.665   2.665  18.225  0.3267 -1.6603  0.9752
 4499TIP3    H237693   2.720   2.761  18.328  0.0863  0.0303 -0.4238
 4500TIP3   OH237694   1.826   4.556  16.874 -0.5293  0.1929  0.2903
 4500TIP3    H137695   1.738   4.542  16.837 -0.5570 -0.4830  0.5986
 4500TIP3    H237696   1.819   4.526  16.965 -0.3574  1.4842  0.7435
 4501TIP3   OH237697   5.869   1.519  18.740  0.4529 -0.4605  0.7295
 4501TIP3    H137698   5.801   1.537  18.805 -0.3356 -0.6922 -0.0193
 4501TIP3    H237699   5.867   1.424  18.729  0.0125 -0.3429 -0.2430
 4502TIP3   OH237700   7.524   6.751  18.687  0.5653 -0.3369  0.4265
 4502TIP3    H137701   7.578   6.776  18.761  1.0477 -1.6513  0.5473
 4502TIP3    H237702   7.517   6.655  18.693  1.3170 -0.5793 -1.6746
 4503TIP3   OH237703   2.886   2.699  17.535  0.4271  0.0130 -0.4831
 4503TIP3    H137704   2.904   2.624  17.592  2.1795 -0.2408 -1.2915
 4503TIP3    H237705   2.830   2.664  17.466  0.3485 -0.2894 -0.2700
 4504TIP3   OH237706   0.131   4.871  16.623  0.0425 -0.0478  0.7351
 4504TIP3    H137707   0.098   4.945  16.571 -0.9984 -0.4117  0.8565
 4504TIP3    H237708   0.225   4.872  16.609 -0.0037  1.0657  0.4131
 4505TIP3   OH237709   7.462   0.201  17.591  0.1170 -0.1677  0.1678
 4505TIP3    H137710   7.432   0.158  17.671  0.5406 -0.7519  0.0159
 4505TIP3    H237711   7.450   0.295  17.608 -4.2151 -0.3277 -0.8193
 4506TIP3   OH237712   6.963   3.575  17.296 -0.6204 -0.0730 -0.7122
 4506TIP3    H137713   6.950   3.654  17.243  0.2786 -0.7695 -2.0161
 4506TIP3    H237714   6.937   3.503  17.239 -0.0688 -0.8160 -0.0461
 4507TIP3   OH237715   0.503   0.144  18.606 -0.3151  0.2125  0.0345
 4507TIP3    H137716   0.554   0.066  18.587 -0.4865  0.1636 -0.2344
 4507TIP3    H237717   0.430   0.112  18.660 -0.9300  0.0225 -0.9015
 4508TIP3   OH237718   0.358   2.664  17.205 -0.2654  0.5586 -0.4927
 4508TIP3    H137719   0.391   2.726  17.270 -1.5229  0.7845 -0.0398
 4508TIP3    H237720   0.263   2.672  17.210 -0.5868 -2.6615  0.8306
 4509TIP3   OH237721   3.592   3.531  19.186 -0.1045  0.2799  0.2724
 4509TIP3    H137722   3.555   3.449  19.218  2.3044 -1.3284 -0.7737
 4509TIP3    H237723   3.535   3.557  19.114  0.3767 -1.8186 -0.9452
 4510TIP3   OH237724   6.327   0.667  18.994  0.0931 -0.0519  0.0603
 4510TIP3    H137725   6.267   0.740  18.980  2.2216  1.9394  0.5350
 4510TIP3    H237726   6.336   0.660  19.089  0.6250 -0.2884 -0.0018
 4511TIP3   OH237727   3.116   6.695  18.489  0.9525  0.7517  0.0275
 4511TIP3    H137728   3.120   6.661  18.579 -0.3742  0.6586  0.0618
 4511TIP3    H237729   3.044   6.758  18.490  1.0343  0.8754 -0.9362
 4512TIP3   OH237730   0.107   4.410  16.889 -0.0110  0.0105  0.5289
 4512TIP3    H137731   0.054   4.461  16.828  0.4275 -0.4732 -0.2803
 4512TIP3    H237732   0.073   4.320  16.881  2.6182 -0.8890 -2.0601
 4513TIP3   OH237733   2.246   3.337  17.558  0.0335 -0.0580  0.1065
 4513TIP3    H137734   2.275   3.273  17.623  0.6166 -1.0980 -1.1416
 4513TIP3    H237735   2.319   3.345  17.498 -1.2276 -0.6958 -1.5873
 4514TIP3   OH237736   3.433   6.154  17.513 -0.1577 -0.5099 -0.7392
 4514TIP3    H137737   3.374   6.176  17.440 -1.5600 -1.3748  0.0741
 4514TIP3    H237738   3.389   6.082  17.558  1.5613 -1.1985 -0.0761
 4515TIP3   OH237739   6.380   6.107  19.285  0.1802  0.4120  0.0466
 4515TIP3    H137740   6.306   6.135  19.231 -0.6026  1.2659  1.4996
 4515TIP3    H237741   6.349   6.029  19.329 -0.3288  1.4281  1.5560
 4516TIP3   OH237742   6.950   7.272  19.375 -0.5262 -0.0167  0.5204
 4516TIP3    H137743   6.885   7.215  19.335  0.5762 -0.0153 -1.3848
 4516TIP3    H237744   6.910   7.359  19.372 -1.0829 -0.2561  0.8703
 4517TIP3   OH237745   6.201   5.674  18.981 -0.0827 -0.5062 -0.1948
 4517TIP3    H137746   6.208   5.587  18.940  1.4925 -0.3632 -0.2969
 4517TIP3    H237747   6.278   5.680  19.037  0.0615  0.9900 -0.5162
 4518TIP3   OH237748   1.858   6.294  18.502 -0.1614  0.4012  0.1030
 4518TIP3    H137749   1.942   6.250  18.488  0.6881  1.8063  0.5737
 4518TIP3    H237750   1.829   6.317  18.414  0.1486  0.2645 -0.0408
 4519TIP3   OH237751   6.476   4.620  18.912  0.8356  0.4293 -0.2608
 4519TIP3    H137752   6.409   4.676  18.873 -0.3540  0.0656  1.1623
 4519TIP3    H237753   6.515   4.673  18.981  0.7435  0.0320  0.1047
 4520TIP3   OH237754   0.450   5.752  18.721 -0.2939 -0.5956  0.6108
 4520TIP3    H137755   0.404   5.701  18.654  1.4648  0.8971 -1.9079
 4520TIP3    H237756   0.404   5.835  18.724  0.1418 -0.3494  0.6168
 4521TIP3   OH237757   6.440   3.656  16.809 -0.3115  0.2505  0.0021
 4521TIP3    H137758   6.519   3.657  16.755 -0.7009  0.8436 -0.5661
 4521TIP3    H237759   6.436   3.566  16.843 -0.9723 -0.6699 -2.3223
 4522TIP3   OH237760   5.655   2.968  17.052  1.0090  0.6523  0.4560
 4522TIP3    H137761   5.686   3.004  17.135  1.3694  0.6113  0.3425
 4522TIP3    H237762   5.659   2.873  17.064  3.7567  0.5519 -0.5440
 4523TIP3   OH237763   4.933   7.231  17.800 -0.0694  0.4734 -0.3403
 4523TIP3    H137764   4.938   7.154  17.857 -0.0504  0.3932 -0.4517
 4523TIP3    H237765   5.015   7.230  17.751 -0.5101 -0.0087 -1.0876
 4524TIP3   OH237766   6.685   5.989  19.057 -0.1096 -0.0480 -0.1900
 4524TIP3    H137767   6.649   6.036  18.982  1.5650  0.3945 -0.7638
 4524TIP3    H237768   6.775   6.021  19.064 -0.2695  0.0725  2.1294
 4525TIP3   OH237769   3.057   2.104  18.756  0.3173 -0.1397 -0.2995
 4525TIP3    H137770   3.015   2.186  18.782  0.4200 -0.5404  1.2405
 4525TIP3    H237771   3.144   2.108  18.795  0.2459 -1.0628 -0.0178
 4526TIP3   OH237772   4.299   7.644  17.378  0.2663 -0.4516  0.1360
 4526TIP3    H137773   4.220   7.698  17.373 -0.0268 -0.7958  0.8293
 4526TIP3    H237774   4.339   7.668  17.462  1.4858  0.4937 -0.6821
 4527TIP3   OH237775   5.926   4.106  18.972  0.0389  0.0986  0.4725
 4527TIP3    H137776   5.985   4.177  18.996  0.7770 -0.9094  1.8303
 4527TIP3    H237777   5.847   4.122  19.025  0.5981 -0.6044  1.5688
 4528TIP3   OH237778   6.325   3.914  18.152  0.6299 -0.3552  0.0313
 4528TIP3    H137779   6.248   3.894  18.099  2.7817 -0.9534 -3.1419
 4528TIP3    H237780   6.320   3.853  18.225 -1.4598 -0.9046 -0.5062
 4529TIP3   OH237781   0.067   2.668  17.985 -0.1012  0.3176 -0.1986
 4529TIP3    H137782   0.022   2.693  17.905 -0.3988  1.2836  0.2630
 4529TIP3    H237783   0.027   2.584  18.010  0.1126 -0.0720 -1.1376
 4530TIP3   OH237784   6.458   1.144  19.931  0.1585  0.6423  0.0043
 4530TIP3    H137785   6.393   1.150  20.001  0.4632  2.2177  0.1932
 4530TIP3    H237786   6.414   1.180  19.854  0.6831  1.4069  0.0512
 4531TIP3   OH237787   7.004   2.140  19.385 -0.0212 -0.6360  0.7400
 4531TIP3    H137788   6.916   2.150  19.422 -0.8558 -0.8248 -1.1156
 4531TIP3    H237789   6.999   2.062  19.331  0.9593  0.0193 -0.3313
 4532TIP3   OH237790   3.613   5.758  18.390  0.3234  0.6189 -0.3634
 4532TIP3    H137791   3.542   5.736  18.450  0.5142  1.1302  0.0661
 4532TIP3    H237792   3.691   5.763  18.446  0.9286 -1.0281 -0.9877
 4533TIP3   OH237793   1.818   0.542  18.874 -0.2885 -0.0751  0.4041
 4533TIP3    H137794   1.830   0.604  18.946  1.5805 -1.9379  1.8413
 4533TIP3    H237795   1.782   0.464  18.916  2.6642 -1.9260 -0.1698
 4534TIP3   OH237796   5.404   6.580  18.861 -0.5331  0.0142 -0.6025
 4534TIP3    H137797   5.485   6.624  18.886 -0.1777 -0.2410 -1.2838
 4534TIP3    H237798   5.335   6.639  18.889 -0.0958  0.4394 -0.4100
 4535TIP3   OH237799   7.345   3.120  19.354  0.0152 -0.0846 -0.2311
 4535TIP3    H137800   7.289   3.043  19.367  1.1756 -0.7803  0.9352
 4535TIP3    H237801   7.341   3.136  19.260  0.1808 -1.9417 -0.6001
 4536TIP3   OH237802   6.123   6.386  17.339  0.0784  0.1623  0.0222
 4536TIP3    H137803   6.109   6.478  17.318  3.3679  1.1478  1.4983
 4536TIP3    H237804   6.076   6.338  17.271 -2.6692  2.8276 -0.1895
 4537TIP3   OH237805   4.331   7.188  17.701  0.2666  0.4592 -0.4885
 4537TIP3    H137806   4.421   7.181  17.734  0.0248  0.6383  0.2322
 4537TIP3    H237807   4.324   7.279  17.671  0.7045  0.1080 -1.7243
 4538TIP3   OH237808   2.109   7.055  17.478  0.1425 -0.5361 -0.2852
 4538TIP3    H137809   2.050   7.072  17.405 -0.1716 -0.1405  0.0546
 4538TIP3    H237810   2.176   7.123  17.471 -1.8379  1.8660  1.8482
 4539TIP3   OH237811   1.946   3.410  16.883 -0.5252 -0.9479  0.7707
 4539TIP3    H137812   1.924   3.504  16.881 -1.7023 -1.2078  0.9122
 4539TIP3    H237813   2.038   3.407  16.855 -1.3385 -0.0274 -2.4933
 4540TIP3   OH237814   4.639   2.514  18.576 -0.0056 -0.0637 -0.0841
 4540TIP3    H137815   4.586   2.443  18.613 -2.6872  1.0723 -1.4671
 4540TIP3    H237816   4.696   2.470  18.512 -1.4535 -1.0548 -0.7557
 4541TIP3   OH237817   4.197   6.760  19.579  0.2530 -0.1286 -0.3035
 4541TIP3    H137818   4.155   6.792  19.499 -0.6327 -0.8742 -0.1548
 4541TIP3    H237819   4.171   6.668  19.585  1.5495 -0.4874  0.0510
 4542TIP3   OH237820   5.087   3.407  17.470  0.0840 -0.3809  0.5741
 4542TIP3    H137821   5.040   3.424  17.388 -0.2371 -0.9326  0.6436
 4542TIP3    H237822   5.174   3.380  17.442  0.2788  0.3441  0.4425
 4543TIP3   OH237823   1.810   5.940  18.573  0.6513  0.0552  0.0337
 4543TIP3    H137824   1.817   5.909  18.663 -1.8371  1.6418  0.8895
 4543TIP3    H237825   1.868   6.016  18.569  0.0842  0.5259  0.5959
 4544TIP3   OH237826   3.152   5.969  19.131 -0.4475  0.1558 -0.0886
 4544TIP3    H137827   3.135   6.041  19.069 -0.9372 -0.9088 -1.2425
 4544TIP3    H237828   3.225   5.921  19.092 -0.2138 -0.0548  0.5995
 4545TIP3   OH237829   5.453   7.014  17.468 -0.5666 -0.3397 -0.5983
 4545TIP3    H137830   5.445   6.955  17.393  0.7001 -0.1592 -0.9011
 4545TIP3    H237831   5.433   7.101  17.432 -1.4565 -0.4388 -0.3716
 4546TIP3   OH237832   4.330   0.388  16.690  0.9708  0.0607  0.8726
 4546TIP3    H137833   4.376   0.456  16.641  1.1680  0.5656  1.7231
 4546TIP3    H237834   4.363   0.397  16.780  0.1642 -0.4137  1.2318
 4547TIP3   OH237835   5.307   7.345  17.892  0.0364  0.6355  0.1997
 4547TIP3    H137836   5.292   7.430  17.933  2.2875  2.7655 -2.9211
 4547TIP3    H237837   5.247   7.342  17.818  1.2651  0.4535 -0.8387
 4548TIP3   OH237838   5.973   7.226  19.418 -0.1365 -0.0755 -0.3206
 4548TIP3    H137839   5.890   7.255  19.381 -0.0226 -1.4209 -1.7032
 4548TIP3    H237840   6.016   7.178  19.348  1.8391  0.5864  0.3555
 4549TIP3   OH237841   1.546   4.256  18.380  0.7278  0.5400  0.0042
 4549TIP3    H137842   1.626   4.300  18.410  1.1744 -0.3547  0.1485
 4549TIP3    H237843   1.535   4.182  18.440  0.2272  0.1919 -0.5055
 4550TIP3   OH237844   2.103   3.716  19.581 -0.6928 -0.6829 -0.1816
 4550TIP3    H137845   2.031   3.736  19.521 -1.5685 -1.2849  0.6390
 4550TIP3    H237846   2.116   3.797  19.631  0.3156 -0.0422 -1.4128
 4551TIP3   OH237847   2.464   2.472  18.509  0.1302 -0.1193 -0.2165
 4551TIP3    H137848   2.514   2.394  18.534 -1.1132 -0.4944  1.2692
 4551TIP3    H237849   2.505   2.543  18.560  0.7572  0.0636 -0.9635
 4552TIP3   OH237850   5.758   2.015  17.486 -0.0075 -0.5376 -0.4552
 4552TIP3    H137851   5.815   1.983  17.416 -0.2413 -0.0987 -0.8500
 4552TIP3    H237852   5.753   1.942  17.548  0.1967 -0.9300 -0.8947
 4553TIP3   OH237853   3.069   3.027  18.756 -0.3787 -0.1631  0.0170
 4553TIP3    H137854   3.083   3.004  18.848  1.7718 -0.0075 -0.2271
 4553TIP3    H237855   2.990   2.979  18.731 -0.9949 -0.2179  1.9278
 4554TIP3   OH237856   0.438   3.872  18.071  0.1044  0.0049 -0.4738
 4554TIP3    H137857   0.494   3.806  18.029  0.9152  0.3927 -0.0317
 4554TIP3    H237858   0.358   3.824  18.094  0.2562 -0.5706 -1.0852
 4555TIP3   OH237859   0.686   6.446  18.204 -0.2900  0.0749  0.6943
 4555TIP3    H137860   0.603   6.427  18.248  0.5332 -2.7359  1.2434
 4555TIP3    H237861   0.753   6.417  18.266  1.0609  0.7389 -0.4065
 4556TIP3   OH237862   0.853   5.150  17.179  0.8402  0.7883  0.3590
 4556TIP3    H137863   0.908   5.223  17.210 -0.3513  2.0973 -0.4704
 4556TIP3    H237864   0.878   5.138  17.088 -0.3095  1.5253 -0.0855
 4557TIP3   OH237865   4.334   7.212  19.391  0.8556 -0.0928  0.1159
 4557TIP3    H137866   4.424   7.231  19.420  0.3634  1.0950  0.9439
 4557TIP3    H237867   4.327   7.253  19.305  1.0719 -0.1240  0.0820
 4558TIP3   OH237868   2.953   1.837  17.458  0.5708  0.1689 -0.8879
 4558TIP3    H137869   2.896   1.770  17.418  1.4109 -0.2747 -1.3705
 4558TIP3    H237870   3.026   1.846  17.397  0.3993  1.6539 -0.8996
 4559TIP3   OH237871   5.932   5.563  17.934 -0.1437  0.3297  0.2332
 4559TIP3    H137872   5.996   5.538  18.000  1.5688 -0.5213 -1.6263
 4559TIP3    H237873   5.889   5.481  17.909  0.5718  0.3052 -1.0041
 4560TIP3   OH237874   1.703   3.602  18.303  0.4034  0.3798 -0.4306
 4560TIP3    H137875   1.681   3.689  18.270  1.8257  0.6202 -0.8089
 4560TIP3    H237876   1.799   3.597  18.297  0.6001 -0.2197  2.0600
 4561TIP3   OH237877   7.644   7.678  17.543  0.2156 -0.6875  0.2412
 4561TIP3    H137878   7.620   7.644  17.457  1.1233 -1.3898  0.2458
 4561TIP3    H237879   7.592   7.758  17.553 -0.1074 -0.7492 -0.8364
 4562TIP3   OH237880   3.815   3.100  19.429 -0.5405 -0.2134  0.3374
 4562TIP3    H137881   3.756   3.036  19.389 -0.8846 -0.8514  1.7905
 4562TIP3    H237882   3.788   3.184  19.394  0.2981 -0.8722 -2.0906
 4563TIP3   OH237883   1.425   4.515  18.328  0.3594  0.1730  0.1186
 4563TIP3    H137884   1.455   4.424  18.334 -0.5263 -0.2634 -1.5550
 4563TIP3    H237885   1.441   4.540  18.237  1.2120  1.9573  0.6906
 4564TIP3   OH237886   2.726   6.743  18.147 -0.8235 -0.0572  0.4133
 4564TIP3    H137887   2.664   6.809  18.116 -0.1615  1.0283  1.3044
 4564TIP3    H237888   2.674   6.664  18.160 -1.9388  0.7182  0.7682
 4565TIP3   OH237889   4.331   0.172  18.813 -0.0886  0.2495 -0.1737
 4565TIP3    H137890   4.318   0.110  18.885  0.7750 -1.5440 -1.4789
 4565TIP3    H237891   4.347   0.117  18.737  1.6150  2.0994 -1.2450
 4566TIP3   OH237892   4.715   3.625  17.871 -0.0451  0.2103 -0.3602
 4566TIP3    H137893   4.687   3.536  17.892  0.7061 -0.3762 -1.7020
 4566TIP3    H237894   4.786   3.642  17.933 -0.2577 -0.0753 -0.0274
 4567TIP3   OH237895   3.185   0.247  18.822  0.0677 -0.2541 -0.5443
 4567TIP3    H137896   3.207   0.163  18.863 -0.4778  0.0480  0.3923
 4567TIP3    H237897   3.091   0.257  18.836 -0.4833 -0.8574 -3.2465
 4568TIP3   OH237898   7.052   0.466  17.426  1.0489  0.0336  0.1308
 4568TIP3    H137899   6.994   0.470  17.503  1.3536  0.4717  0.3448
 4568TIP3    H237900   7.129   0.516  17.452  0.4005  1.7727 -1.1079
 4569TIP3   OH237901   0.626   6.829  19.459  0.3354 -0.3699 -0.1344
 4569TIP3    H137902   0.554   6.877  19.501 -0.3048  0.1512 -1.7300
 4569TIP3    H237903   0.701   6.889  19.464  0.3157 -0.3795  0.3766
 4570TIP3   OH237904   1.787   4.001  16.888 -0.4037 -0.2078  0.2447
 4570TIP3    H137905   1.809   4.074  16.946  2.1402  0.8976 -1.9129
 4570TIP3    H237906   1.839   3.928  16.919  0.7478  0.3079 -0.4052
 4571TIP3   OH237907   7.276   0.616  17.525  0.3765 -0.0280 -0.4914
 4571TIP3    H137908   7.245   0.689  17.578 -0.0718  0.0895 -0.9093
 4571TIP3    H237909   7.293   0.546  17.588 -1.2816 -0.2872 -0.2934
 4572TIP3   OH237910   4.225   5.830  18.197  0.1539 -0.3188 -0.7015
 4572TIP3    H137911   4.170   5.808  18.122 -0.1489  1.7742 -1.1523
 4572TIP3    H237912   4.273   5.908  18.170 -0.0502  0.5623  1.2940
 4573TIP3   OH237913   7.466   0.073  18.853  0.0475  0.5163  0.5450
 4573TIP3    H137914   7.487   0.061  18.760 -1.1652 -1.5815  0.4683
 4573TIP3    H237915   7.444   0.166  18.861  1.5664  1.0505 -0.9485
 4574TIP3   OH237916   7.010   3.279  17.444 -0.4948  0.5833 -0.9120
 4574TIP3    H137917   7.043   3.344  17.383 -0.4356  2.9931  1.4984
 4574TIP3    H237918   6.914   3.286  17.437 -0.4884  0.6535 -0.9255
 4575TIP3   OH237919   4.547   6.789  18.707 -0.9932  1.3949 -0.0008
 4575TIP3    H137920   4.636   6.804  18.674 -0.1706 -1.5820  0.5614
 4575TIP3    H237921   4.549   6.821  18.797  0.1645 -0.3575  0.6451
 4576TIP3   OH237922   3.069   0.290  19.425 -0.1733 -0.3087 -0.1886
 4576TIP3    H137923   3.164   0.282  19.431 -0.0400  0.6544 -0.7244
 4576TIP3    H237924   3.038   0.202  19.406  0.5531 -0.7475  0.5768
 4577TIP3   OH237925   2.321   4.754  18.475 -0.4135  0.2526 -0.2632
 4577TIP3    H137926   2.385   4.718  18.536 -0.4522 -1.9619 -1.4302
 4577TIP3    H237927   2.373   4.789  18.402 -0.4609  0.4623 -0.1974
 4578TIP3   OH237928   5.726   6.321  16.936 -0.1415 -0.2902  0.1506
 4578TIP3    H137929   5.818   6.310  16.911 -1.0130 -1.7956 -2.7877
 4578TIP3    H237930   5.699   6.235  16.966 -1.0906 -0.3710 -0.9062
 4579TIP3   OH237931   7.054   5.733  17.323 -0.1421  0.0417 -0.4074
 4579TIP3    H137932   6.969   5.689  17.323  0.2438 -0.7188 -0.6980
 4579TIP3    H237933   7.045   5.802  17.258 -0.5864  0.0604 -0.3311
 4580TIP3   OH237934   6.667   1.084  17.314 -0.2295 -0.2316 -0.2809
 4580TIP3    H137935   6.701   1.057  17.400 -2.0504 -0.8222  0.3041
 4580TIP3    H237936   6.595   1.024  17.298 -1.1986  1.1608 -1.3114
 4581TIP3   OH237937   0.967   1.838  17.888  0.1963  0.3673 -0.2198
 4581TIP3    H137938   1.050   1.852  17.933  1.0312  3.1875 -2.3389
 4581TIP3    H237939   0.900   1.865  17.952  0.9496 -0.4852  0.9772
 4582TIP3   OH237940   4.975   3.206  16.908  0.0809 -0.5143  0.4179
 4582TIP3    H137941   4.917   3.158  16.967 -3.5632 -0.9209 -3.0716
 4582TIP3    H237942   5.029   3.139  16.868  0.7078 -0.5668  1.3208
 4583TIP3   OH237943   1.395   0.967  17.254  0.2157 -0.0305 -0.1136
 4583TIP3    H137944   1.302   0.943  17.256  0.0666  0.3114 -1.6474
 4583TIP3    H237945   1.441   0.883  17.260 -0.2667 -0.5382 -2.4077
 4584TIP3   OH237946   0.360   2.748  18.556  0.2243  0.2833  0.0140
 4584TIP3    H137947   0.406   2.720  18.477  0.4183 -0.2217  0.3011
 4584TIP3    H237948   0.414   2.820  18.590 -1.1177  2.1694 -1.5855
 4585TIP3   OH237949   2.880   3.642  17.738  0.3501  0.3679 -0.0590
 4585TIP3    H137950   2.904   3.720  17.689  0.3375  1.0628  1.0280
 4585TIP3    H237951   2.935   3.644  17.816  0.2357 -0.6241  0.0596
 4586TIP3   OH237952   7.562   5.306  17.531  0.3496 -0.3644 -0.3413
 4586TIP3    H137953   7.504   5.333  17.603  1.1588  0.0430  0.1671
 4586TIP3    H237954   7.504   5.261  17.470 -0.8797  1.6854 -0.7675
 4587TIP3   OH237955   2.489   2.846  17.753  0.0996  0.2248 -0.2054
 4587TIP3    H137956   2.444   2.847  17.838  0.1447  1.9794 -0.1607
 4587TIP3    H237957   2.474   2.758  17.719  1.2811 -0.9957  2.2275
 4588TIP3   OH237958   7.319   0.792  19.472  0.0793  0.3902 -0.4285
 4588TIP3    H137959   7.297   0.874  19.516  1.5718 -0.1456  1.4608
 4588TIP3    H237960   7.284   0.724  19.529  2.3740 -0.3467  0.2079
 4589TIP3   OH237961   4.943   4.633  17.449  0.1679 -0.4416 -0.2964
 4589TIP3    H137962   4.862   4.586  17.431 -0.0010 -0.3428  0.1785
 4589TIP3    H237963   5.001   4.611  17.376 -0.9426  1.0249 -1.7243
 4590TIP3   OH237964   2.895   6.188  19.343  0.5016 -0.1646  0.0853
 4590TIP3    H137965   2.884   6.099  19.310 -0.1370  0.2947 -1.0271
 4590TIP3    H237966   2.989   6.198  19.357  0.8969 -0.2442 -2.1567
 4591TIP3   OH237967   5.404   4.570  17.848  0.1546 -0.1336 -0.3420
 4591TIP3    H137968   5.327   4.605  17.803  0.2185  0.9980  0.3839
 4591TIP3    H237969   5.390   4.476  17.850 -1.0148  0.0208 -0.5982
 4592TIP3   OH237970   1.642   7.613  18.230 -0.0646 -0.6048 -0.0027
 4592TIP3    H137971   1.695   7.542  18.194 -1.8864 -1.4330 -1.1783
 4592TIP3    H237972   1.706   7.674  18.267  1.6166 -2.1808 -0.1883
 4593TIP3   OH237973   6.118   4.544  17.339 -0.3015  0.6234 -0.3286
 4593TIP3    H137974   6.032   4.554  17.298 -0.3325 -0.6472 -0.5964
 4593TIP3    H237975   6.180   4.576  17.272 -0.4651  0.1492 -0.7075
 4594TIP3   OH237976   1.939   1.153  17.911  0.4025 -0.4574 -1.0691
 4594TIP3    H137977   1.850   1.138  17.880 -0.1623  0.1198  0.1830
 4594TIP3    H237978   1.976   1.065  17.922 -0.1464 -0.7148 -1.2400
 4595TIP3   OH237979   5.801   1.106  18.263 -0.4131 -0.1983 -0.1850
 4595TIP3    H137980   5.808   1.156  18.345  1.9586  1.3283 -1.2099
 4595TIP3    H237981   5.891   1.095  18.234 -1.1943  0.0330 -2.9829
 4596TIP3   OH237982   7.569   2.023  17.135  0.5836 -0.6483  0.3410
 4596TIP3    H137983   7.633   1.964  17.173  0.2594 -0.9254  0.4566
 4596TIP3    H237984   7.485   1.978  17.145  0.2842 -0.0189  0.7580
 4597TIP3   OH237985   6.929   5.178  17.491 -0.0922 -0.2144 -0.1127
 4597TIP3    H137986   6.897   5.109  17.548 -0.4858 -0.8295 -1.0452
 4597TIP3    H237987   6.922   5.141  17.403  2.6869 -0.2221 -0.4316
 4598TIP3   OH237988   4.197   3.229  17.286  0.3500  0.0508 -0.3327
 4598TIP3    H137989   4.182   3.184  17.369  0.5382  0.4745 -0.0667
 4598TIP3    H237990   4.122   3.287  17.276  0.5531  0.3304 -0.2366
 4599TIP3   OH237991   6.100   3.086  17.561  0.7396  0.0520 -0.0433
 4599TIP3    H137992   6.005   3.086  17.556  0.7757 -0.5102 -0.7592
 4599TIP3    H237993   6.129   3.025  17.494  1.5247 -1.5716  1.6646
 4600TIP3   OH237994   2.631   6.044  17.350 -0.3467 -0.5281 -0.0129
 4600TIP3    H137995   2.565   6.061  17.282  1.2376 -0.2395 -1.5347
 4600TIP3    H237996   2.682   6.125  17.354 -0.2742 -0.6248  1.4020
 4601TIP3   OH237997   1.554   3.068  18.584  0.0921  0.2250 -0.1189
 4601TIP3    H137998   1.499   3.129  18.632  0.4420 -0.0928  0.7125
 4601TIP3    H237999   1.507   3.051  18.502 -1.5681 -0.8458  1.0059
 4602TIP3   OH238000   7.545   3.214  18.850  0.2702 -0.2310 -0.5531
 4602TIP3    H138001   7.520   3.272  18.922  0.3605  2.5751 -2.6056
 4602TIP3    H238002   7.561   3.129  18.891 -1.4264  0.7573  2.4335
 4603TIP3   OH238003   7.520   5.554  18.765  0.4321 -0.0809  0.3961
 4603TIP3    H138004   7.467   5.627  18.733  0.3045  0.6691  2.2061
 4603TIP3    H238005   7.570   5.591  18.838  4.0062 -0.5550 -1.5619
 4604TIP3   OH238006   0.382   0.147  18.059  0.5695 -0.0594  0.5624
 4604TIP3    H138007   0.392   0.068  18.005  1.8666 -0.5797  1.4975
 4604TIP3    H238008   0.290   0.147  18.084 -0.0393  0.1093 -1.4756
 4605TIP3   OH238009   2.083   2.608  17.744  0.3079 -0.3935  0.5988
 4605TIP3    H138010   2.169   2.640  17.715  0.9127 -1.3909  1.2511
 4605TIP3    H238011   2.073   2.644  17.832 -0.1400  0.0538  0.3738
 4606TIP3   OH238012   5.253   1.992  18.806  0.1058  0.3687 -0.1851
 4606TIP3    H138013   5.213   2.048  18.873 -1.3990 -1.8185  0.8554
 4606TIP3    H238014   5.180   1.966  18.750  0.8783 -0.1119 -0.9970
 4607TIP3   OH238015   5.859   0.959  19.227 -0.5921  0.8521 -0.0701
 4607TIP3    H138016   5.846   0.890  19.292  2.7391 -0.1740 -0.3145
 4607TIP3    H238017   5.850   0.915  19.143  2.5277  0.3054 -0.2422
 4608TIP3   OH238018   6.659   0.534  17.455 -0.1359  0.1032 -0.2726
 4608TIP3    H138019   6.682   0.465  17.393 -0.3987 -0.2697  0.0326
 4608TIP3    H238020   6.731   0.535  17.518 -0.6771 -0.7222  0.3977
 4609TIP3   OH238021   1.466   3.176  17.544  0.2399  0.6175  0.2736
 4609TIP3    H138022   1.533   3.120  17.505  0.7635  0.3217  1.5576
 4609TIP3    H238023   1.389   3.164  17.488  0.8317 -0.1203 -0.4065
 4610TIP3   OH238024   6.900   2.818  16.600 -0.1603  0.1813  0.8397
 4610TIP3    H138025   6.995   2.804  16.608  0.0903  0.7295 -0.9130
 4610TIP3    H238026   6.891   2.897  16.548 -1.5576 -1.2671 -1.2994
 4611TIP3   OH238027   4.956   5.789  18.728  0.0828  0.0608  0.0644
 4611TIP3    H138028   4.894   5.740  18.783 -0.1609 -0.5890 -0.7723
 4611TIP3    H238029   4.900   5.843  18.671  0.1352 -1.9761 -2.0674
 4612TIP3   OH238030   4.955   3.387  19.413 -0.1102  0.1112  0.4300
 4612TIP3    H138031   4.975   3.376  19.320 -0.3181 -1.5798  0.5521
 4612TIP3    H238032   4.889   3.456  19.416  0.1301  0.3973 -0.6459
 4613TIP3   OH238033   2.187   2.102  19.440  0.1297 -0.6065 -0.2804
 4613TIP3    H138034   2.141   2.186  19.438 -1.9863 -1.6902  0.0029
 4613TIP3    H238035   2.267   2.118  19.391  0.2687  1.8274  0.5791
 4614TIP3   OH238036   6.183   3.030  18.491  0.4579 -0.0467  0.5978
 4614TIP3    H138037   6.179   3.027  18.395 -0.5732  1.7452  0.5459
 4614TIP3    H238038   6.275   3.011  18.511  0.9249  0.5583 -0.8099
 4615TIP3   OH238039   7.148   2.988  18.455 -0.0974 -0.0535 -0.2632
 4615TIP3    H138040   7.149   3.084  18.451  0.7282 -0.0400 -0.0725
 4615TIP3    H238041   7.236   2.963  18.428 -0.2722 -0.7547 -0.1882
 4616TIP3   OH238042   4.237   6.935  17.220  0.8563  0.2623  0.5092
 4616TIP3    H138043   4.181   6.925  17.297 -0.2560  1.8185 -0.0490
 4616TIP3    H238044   4.207   6.867  17.160 -0.6750  1.2547  0.1068
 4617TIP3   OH238045   2.960   2.018  16.857  0.1330 -0.4718  0.2313
 4617TIP3    H138046   2.962   2.113  16.848  0.1411 -0.5759 -1.0971
 4617TIP3    H238047   3.049   1.991  16.836 -0.0399 -0.8190 -0.0619
 4618TIP3   OH238048   1.073   1.509  18.825 -0.2525  0.5828  0.0483
 4618TIP3    H138049   1.149   1.568  18.824  0.5063 -0.2685  2.2549
 4618TIP3    H238050   1.104   1.428  18.786 -0.7654  0.9997 -1.2792
 4619TIP3   OH238051   7.048   2.862  18.670 -0.3994  0.7010  0.5040
 4619TIP3    H138052   7.142   2.843  18.671 -0.5699 -0.2579 -0.0080
 4619TIP3    H238053   7.037   2.924  18.598 -0.2902 -0.0456 -0.1747
 4620TIP3   OH238054   2.184   5.952  17.943 -0.3263  0.5255 -0.3593
 4620TIP3    H138055   2.233   5.874  17.968  0.1712  0.9537  0.0286
 4620TIP3    H238056   2.133   5.925  17.866 -0.5326 -0.3124  0.0570
 4621TIP3   OH238057   0.692   6.248  17.920 -0.2357  0.0189  0.8401
 4621TIP3    H138058   0.662   6.321  17.867 -0.0364 -0.5445 -0.0678
 4621TIP3    H238059   0.708   6.286  18.007  0.7366  1.2334  0.1564
 4622TIP3   OH238060   4.193   4.379  16.860 -0.3163  0.0346 -0.1649
 4622TIP3    H138061   4.252   4.318  16.903  0.7884 -0.2542 -1.9497
 4622TIP3    H238062   4.171   4.337  16.777 -1.3052  1.1034 -0.4799
 4623TIP3   OH238063   3.360   2.904  16.962 -0.4609  0.3248 -0.6389
 4623TIP3    H138064   3.428   2.971  16.959  1.3452 -1.3645  0.3985
 4623TIP3    H238065   3.324   2.910  17.050 -1.4382  0.9710 -1.0695
 4624TIP3   OH238066   6.578   3.465  19.400 -0.0765  0.2070 -0.3109
 4624TIP3    H138067   6.645   3.498  19.341 -0.1715  0.0411 -0.5154
 4624TIP3    H238068   6.524   3.408  19.345  0.0865 -0.2832  0.0324
 4625TIP3   OH238069   0.926   5.185  17.528  0.1128  0.0967 -0.1646
 4625TIP3    H138070   0.967   5.236  17.457 -0.7136 -0.2908 -0.9407
 4625TIP3    H238071   0.838   5.166  17.496 -0.3103 -0.0015  1.0279
 4626TIP3   OH238072   3.146   2.720  18.091 -0.1131  0.6307  0.0696
 4626TIP3    H138073   3.217   2.659  18.112  1.1585  1.8858 -0.4478
 4626TIP3    H238074   3.066   2.671  18.110  0.8804 -0.3920  1.9174
 4627TIP3   OH238075   7.267   2.837  17.047 -0.1054  0.2860  0.4652
 4627TIP3    H138076   7.189   2.824  17.102 -0.0204  0.8791  0.7387
 4627TIP3    H238077   7.298   2.924  17.070  1.2081 -0.3119  1.0693
 4628TIP3   OH238078   3.185   3.594  17.343 -0.1347 -0.2600  0.0337
 4628TIP3    H138079   3.108   3.650  17.346  0.6938  1.2218 -2.6264
 4628TIP3    H238080   3.156   3.514  17.300 -0.4429 -0.1958  0.1237
 4629TIP3   OH238081   4.369   2.517  16.710  0.2482 -0.2595 -0.4291
 4629TIP3    H138082   4.318   2.486  16.635 -1.9961 -0.0858  0.9236
 4629TIP3    H238083   4.381   2.610  16.693  1.4702 -0.5887 -1.4782
 4630TIP3   OH238084   5.251   5.141  16.843 -0.0821 -0.1434  0.4251
 4630TIP3    H138085   5.343   5.153  16.820  0.2704 -0.8959  1.3648
 4630TIP3    H238086   5.250   5.139  16.939 -1.0891 -0.0773  0.4310
 4631TIP3   OH238087   0.939   6.395  19.303  0.0157  0.3625 -0.1252
 4631TIP3    H138088   1.025   6.357  19.285 -0.6679 -1.8947  1.1133
 4631TIP3    H238089   0.935   6.472  19.246  2.3886 -0.1105 -1.0353
 4632TIP3   OH238090   6.382   3.189  17.502 -0.4674  0.2797  0.0217
 4632TIP3    H138091   6.418   3.178  17.590 -1.7854 -0.0716  0.5472
 4632TIP3    H238092   6.292   3.156  17.509  0.0506 -1.8864 -1.9823
 4633TIP3   OH238093   3.123   6.080  17.544 -0.6493  0.0175  1.0142
 4633TIP3    H138094   3.206   6.042  17.573 -0.8976 -2.1567 -0.8850
 4633TIP3    H238095   3.149   6.148  17.481 -0.2393 -1.7003 -0.7751
 4634TIP3   OH238096   4.739   3.481  19.212  0.4139  0.3554  0.3147
 4634TIP3    H138097   4.659   3.431  19.196  0.7180 -0.0492  0.0595
 4634TIP3    H238098   4.709   3.558  19.261 -0.5062  1.4590 -1.8055
 4635TIP3   OH238099   7.628   0.904  18.946 -0.2826 -0.0112 -0.1911
 4635TIP3    H138100   7.635   0.882  19.039 -0.3671 -0.4055 -0.2747
 4635TIP3    H238101   7.672   0.988  18.937 -0.9661  0.4119  0.3538
 4636TIP3   OH238102   6.405   0.411  18.350 -0.4110  0.2398 -0.0813
 4636TIP3    H138103   6.424   0.348  18.420 -0.0361 -0.7377 -1.0348
 4636TIP3    H238104   6.319   0.445  18.371  0.8741  2.2811  2.5382
 4637TIP3   OH238105   6.169   3.492  18.980  0.7087 -0.1263  0.0848
 4637TIP3    H138106   6.078   3.522  18.972  0.7963  0.2277  0.4389
 4637TIP3    H238107   6.161   3.402  19.012  0.4900 -0.0186  0.3324
 4638TIP3   OH238108   0.484   2.121  18.046 -0.3933 -0.1804 -0.4262
 4638TIP3    H138109   0.413   2.181  18.068 -0.8701  0.2172 -2.7535
 4638TIP3    H238110   0.454   2.036  18.077 -0.1766  0.5468  1.9729
 4639TIP3   OH238111   3.839   6.048  17.935 -0.4271  0.2015  0.0042
 4639TIP3    H138112   3.810   6.116  17.997  0.9077 -0.7072  1.7122
 4639TIP3    H238113   3.805   6.078  17.850 -2.3108  1.5183  1.1266
 4640TIP3   OH238114   1.511   4.071  17.672 -0.4630  0.5296 -0.2490
 4640TIP3    H138115   1.417   4.072  17.693 -0.5933  1.7477 -0.8102
 4640TIP3    H238116   1.548   4.140  17.727  0.0688  0.2061 -0.2017
 4641TIP3   OH238117   4.943   4.675  18.100  0.0887 -0.4387  0.1747
 4641TIP3    H138118   4.901   4.743  18.153 -1.0574  0.8717 -2.2575
 4641TIP3    H238119   4.884   4.600  18.106  0.4863 -0.6619  1.5090
 4642TIP3   OH238120   1.937   7.350  19.282 -0.2633  0.2349  0.0029
 4642TIP3    H138121   1.914   7.442  19.267  0.0101  0.2212 -0.5271
 4642TIP3    H238122   1.894   7.302  19.212 -0.5873 -0.0735  0.4051
 4643TIP3   OH238123   7.283   6.454  18.917 -0.3949 -0.3049 -0.6250
 4643TIP3    H138124   7.252   6.544  18.906 -2.7480 -0.9040  0.3011
 4643TIP3    H238125   7.297   6.446  19.012  1.1044 -0.5577 -0.8528
 4644TIP3   OH238126   2.743   2.576  17.322 -0.3227  0.1035 -0.4912
 4644TIP3    H138127   2.721   2.635  17.251  1.5856  1.4351 -0.0310
 4644TIP3    H238128   2.663   2.526  17.337 -0.8715 -0.0261 -3.3424
 4645TIP3   OH238129   3.263   3.607  18.708 -0.2740  0.1573  0.3365
 4645TIP3    H138130   3.265   3.700  18.728  1.0730  1.1645 -3.5786
 4645TIP3    H238131   3.196   3.598  18.640 -1.0360 -1.9635  1.2733
 4646TIP3   OH238132   1.902   1.615  19.362  0.3200  0.5813  0.5902
 4646TIP3    H138133   1.973   1.662  19.406 -1.3402  1.2092  2.7823
 4646TIP3    H238134   1.823   1.642  19.409 -0.9749 -2.8909  0.7096
 4647TIP3   OH238135   4.241   0.397  18.158  0.3658 -0.6367 -0.0797
 4647TIP3    H138136   4.271   0.339  18.228 -1.6967 -0.4455  1.0521
 4647TIP3    H238137   4.264   0.350  18.078 -0.5261 -2.7296  0.7892
 4648TIP3   OH238138   0.409   4.679  18.531 -1.0217  0.1081  0.5540
 4648TIP3    H138139   0.452   4.710  18.452 -1.0530 -1.2796 -0.0242
 4648TIP3    H238140   0.480   4.674  18.596 -0.9712  1.1164  0.5887
 4649TIP3   OH238141   6.451   1.280  18.545  0.3043  0.0450  0.4638
 4649TIP3    H138142   6.545   1.292  18.559  0.1328  1.4818  0.5684
 4649TIP3    H238143   6.442   1.263  18.451  0.7807 -1.7607  0.7060
 4650TIP3   OH238144   5.955   4.473  18.978 -0.4930  0.3109  0.3237
 4650TIP3    H138145   5.874   4.424  18.964 -0.9065  0.1067  2.8184
 4650TIP3    H238146   5.992   4.434  19.057  0.8499  1.9163  0.5393
 4651TIP3   OH238147   2.903   5.491  16.812  0.2484  0.1872 -0.1924
 4651TIP3    H138148   2.946   5.560  16.760  2.4743 -0.1800  1.0417
 4651TIP3    H238149   2.810   5.510  16.804  0.7441  2.9789 -0.4372
 4652TIP3   OH238150   2.128   4.853  17.642  0.5960  0.3127 -0.3108
 4652TIP3    H138151   2.091   4.913  17.577  0.5213  1.3570  0.6673
 4652TIP3    H238152   2.139   4.906  17.721 -0.0010 -1.0954  0.7653
 4653TIP3   OH238153   5.908   1.580  19.577 -0.9242  0.2888  0.2698
 4653TIP3    H138154   5.990   1.537  19.602 -0.5948  1.3414  1.0753
 4653TIP3    H238155   5.842   1.543  19.635 -1.3115 -1.4637 -1.1847
 4654TIP3   OH238156   6.661   4.211  17.920  0.4130 -0.2762 -0.0068
 4654TIP3    H138157   6.663   4.303  17.946  0.8890 -0.7288  1.7021
 4654TIP3    H238158   6.751   4.192  17.893  0.2718 -0.2032 -0.5398
 4655TIP3   OH238159   3.170   2.090  17.867  0.1862  0.0050 -0.0692
 4655TIP3    H138160   3.165   2.017  17.805  1.0239 -0.2867  0.1938
 4655TIP3    H238161   3.183   2.049  17.952 -1.0858  0.4003  0.3367
 4656TIP3   OH238162   6.556   0.855  18.931  0.1561  0.0141  0.0539
 4656TIP3    H138163   6.507   0.773  18.933  1.9546 -1.1067 -0.0218
 4656TIP3    H238164   6.522   0.901  18.853 -0.8049 -0.6716  0.0522
 4657TIP3   OH238165   0.877   2.786  18.596  0.1104  0.1960  0.0027
 4657TIP3    H138166   0.840   2.734  18.525 -1.3473 -1.3681  1.8276
 4657TIP3    H238167   0.802   2.825  18.639  1.0596  2.1951 -0.0413
 4658TIP3   OH238168   4.722   7.394  18.725  0.3396 -0.4024 -0.1104
 4658TIP3    H138169   4.699   7.487  18.714 -1.9529 -0.8162  0.8468
 4658TIP3    H238170   4.766   7.371  18.643  0.1262  1.2880 -0.7437
 4659TIP3   OH238171   4.117   3.898  17.785  0.1145  0.4539  0.5753
 4659TIP3    H138172   4.101   3.899  17.880 -2.2533 -0.4595  0.2596
 4659TIP3    H238173   4.112   3.805  17.762 -0.3535  0.7524 -0.5744
 4660TIP3   OH238174   6.022   5.095  16.845  0.4676  0.2898 -0.1548
 4660TIP3    H138175   6.017   5.135  16.932  1.0876 -0.1480  0.0860
 4660TIP3    H238176   5.993   5.164  16.785  0.3018  0.6813  0.3765
 4661TIP3   OH238177   0.532   4.093  18.962  0.0966  0.1402 -0.0363
 4661TIP3    H138178   0.576   4.067  19.044 -0.2548  0.0905  0.1372
 4661TIP3    H238179   0.538   4.015  18.907  1.2034  0.4845 -0.4363
 4662TIP3   OH238180   4.101   5.954  19.024  0.2328 -0.4941 -0.5656
 4662TIP3    H138181   4.108   6.047  19.001 -1.2140 -0.1206  0.3700
 4662TIP3    H238182   4.053   5.915  18.951  1.9302 -0.7931 -1.5661
 4663TIP3   OH238183   5.619   7.033  16.920  0.1975 -1.2314  0.6066
 4663TIP3    H138184   5.691   7.094  16.931 -0.4831 -0.1920 -0.5006
 4663TIP3    H238185   5.553   7.062  16.983 -1.3802  1.1960 -1.9045
 4664TIP3   OH238186   1.885   1.924  19.432  0.1183 -0.4922 -0.7936
 4664TIP3    H138187   1.880   2.014  19.399 -0.5280  0.0332  0.6436
 4664TIP3    H238188   1.976   1.916  19.462  0.2774 -0.4447 -1.2545
 4665TIP3   OH238189   5.804   0.366  19.031  0.1076  0.4080 -0.1425
 4665TIP3    H138190   5.814   0.274  19.008 -0.1529  0.7418 -1.6624
 4665TIP3    H238191   5.893   0.402  19.024 -0.2519  0.9450 -2.7303
 4666TIP3   OH238192   6.312   4.887  18.512 -0.8137  0.6286 -0.0868
 4666TIP3    H138193   6.399   4.857  18.489 -1.1842 -0.7869  0.2591
 4666TIP3    H238194   6.267   4.809  18.543 -2.8746  0.8900 -2.1575
 4667TIP3   OH238195   0.535   7.663  17.739 -0.6166  0.4922 -0.0272
 4667TIP3    H138196   0.560   7.585  17.788  0.1600  1.1220  0.6082
 4667TIP3    H238197   0.442   7.651  17.720 -0.7171 -0.1766  0.8354
 4668TIP3   OH238198   3.839   3.611  19.103  0.1665 -0.0989  0.4996
 4668TIP3    H138199   3.753   3.586  19.138 -0.2890  1.0880  0.2576
 4668TIP3    H238200   3.881   3.527  19.083 -1.3737 -0.6822 -0.4431
 4669TIP3   OH238201   6.678   2.453  18.613 -0.4679 -0.2784 -0.1201
 4669TIP3    H138202   6.715   2.488  18.531 -2.9020  1.3512 -0.6222
 4669TIP3    H238203   6.698   2.521  18.678  2.1286 -1.9009  0.9560
 4670TIP3   OH238204   0.689   0.743  19.198  0.7342 -0.4047  0.2355
 4670TIP3    H138205   0.647   0.680  19.140 -0.2805 -0.1897  0.7021
 4670TIP3    H238206   0.616   0.780  19.249  1.2438  1.3919 -0.2696
 4671TIP3   OH238207   7.154   1.483  19.258  0.1532 -0.2033 -0.0860
 4671TIP3    H138208   7.153   1.512  19.167  1.5494 -1.5113 -0.5771
 4671TIP3    H238209   7.129   1.390  19.254 -0.8150 -0.0157  1.0035
 4672TIP3   OH238210   4.897   5.877  17.493  0.0559  0.1248  0.3615
 4672TIP3    H138211   4.904   5.853  17.401 -1.6285  0.0158  0.2177
 4672TIP3    H238212   4.945   5.959  17.500  1.0347 -0.3689 -0.3949
 4673TIP3   OH238213   2.953   1.917  19.004  0.3858 -0.0685  0.3342
 4673TIP3    H138214   2.911   1.994  19.044  0.3076 -0.9707  2.0913
 4673TIP3    H238215   3.031   1.903  19.057  0.9720 -0.5650 -0.6566
 4674TIP3   OH238216   1.125   6.306  18.975 -0.3623 -0.3685  0.4062
 4674TIP3    H138217   1.090   6.217  18.979 -0.7445 -0.3138 -1.2267
 4674TIP3    H238218   1.051   6.363  18.995 -0.8419 -0.3262 -1.3450
 4675TIP3   OH238219   1.996   1.475  17.039 -0.4354 -0.1783 -0.2723
 4675TIP3    H138220   2.002   1.401  17.099 -0.9790 -1.7052 -2.0183
 4675TIP3    H238221   1.902   1.483  17.022 -0.4063  1.0952  0.0687
 4676TIP3   OH238222   3.271   4.121  17.494 -0.1601 -0.5884 -0.0566
 4676TIP3    H138223   3.186   4.163  17.483  0.6483  0.8492 -1.2421
 4676TIP3    H238224   3.256   4.053  17.559 -1.8777  0.6167  0.9029
 4677TIP3   OH238225   2.550   4.286  16.950  0.0046  0.6189  0.0185
 4677TIP3    H138226   2.560   4.374  16.986  0.5792  0.9738 -0.9723
 4677TIP3    H238227   2.635   4.245  16.962  0.4924  1.0529 -1.6858
 4678TIP3   OH238228   0.384   2.294  19.323 -0.0932  0.3503  0.0475
 4678TIP3    H138229   0.406   2.311  19.232  2.0489 -0.4578  0.3608
 4678TIP3    H238230   0.418   2.206  19.340  0.5945  0.9193  1.9029
 4679TIP3   OH238231   0.363   6.719  17.499  0.5126  0.5779 -0.1638
 4679TIP3    H138232   0.441   6.685  17.455 -0.0233 -0.9736  0.0129
 4679TIP3    H238233   0.395   6.749  17.584  1.0051  0.4816 -0.3133
 4680TIP3   OH238234   3.717   2.226  17.642  0.4525  0.3588  0.4323
 4680TIP3    H138235   3.664   2.166  17.695  3.0817 -1.5892  1.0500
 4680TIP3    H238236   3.745   2.173  17.568  1.2339  1.4432 -0.0685
 4681TIP3   OH238237   6.193   6.090  19.781 -0.2030  0.0878 -0.0741
 4681TIP3    H138238   6.218   6.114  19.692 -0.2023 -2.1215 -0.7022
 4681TIP3    H238239   6.127   6.155  19.805  0.0766  0.9601 -1.5057
 4682TIP3   OH238240   7.573   1.499  17.186 -0.7350  0.0886 -0.3621
 4682TIP3    H138241   7.605   1.410  17.176  2.7767  1.2038 -0.3547
 4682TIP3    H238242   7.498   1.504  17.127 -1.4041 -2.9821  0.0818
 4683TIP3   OH238243   1.221   4.915  18.942 -0.2986 -0.4841  0.0496
 4683TIP3    H138244   1.247   4.853  18.873  0.9237  0.8477 -0.7291
 4683TIP3    H238245   1.145   4.961  18.905 -1.2152 -1.4855  0.6341
 4684TIP3   OH238246   1.954   1.191  18.169  0.0954  0.1277 -0.4977
 4684TIP3    H138247   1.959   1.167  18.076 -0.5429  1.3837 -0.8813
 4684TIP3    H238248   1.928   1.283  18.168 -2.4501 -0.4811  0.9468
 4685TIP3   OH238249   0.127   5.475  18.007  0.3827  0.2786 -0.3517
 4685TIP3    H138250   0.118   5.435  17.920  1.3614  1.2927 -0.9478
 4685TIP3    H238251   0.138   5.569  17.989  0.7227  0.4886  0.8611
 4686TIP3   OH238252   6.568   6.781  17.538  0.1070  0.5015 -0.1344
 4686TIP3    H138253   6.548   6.709  17.477  1.1233 -0.1863  0.3208
 4686TIP3    H238254   6.504   6.849  17.516  0.6531  0.4252 -2.2280
 4687TIP3   OH238255   1.757   6.830  18.225 -0.2922  0.1293  0.7348
 4687TIP3    H138256   1.727   6.743  18.249 -2.0603  0.3903 -0.3803
 4687TIP3    H238257   1.705   6.854  18.148 -0.0738  2.2938  1.1837
 4688TIP3   OH238258   3.607   3.400  18.293 -0.4044  0.1325  0.1708
 4688TIP3    H138259   3.670   3.337  18.327 -1.8353 -0.8043  1.1636
 4688TIP3    H238260   3.661   3.468  18.252  1.1841 -1.5680 -0.6766
 4689TIP3   OH238261   2.233   7.445  18.516 -0.3280 -0.4237 -0.4677
 4689TIP3    H138262   2.292   7.515  18.486 -1.3803 -0.4621 -2.8715
 4689TIP3    H238263   2.238   7.449  18.611  0.6451  2.0764 -0.5395
 4690TIP3   OH238264   2.620   1.526  18.423 -0.0199 -0.2906 -0.8250
 4690TIP3    H138265   2.667   1.582  18.485 -0.6795 -1.6499  0.9700
 4690TIP3    H238266   2.543   1.576  18.398  0.0422  0.1140 -0.2190
 4691TIP3   OH238267   0.911   2.942  16.567 -0.1812  0.7291  0.5785
 4691TIP3    H138268   0.845   2.996  16.523  1.0474  1.3661 -0.5716
 4691TIP3    H238269   0.977   3.005  16.596  0.0274  0.0869  1.5242
 4692TIP3   OH238270   0.220   1.824  17.907 -0.0324  0.2448 -0.6100
 4692TIP3    H138271   0.131   1.788  17.911  0.1296 -0.1697  2.7375
 4692TIP3    H238272   0.208   1.919  17.908 -0.4583  0.1916 -0.4397
 4693TIP3   OH238273   2.715   7.064  18.768 -0.2344 -0.5786  0.2243
 4693TIP3    H138274   2.754   7.006  18.833 -0.3281 -0.6917  0.1802
 4693TIP3    H238275   2.625   7.033  18.758 -0.9257  0.8086  1.6663
 4694TIP3   OH238276   2.619   1.323  17.739 -0.2122 -0.3555  0.2501
 4694TIP3    H138277   2.651   1.378  17.811 -0.8881  0.3753  0.0081
 4694TIP3    H238278   2.697   1.277  17.708  0.4912  0.8541  0.1259
 4695TIP3   OH238279   0.042   7.485  17.977 -0.0972  0.0589 -0.1219
 4695TIP3    H138280  -0.007   7.403  17.977  0.7676 -0.4678  0.1214
 4695TIP3    H238281   0.047   7.510  18.069  1.3474 -0.6727  0.0254
 4696TIP3   OH238282   6.185   6.412  17.666  0.2581 -0.6900  0.1850
 4696TIP3    H138283   6.206   6.384  17.577  2.6750  0.0431  0.4735
 4696TIP3    H238284   6.175   6.507  17.660 -0.4710 -0.7379  0.5492
 4697TIP3   OH238285   2.544   6.414  19.302 -0.0729  0.1704 -0.1523
 4697TIP3    H138286   2.450   6.405  19.285 -0.2277 -0.4780  0.9465
 4697TIP3    H238287   2.584   6.346  19.248 -0.3437 -0.2869  0.2090
 4698TIP3   OH238288   1.016   7.093  19.373  0.2278 -0.1274 -0.4208
 4698TIP3    H138289   1.097   7.053  19.403 -0.0655 -0.2522  0.2335
 4698TIP3    H238290   1.019   7.183  19.408 -1.1786 -0.9595  2.1031
 4699TIP3   OH238291   2.002   7.553  17.953  0.2831  0.4268 -0.2821
 4699TIP3    H138292   1.957   7.637  17.961  0.0376  0.4336 -1.5869
 4699TIP3    H238293   1.932   7.488  17.947  0.4528 -0.0427  1.8567
 4700TIP3   OH238294   3.605   2.071  17.834  0.1776  0.0038  0.3192
 4700TIP3    H138295   3.689   2.051  17.875 -0.2063 -2.0365  0.1972
 4700TIP3    H238296   3.544   2.008  17.872 -0.8706  0.1449 -1.0404
 4701TIP3   OH238297   2.318   6.113  19.042  0.5302  0.0054 -0.0367
 4701TIP3    H138298   2.339   6.026  19.076  0.5052  0.3769  0.9580
 4701TIP3    H238299   2.403   6.155  19.029  0.5044  0.3221  0.8047
 4702TIP3   OH238300   7.603   2.082  17.838 -0.5902 -0.3726 -0.0647
 4702TIP3    H138301   7.530   2.087  17.899  0.4683  2.9536  1.1763
 4702TIP3    H238302   7.575   2.130  17.761 -1.0610 -2.5649 -1.3649
 4703TIP3   OH238303   6.863   2.093  17.456 -0.2443 -0.9007 -0.4099
 4703TIP3    H138304   6.932   2.157  17.441 -0.2214 -0.8542 -0.1090
 4703TIP3    H238305   6.843   2.059  17.369  0.0296 -0.7821 -0.5204
 4704TIP3   OH238306   5.943   2.545  18.862  0.1116 -0.0987  0.1372
 4704TIP3    H138307   5.954   2.639  18.848 -1.9318  0.6261  2.5760
 4704TIP3    H238308   6.017   2.520  18.917  1.3295 -0.2508 -1.5033
 4705TIP3   OH238309   2.477   2.924  18.116  0.6025  0.4368  0.0712
 4705TIP3    H138310   2.564   2.955  18.087  0.6629  0.6064  0.4315
 4705TIP3    H238311   2.471   2.835  18.081  0.4170  0.8590 -1.0020
 4706TIP3   OH238312   4.172   2.247  17.448 -0.0042  0.6762  0.1741
 4706TIP3    H138313   4.263   2.260  17.474  0.1029  1.4092 -0.5419
 4706TIP3    H238314   4.170   2.271  17.355 -0.5160 -1.2334 -0.3556
 4707TIP3   OH238315   7.415   6.010  19.270 -0.0407  0.2877 -0.3874
 4707TIP3    H138316   7.371   6.089  19.238 -1.8778 -1.4298 -2.4703
 4707TIP3    H238317   7.507   6.023  19.248 -0.0363  2.3925  0.6187
 4708TIP3   OH238318   0.564   2.977  18.451  0.6245 -0.8291 -0.0584
 4708TIP3    H138319   0.639   3.035  18.462 -0.1658  0.2388 -0.1765
 4708TIP3    H238320   0.550   2.937  18.537  0.1359  0.4552  0.4762
 4709TIP3   OH238321   0.152   2.464  17.056  0.1285  0.1770 -0.4254
 4709TIP3    H138322   0.233   2.497  17.015  0.8478 -0.0349  0.7746
 4709TIP3    H238323   0.146   2.373  17.026  1.1064 -0.2355  0.5531
 4710TIP3   OH238324   6.255   4.628  17.581 -0.0636 -0.7544 -0.7929
 4710TIP3    H138325   6.322   4.663  17.522  1.4757 -1.4373  0.4892
 4710TIP3    H238326   6.182   4.606  17.523  0.3158  1.1017 -2.0866
 4711TIP3   OH238327   1.280   0.968  18.596  0.4019 -0.1811  0.6639
 4711TIP3    H138328   1.287   0.872  18.593 -2.8229 -0.5103  0.2447
 4711TIP3    H238329   1.258   0.987  18.687  0.6583  0.1449  0.6580
 4712TIP3   OH238330   5.051   6.731  18.133 -0.6147  0.1586 -0.3869
 4712TIP3    H138331   5.021   6.733  18.042  0.2676  0.8194 -0.6806
 4712TIP3    H238332   5.135   6.685  18.130 -1.2020 -1.0103  0.3090
 4713TIP3   OH238333   7.264   1.634  19.683 -0.2254  0.0072 -0.1878
 4713TIP3    H138334   7.346   1.588  19.703  0.1945  0.0112 -1.6992
 4713TIP3    H238335   7.292   1.723  19.663 -0.6497  0.1231 -0.2630
 4714TIP3   OH238336   3.256   2.914  17.203  0.3467 -1.0924 -0.1580
 4714TIP3    H138337   3.215   2.863  17.273 -0.6001  0.2651  0.3200
 4714TIP3    H238338   3.191   2.981  17.181  1.5540 -0.0803 -0.7613
 4715TIP3   OH238339   5.261   1.132  19.298 -0.4134  0.4961  0.3612
 4715TIP3    H138340   5.332   1.105  19.357 -0.1256  1.0049  0.2575
 4715TIP3    H238341   5.271   1.227  19.291  1.1733  0.2283 -2.5273
 4716TIP3   OH238342   6.933   3.685  16.949 -0.2973 -0.7662  0.4640
 4716TIP3    H138343   6.902   3.603  16.988 -2.3553 -0.0456  0.4249
 4716TIP3    H238344   6.865   3.709  16.886  0.2470  1.0080  0.5192
 4717TIP3   OH238345   1.917   3.116  17.822  0.1004  0.4596 -0.2738
 4717TIP3    H138346   1.849   3.165  17.776 -1.6009  0.0227  1.6598
 4717TIP3    H238347   1.876   3.034  17.847  0.6343  0.9534  2.6240
 4718TIP3   OH238348   4.958   1.129  19.357  0.1207  0.2776 -0.0034
 4718TIP3    H138349   5.044   1.117  19.316 -0.1404 -1.1903 -0.1950
 4718TIP3    H238350   4.950   1.223  19.370  1.4944  0.4922 -0.5585
 4719TIP3   OH238351   6.223   3.291  16.643  0.1549  1.2001 -0.1437
 4719TIP3    H138352   6.233   3.241  16.723 -0.0931  2.1777  0.5169
 4719TIP3    H238353   6.173   3.234  16.585  2.7900 -0.6988 -0.7086
 4720TIP3   OH238354   6.731   1.715  17.219  0.1441 -0.5233 -0.1300
 4720TIP3    H138355   6.726   1.807  17.192  0.8804 -0.6463 -0.7222
 4720TIP3    H238356   6.647   1.678  17.194  0.1437 -0.1947 -0.6370
 4721TIP3   OH238357   2.507   7.048  18.265  0.5103  0.5511  0.2324
 4721TIP3    H138358   2.458   7.127  18.288 -0.9904 -0.5171  0.8510
 4721TIP3    H238359   2.568   7.036  18.337  0.2274  0.7429  0.5065
 4722TIP3   OH238360   4.163   2.998  18.968 -0.1894  0.4113  0.1448
 4722TIP3    H138361   4.075   3.033  18.956  0.1274  1.4011  0.5901
 4722TIP3    H238362   4.150   2.910  19.004 -1.0043  0.1144 -0.8634
 4723TIP3   OH238363   6.823   1.718  19.382  0.3640  0.0836  0.2915
 4723TIP3    H138364   6.733   1.750  19.373  1.1319  1.9310 -1.6212
 4723TIP3    H238365   6.817   1.624  19.364 -1.2197  0.0927  0.5974
 4724TIP3   OH238366   1.109   3.605  17.201 -0.1478  0.0243  0.5761
 4724TIP3    H138367   1.105   3.577  17.109  0.5533 -0.9985  0.8364
 4724TIP3    H238368   1.169   3.679  17.201 -0.4575  0.2826  0.1583
 4725TIP3   OH238369   0.020   4.143  18.815 -0.7734 -0.0219 -0.1341
 4725TIP3    H138370  -0.056   4.170  18.763 -0.2645 -0.8295 -1.3443
 4725TIP3    H238371   0.047   4.222  18.861  0.5999  1.6322 -3.4512
 4726TIP3   OH238372   2.006   2.723  18.057  0.3372 -0.3839 -0.1998
 4726TIP3    H138373   2.055   2.772  18.123  1.4397  1.3775 -2.1955
 4726TIP3    H238374   1.922   2.705  18.099  0.5879  1.6158  1.3244
 4727TIP3   OH238375   1.981   2.705  17.336 -0.2605  0.3612 -0.8031
 4727TIP3    H138376   1.973   2.635  17.272  2.9842  0.3279 -1.3243
 4727TIP3    H238377   2.035   2.771  17.293 -0.9206  1.9481  0.6778
 4728TIP3   OH238378   5.655   0.500  16.605 -0.2288  0.2966  0.1310
 4728TIP3    H138379   5.666   0.407  16.583  1.0142  0.4129  0.1854
 4728TIP3    H238380   5.700   0.511  16.688 -0.8412  0.8516  0.4006
 4729TIP3   OH238381   3.796   2.297  18.578 -0.7704 -0.3070 -0.2936
 4729TIP3    H138382   3.843   2.259  18.653  0.2768  0.6143 -0.4563
 4729TIP3    H238383   3.865   2.322  18.517 -1.3345  2.1285 -0.0518
 4730TIP3   OH238384   6.554   6.850  18.006 -0.1379  0.6343  0.3221
 4730TIP3    H138385   6.594   6.880  17.925  0.9496 -0.7504  0.3050
 4730TIP3    H238386   6.483   6.792  17.978  1.8439 -1.9522  0.2316
 4731TIP3   OH238387   7.195   1.982  19.009 -0.1114 -0.0118 -0.0454
 4731TIP3    H138388   7.260   1.998  19.078 -0.1397 -2.1891  0.5834
 4731TIP3    H238389   7.235   1.914  18.955 -0.7850  0.5187 -1.2331
 4732TIP3   OH238390   1.001   7.258  18.948 -0.2462 -0.6287 -0.3033
 4732TIP3    H138391   1.086   7.272  18.990 -0.7295  2.3508 -0.0895
 4732TIP3    H238392   0.942   7.239  19.021  0.1598 -2.5505 -0.4365
 4733TIP3   OH238393   1.767   6.317  19.114 -0.2923  0.6947 -0.4091
 4733TIP3    H138394   1.767   6.264  19.034 -0.9872  1.2228 -0.7750
 4733TIP3    H238395   1.695   6.280  19.166  0.2640  0.2463  0.0544
 4734TIP3   OH238396   1.323   5.414  17.856  0.3347 -0.7581  0.1415
 4734TIP3    H138397   1.406   5.457  17.834  0.2059  0.0262  1.0728
 4734TIP3    H238398   1.278   5.478  17.912 -0.8641 -1.2039 -0.2863
 4735TIP3   OH238399   4.797   3.124  17.118 -0.0719 -0.5625 -0.0148
 4735TIP3    H138400   4.829   3.151  17.205  1.0871  0.5144 -0.7305
 4735TIP3    H238401   4.704   3.144  17.120  0.4413  2.2810  0.0250
 4736TIP3   OH238402   7.397   7.650  19.516 -0.2263  0.0665 -0.4383
 4736TIP3    H138403   7.331   7.626  19.451 -0.0317  0.3969 -0.7556
 4736TIP3    H238404   7.376   7.595  19.592 -0.8119  0.1072 -0.5676
 4737TIP3   OH238405   0.742   7.272  18.825 -0.1577 -0.3432  0.5963
 4737TIP3    H138406   0.830   7.277  18.862  0.1428  0.4276 -0.1886
 4737TIP3    H238407   0.747   7.201  18.761  0.5644  1.1727 -1.1090
 4738TIP3   OH238408   0.916   6.609  16.648 -0.1208 -0.2951 -0.1177
 4738TIP3    H138409   0.924   6.604  16.553  2.3015  1.2941 -0.0961
 4738TIP3    H238410   0.996   6.568  16.681 -0.4831  0.0217  1.2127
 4739TIP3   OH238411   2.172   1.779  19.060  0.2948 -0.3226  0.1261
 4739TIP3    H138412   2.239   1.846  19.069  0.2191 -0.0434 -1.1207
 4739TIP3    H238413   2.206   1.703  19.107  1.2548 -0.0247 -0.0779
 4740TIP3   OH238414   1.985   2.710  16.855 -0.1441 -0.4319  0.5747
 4740TIP3    H138415   1.944   2.742  16.935 -3.0098  2.0296 -1.6123
 4740TIP3    H238416   2.025   2.788  16.816  0.7937 -1.4561 -0.6092
 4741TIP3   OH238417   6.469   2.547  18.196 -0.4835  0.3116  0.3104
 4741TIP3    H138418   6.448   2.621  18.253 -0.5671  0.4917  0.0524
 4741TIP3    H238419   6.413   2.560  18.118 -2.3710 -1.3643  1.2805
 4742TIP3   OH238420   3.688   2.075  19.020 -0.3317 -0.1796 -0.1963
 4742TIP3    H138421   3.733   2.039  18.944 -1.7099 -2.2884 -0.0803
 4742TIP3    H238422   3.615   2.125  18.983 -1.0699 -1.3006 -0.2917
 4743TIP3   OH238423   3.447   7.138  19.230 -0.0459 -0.6652  0.4224
 4743TIP3    H138424   3.523   7.190  19.254 -1.2300  0.3504  2.2601
 4743TIP3    H238425   3.395   7.195  19.173 -0.2463 -0.7002  0.5674
 4744TIP3   OH238426   4.607   3.055  19.185 -0.2359 -0.2856 -0.6323
 4744TIP3    H138427   4.617   2.971  19.230  1.7309 -0.5449 -1.4698
 4744TIP3    H238428   4.516   3.079  19.199  0.1039 -0.5794  3.0952
 4745TIP3   OH238429   4.919   2.763  18.382  0.0831  0.0046 -0.3541
 4745TIP3    H138430   4.968   2.684  18.407  0.0261 -0.1116 -0.6125
 4745TIP3    H238431   4.988   2.827  18.362  0.1491 -0.4137 -1.5439
 4746TIP3   OH238432   2.140   3.306  18.809  0.6901  1.0253 -0.1399
 4746TIP3    H138433   2.232   3.293  18.832  0.3069 -0.3633  0.6682
 4746TIP3    H238434   2.098   3.334  18.890  0.2265  0.7302 -0.2740
 4747TIP3   OH238435   2.044   5.181  17.073 -0.3864  0.5150  0.4258
 4747TIP3    H138436   2.054   5.111  17.008 -0.7303  0.9714 -0.1274
 4747TIP3    H238437   2.128   5.183  17.118 -0.1301  0.2054 -0.0212
 4748TIP3   OH238438   0.907   1.385  17.754  0.0673 -0.3560 -0.0727
 4748TIP3    H138439   0.904   1.320  17.824 -0.1640 -0.2892 -0.0202
 4748TIP3    H238440   0.825   1.434  17.763  0.1382 -0.2025 -0.2511
 4749TIP3   OH238441   1.888   4.090  19.133 -0.0868 -0.3540  0.2144
 4749TIP3    H138442   1.928   4.003  19.141  1.6533  0.4192  0.2699
 4749TIP3    H238443   1.907   4.134  19.215 -0.6637  0.2176  0.0546
 4750TIP3   OH238444   7.139   6.087  19.041 -0.2218 -0.0616  0.0034
 4750TIP3    H138445   7.049   6.120  19.040 -0.8007 -1.5215  0.9008
 4750TIP3    H238446   7.174   6.115  19.125  0.0034  0.0765 -0.1351
 4751TIP3   OH238447   0.489   2.858  17.358 -0.0291  0.1916 -0.0669
 4751TIP3    H138448   0.569   2.911  17.366 -0.9258  1.4371  1.0516
 4751TIP3    H238449   0.465   2.837  17.448 -1.4546  0.6429 -0.3190
 4752TIP3   OH238450   6.112   6.913  19.664  0.0319  0.7485 -0.3716
 4752TIP3    H138451   6.052   6.862  19.610  0.4348 -0.6546  0.4536
 4752TIP3    H238452   6.062   6.990  19.691 -2.3406 -1.5492  2.3649
 4753TIP3   OH238453   6.195   1.462  19.025 -0.3141 -0.0758  0.1366
 4753TIP3    H138454   6.150   1.505  19.098  1.1614  0.3328  0.8338
 4753TIP3    H238455   6.236   1.533  18.976 -3.2675 -0.0397 -2.6229
 4754TIP3   OH238456   2.019   5.749  19.093 -0.2926 -0.1708 -0.3027
 4754TIP3    H138457   2.076   5.677  19.119  2.4017  2.2628  1.0525
 4754TIP3    H238458   2.060   5.784  19.013  1.0426  2.3494  1.3361
 4755TIP3   OH238459   5.939   5.730  18.264  0.0027  0.3149 -0.0463
 4755TIP3    H138460   5.944   5.810  18.212  0.5211  1.8324  2.1722
 4755TIP3    H238461   6.030   5.708  18.284 -0.2014  0.2703  0.8948
 4756TIP3   OH238462   0.647   4.739  18.669  0.0748  0.2560  0.1538
 4756TIP3    H138463   0.682   4.828  18.671  1.0133 -0.1199  1.1325
 4756TIP3    H238464   0.704   4.692  18.609  0.3527  0.0042  0.6139
 4757TIP3   OH238465   2.143   3.169  18.315 -0.2002 -0.2447 -0.2501
 4757TIP3    H138466   2.067   3.149  18.260 -0.1994 -1.6068  0.1988
 4757TIP3    H238467   2.158   3.089  18.365  0.3590  0.6447  1.0734
 4758TIP3   OH238468   0.920   4.351  19.198  0.3442 -0.2964 -0.0906
 4758TIP3    H138469   0.838   4.314  19.229  0.4290  0.3745  0.9592
 4758TIP3    H238470   0.916   4.444  19.220  0.4803  0.2003 -1.9712
 4759TIP3   OH238471   6.470   2.553  17.872 -0.0882 -0.7049 -0.0827
 4759TIP3    H138472   6.551   2.604  17.879  2.0362 -3.6979 -0.8976
 4759TIP3    H238473   6.438   2.572  17.784 -0.5964  0.8196  0.3901
 4760TIP3   OH238474   0.815   5.790  18.657  0.3323 -0.1644  0.2412
 4760TIP3    H138475   0.885   5.780  18.593  0.5640  0.2415  0.4278
 4760TIP3    H238476   0.764   5.709  18.650 -0.3032  0.3378 -1.2364
 4761TIP3   OH238477   6.257   0.624  18.666 -0.2396  0.4146 -0.1770
 4761TIP3    H138478   6.337   0.647  18.619  0.1190  1.0434  0.7055
 4761TIP3    H238479   6.214   0.708  18.684  0.7487  0.4481  2.5155
 4762TIP3   OH238480   0.622   4.535  18.850  0.2079 -0.2546  0.2630
 4762TIP3    H138481   0.630   4.618  18.804  1.2065  0.0465  0.9313
 4762TIP3    H238482   0.587   4.559  18.936  0.8226 -0.4637  0.5808
 4763TIP3   OH238483   1.846   2.390  17.995  0.4960 -0.1258  0.1019
 4763TIP3    H138484   1.778   2.327  18.018 -1.2645  1.6469  0.0369
 4763TIP3    H238485   1.870   2.367  17.905 -0.3238 -0.5424 -0.0233
 4764TIP3   OH238486   1.638   3.758  17.958  0.9205 -0.0400  0.0841
 4764TIP3    H138487   1.568   3.701  17.927  0.9542  0.8623 -1.7445
 4764TIP3    H238488   1.717   3.704  17.955  0.6899 -0.3671 -0.0649
 4765TIP3   OH238489   0.308   1.105  19.466  0.4360  0.4129 -0.2264
 4765TIP3    H138490   0.328   1.016  19.439  1.5012 -0.3691  2.7383
 4765TIP3    H238491   0.390   1.153  19.453  0.9877  0.0076  1.4251
 4766TIP3   OH238492   5.927   2.232  17.570 -0.1778  0.0073 -0.3425
 4766TIP3    H138493   5.845   2.188  17.550  0.2600 -0.6078 -0.8290
 4766TIP3    H238494   5.980   2.167  17.616  0.4164  0.0593 -0.9312
 4767TIP3   OH238495   5.612   4.855  19.591  0.7335  0.1153  0.4844
 4767TIP3    H138496   5.564   4.844  19.673  1.1615  2.1664  1.0675
 4767TIP3    H238497   5.678   4.786  19.593 -1.5122 -2.1907  0.0900
 4768TIP3   OH238498   2.357   1.240  18.938  0.9229 -0.3230  0.4748
 4768TIP3    H138499   2.418   1.295  18.889  0.4830 -0.4530 -0.2217
 4768TIP3    H238500   2.413   1.182  18.989  1.3992 -1.1335 -0.9295
 4769TIP3   OH238501   2.818   4.716  18.315  0.1222  0.2737  0.3080
 4769TIP3    H138502   2.732   4.678  18.336 -0.8043  1.3979 -1.1871
 4769TIP3    H238503   2.817   4.726  18.219  1.9643  0.2692  0.2544
 4770TIP3   OH238504   7.558   1.085  17.575  0.3332  0.1883  0.0976
 4770TIP3    H138505   7.590   1.090  17.485  0.3414 -0.2251  0.0752
 4770TIP3    H238506   7.537   0.993  17.588 -0.8775  0.4477  0.1061
 4771TIP3   OH238507   6.847   5.331  16.413  0.0278  0.0671  0.1299
 4771TIP3    H138508   6.833   5.273  16.488 -0.0452 -0.2732 -0.1417
 4771TIP3    H238509   6.759   5.357  16.386 -0.0907 -1.3974 -1.0513
 4772TIP3   OH238510   3.336   5.682  19.376 -0.2207 -0.1499 -0.3006
 4772TIP3    H138511   3.315   5.760  19.427 -0.6252 -0.1575 -0.4503
 4772TIP3    H238512   3.387   5.714  19.302 -2.6982  0.3846 -1.8923
 4773TIP3   OH238513   0.929   0.414  17.385  0.2600 -0.5608 -0.0878
 4773TIP3    H138514   0.851   0.469  17.382  0.4037 -0.3289  0.3258
 4773TIP3    H238515   0.970   0.425  17.299 -0.0706 -0.5499 -0.2453
 4774TIP3   OH238516   5.560   1.098  19.115  0.5094  0.1942  0.1483
 4774TIP3    H138517   5.477   1.066  19.148 -0.1654  3.1516  1.6584
 4774TIP3    H238518   5.600   1.022  19.072 -3.3598 -1.0793 -1.5673
 4775TIP3   OH238519   1.308   5.226  19.128 -0.2084 -0.0059 -0.0722
 4775TIP3    H138520   1.319   5.290  19.198  0.0567  0.3347 -0.4236
 4775TIP3    H238521   1.261   5.273  19.059 -4.1705 -1.3777  1.3724
 4776TIP3   OH238522   2.328   0.672  19.391 -0.1865 -0.1148  0.4565
 4776TIP3    H138523   2.249   0.708  19.350 -1.1313 -1.1554  1.3115
 4776TIP3    H238524   2.396   0.680  19.324 -1.0262  0.7573 -0.3082
 4777TIP3   OH238525   4.382   5.381  17.262  0.1889  0.2944  0.2046
 4777TIP3    H138526   4.336   5.362  17.180  0.5555  0.8805 -0.1396
 4777TIP3    H238527   4.455   5.320  17.263  0.1097  0.1985  0.1586
 4778TIP3   OH238528   0.047   6.786  17.900  0.0875  0.7769  0.1181
 4778TIP3    H138529   0.127   6.741  17.872 -0.3520  0.0166  0.0557
 4778TIP3    H238530   0.018   6.737  17.977 -2.6744 -1.7656 -2.2834
 4779TIP3   OH238531   6.688   3.242  19.065 -0.0204 -0.1778  0.5098
 4779TIP3    H138532   6.638   3.315  19.099  1.3461  0.7683  0.5759
 4779TIP3    H238533   6.727   3.201  19.142 -1.2801 -1.3854  0.5321
 4780TIP3   OH238534   1.273   5.229  17.571  0.4740 -0.1535 -0.1970
 4780TIP3    H138535   1.265   5.137  17.548 -0.4894 -0.2033  0.3350
 4780TIP3    H238536   1.362   5.253  17.543  0.6349 -1.1668 -0.5662
 4781TIP3   OH238537   0.881   0.557  17.671  0.0370 -0.3260  0.1890
 4781TIP3    H138538   0.893   0.530  17.762 -0.6678 -0.3360  0.2836
 4781TIP3    H238539   0.807   0.505  17.641  0.8594 -1.0191 -0.6818
 4782TIP3   OH238540   4.012   6.360  19.340 -0.0935 -0.1162 -0.4498
 4782TIP3    H138541   4.084   6.370  19.278 -1.2889 -0.6406 -1.9912
 4782TIP3    H238542   4.031   6.277  19.385  1.4000  0.8450  0.8128
 4783TIP3   OH238543   2.562   3.410  19.063 -0.3910 -0.0388 -0.3436
 4783TIP3    H138544   2.478   3.404  19.109 -1.0982 -0.1792 -1.6147
 4783TIP3    H238545   2.542   3.388  18.972  1.0424 -0.1328 -0.6650
 4784TIP3   OH238546   1.347   7.518  19.339 -0.3285  0.1639 -0.0888
 4784TIP3    H138547   1.345   7.613  19.354  1.0544  0.2117 -0.1122
 4784TIP3    H238548   1.311   7.507  19.251 -4.2278  0.2717  1.2729
 4785TIP3   OH238549   3.198   3.899  17.686  0.3580 -0.8582  0.4597
 4785TIP3    H138550   3.201   3.923  17.779  0.7446 -0.1011  0.2648
 4785TIP3    H238551   3.110   3.865  17.673 -0.8408  1.9863  0.4226
 4786TIP3   OH238552   0.677   4.491  18.471  0.3820  0.1063  0.7332
 4786TIP3    H138553   0.605   4.428  18.470  0.1223  0.3362  2.2130
 4786TIP3    H238554   0.651   4.558  18.408  0.4651 -1.0308 -0.5353
 4787TIP3   OH238555   6.402   5.406  19.690  0.0835 -0.0113 -0.6540
 4787TIP3    H138556   6.373   5.497  19.688 -2.6866 -0.7513  0.5753
 4787TIP3    H238557   6.474   5.404  19.753 -1.1939  1.0517  0.9186
 4788TIP3   OH238558   5.972   7.263  17.635  0.4055 -0.9970 -0.2868
 4788TIP3    H138559   5.972   7.236  17.727  1.8424  0.8116  0.3062
 4788TIP3    H238560   6.064   7.278  17.614  0.0942 -1.2796 -1.9984
 4789TIP3   OH238561   7.406   1.626  18.406 -0.4144  0.1877  1.0151
 4789TIP3    H138562   7.462   1.548  18.403 -0.2534  0.3235  0.1930
 4789TIP3    H238563   7.451   1.685  18.466 -0.7779 -0.5262  2.0099
 4790TIP3   OH238564   6.243   1.458  19.399 -0.3247  0.2481 -0.6324
 4790TIP3    H138565   6.268   1.550  19.391  1.0494  0.0516  0.9227
 4790TIP3    H238566   6.299   1.413  19.335  1.2056  0.1785  0.6965
 4791TIP3   OH238567   6.073   0.601  19.299 -0.1373  0.1644  0.0441
 4791TIP3    H138568   5.992   0.639  19.333 -0.6494 -1.7342  1.1172
 4791TIP3    H238569   6.135   0.673  19.298 -1.3628  1.2721  0.8819
 4792TIP3   OH238570   2.086   0.284  18.096  0.0684  0.6855 -0.3656
 4792TIP3    H138571   2.001   0.275  18.052 -0.5485  0.4534  0.8422
 4792TIP3    H238572   2.149   0.249  18.033 -0.9362 -0.8640 -0.5556
 4793TIP3   OH238573   3.340   5.881  17.555  0.0463 -0.5954 -0.1260
 4793TIP3    H138574   3.429   5.848  17.545  0.5526  0.8589 -0.5634
 4793TIP3    H238575   3.293   5.847  17.479  1.0102  1.0461 -1.5408
 4794TIP3   OH238576   5.339   6.964  18.143 -0.5678 -0.2820 -0.1673
 4794TIP3    H138577   5.348   6.898  18.074 -1.4029 -0.2561 -0.3094
 4794TIP3    H238578   5.415   7.021  18.132 -0.5103 -0.4847 -0.8469
 4795TIP3   OH238579   6.057   5.402  18.439  0.0794  0.2742 -0.2853
 4795TIP3    H138580   5.985   5.361  18.390  0.5620  2.1356 -2.7841
 4795TIP3    H238581   6.019   5.423  18.524 -1.4864 -1.2328 -0.5588
 4796TIP3   OH238582   4.174   6.045  17.774 -0.2733  0.0326 -0.2369
 4796TIP3    H138583   4.162   6.134  17.741 -1.1694 -0.4298 -1.2365
 4796TIP3    H238584   4.125   6.043  17.856 -0.6246  0.3306 -0.4400
 4797TIP3   OH238585   1.807   1.420  18.131  0.1298 -0.2841 -0.1030
 4797TIP3    H138586   1.788   1.478  18.057  0.5878  0.8388  0.6341
 4797TIP3    H238587   1.754   1.454  18.203 -1.0548 -1.9436 -0.1291
 4798TIP3   OH238588   0.059   3.071  17.143 -0.2685  0.2449 -0.5672
 4798TIP3    H138589   0.099   3.143  17.191  0.7922  0.1293 -1.2518
 4798TIP3    H238590  -0.028   3.103  17.119 -0.4463  0.6551  0.5741
 4799TIP3   OH238591   6.256   2.202  18.360  0.3514  0.8234  0.2394
 4799TIP3    H138592   6.260   2.107  18.361  0.4931  0.8276  1.0664
 4799TIP3    H238593   6.240   2.225  18.268  1.9187  0.0662 -0.2628
 4800TIP3   OH238594   2.234   2.490  17.407  0.2277  1.1845  0.2211
 4800TIP3    H138595   2.216   2.561  17.345  0.2307 -0.0231 -1.2114
 4800TIP3    H238596   2.152   2.440  17.411  0.5971  0.5649  0.2483
 4801TIP3   OH238597   1.531   2.142  18.794  0.4273 -0.7351 -0.2060
 4801TIP3    H138598   1.487   2.096  18.865  1.1447 -2.8291 -1.0331
 4801TIP3    H238599   1.624   2.135  18.815  0.5309  2.1888  0.6761
 4802TIP3   OH238600   6.782   1.228  19.360  0.2272  0.4385 -0.0395
 4802TIP3    H138601   6.690   1.209  19.374  0.1561  0.8808  0.0916
 4802TIP3    H238602   6.816   1.151  19.314 -0.0354 -0.0546  0.5827
 4803TIP3   OH238603   3.574   0.835  19.018 -0.3464 -0.2718  0.5542
 4803TIP3    H138604   3.556   0.890  19.095  2.2949  0.3553  0.8451
 4803TIP3    H238605   3.490   0.828  18.973 -1.0099  3.6338  0.7873
 4804TIP3   OH238606   1.575   7.149  19.438  0.4270  0.5255 -0.0975
 4804TIP3    H138607   1.556   7.240  19.418  0.6827  0.7850  0.8079
 4804TIP3    H238608   1.600   7.110  19.354  0.0519  1.2134 -0.5336
 4805TIP3   OH238609   0.450   7.130  18.005 -0.4883 -0.4042 -0.2088
 4805TIP3    H138610   0.426   7.062  18.068  0.3883  0.1705  0.7814
 4805TIP3    H238611   0.380   7.129  17.940 -1.6859 -0.6781  1.0461
 4806TIP3   OH238612   4.063   5.953  17.432 -0.2105 -0.3720  0.0895
 4806TIP3    H138613   4.088   6.024  17.374 -0.3511 -1.8110 -1.8387
 4806TIP3    H238614   4.141   5.934  17.484  0.3244  0.1209 -0.5305
 4807TIP3   OH238615   0.221   4.935  19.377 -0.0138 -0.5077 -0.0728
 4807TIP3    H138616   0.303   4.962  19.336 -1.5912 -0.0493 -3.2270
 4807TIP3    H238617   0.165   5.012  19.371 -0.2590 -0.1941  3.6738
 4808TIP3   OH238618   0.137   6.548  18.694  0.4995 -0.3145 -0.0244
 4808TIP3    H138619   0.214   6.541  18.749  0.3347  1.1625  0.4540
 4808TIP3    H238620   0.119   6.642  18.691 -0.2259 -0.4738 -1.5879
 4809TIP3   OH238621   6.254   0.816  17.244  0.3883  0.0217 -0.5439
 4809TIP3    H138622   6.249   0.886  17.308 -0.9365 -0.8938  0.3848
 4809TIP3    H238623   6.292   0.742  17.292 -1.8464 -1.0951 -0.3576
 4810TIP3   OH238624   1.064   4.183  16.896  0.1650  0.8874 -0.3738
 4810TIP3    H138625   1.062   4.094  16.860  2.2863  0.3151  0.7426
 4810TIP3    H238626   0.972   4.203  16.913 -0.6122 -0.1309 -2.7977
 4811TIP3   OH238627   0.727   2.787  19.103 -0.4549 -0.3367  0.5420
 4811TIP3    H138628   0.807   2.735  19.099 -0.3693 -0.1715 -0.1492
 4811TIP3    H238629   0.658   2.728  19.072 -0.3696 -0.0799 -0.1690
 4812TIP3   OH238630   3.202   4.421  18.027 -0.2878  0.4831  0.2116
 4812TIP3    H138631   3.141   4.469  17.971  0.5682  1.2212 -0.1108
 4812TIP3    H238632   3.270   4.485  18.049  0.0930 -0.1687  1.0033
 4813TIP3   OH238633   5.054   4.342  17.461 -0.0556 -1.1857  0.4253
 4813TIP3    H138634   4.967   4.381  17.469  0.0618 -0.6596 -0.5921
 4813TIP3    H238635   5.079   4.319  17.550 -0.1621  1.0593  1.0920
 4814TIP3   OH238636   0.830   4.615  19.225 -0.0597 -0.2303  0.2446
 4814TIP3    H138637   0.782   4.653  19.299 -0.9912  0.1209 -0.5141
 4814TIP3    H238638   0.911   4.665  19.220  0.6828 -1.2024  1.9048
 4815TIP3   OH238639   4.400   7.013  18.552 -0.0176  0.3776  0.1800
 4815TIP3    H138640   4.459   6.991  18.624  1.9294 -0.7039 -1.6445
 4815TIP3    H238641   4.421   7.104  18.532  1.1699 -0.0313 -0.5264
 4816TIP3   OH238642   5.439   0.583  17.118 -0.2884  0.0695  0.2567
 4816TIP3    H138643   5.355   0.616  17.086 -0.8496 -1.4810  0.0725
 4816TIP3    H238644   5.485   0.661  17.148 -1.2927  1.1068 -0.7901
 4817TIP3   OH238645   1.879   3.007  18.472  0.4700  0.0162  0.5271
 4817TIP3    H138646   1.824   2.930  18.458  1.1374 -0.6549  1.4360
 4817TIP3    H238647   1.885   3.048  18.386 -2.3767  0.7929  0.5888
 4818TIP3   OH238648   3.087   5.370  18.172  0.3134 -0.1461  0.3830
 4818TIP3    H138649   3.090   5.327  18.258 -1.2552  1.8968  1.5594
 4818TIP3    H238650   3.167   5.423  18.170 -0.7508  1.6450  1.7243
 4819TIP3   OH238651   7.263   4.928  18.961 -0.9392 -0.7846  0.2238
 4819TIP3    H138652   7.250   4.995  19.029 -0.4749  0.3496 -0.7724
 4819TIP3    H238653   7.357   4.930  18.944 -0.8607 -1.9944  0.4632
 4820TIP3   OH238654   3.994   1.143  19.126  0.3099 -0.1184 -0.0510
 4820TIP3    H138655   4.048   1.196  19.067 -1.5154  1.1914 -0.6444
 4820TIP3    H238656   3.913   1.129  19.077 -0.5228 -0.6297  1.4306
 4821TIP3   OH238657   3.746   4.811  19.128 -0.1473 -0.1248  1.0464
 4821TIP3    H138658   3.827   4.791  19.173  0.3860  0.9052  0.5731
 4821TIP3    H238659   3.765   4.795  19.036 -0.5630 -0.1584  0.9641
 4822TIP3   OH238660   1.183   1.485  17.719 -0.4113 -0.1909 -0.6633
 4822TIP3    H138661   1.231   1.517  17.796 -0.4914 -1.5244 -0.0279
 4822TIP3    H238662   1.091   1.496  17.741 -0.4274  0.0224 -0.8357
 4823TIP3   OH238663   1.029   1.817  18.997 -0.0014  0.2023 -0.1852
 4823TIP3    H138664   1.059   1.779  18.914  0.1469 -0.9580  0.3693
 4823TIP3    H238665   1.012   1.741  19.053 -0.9083  0.9357  0.5740
 4824TIP3   OH238666   2.816   1.549  19.276  0.2909 -0.0569  0.3536
 4824TIP3    H138667   2.757   1.498  19.332  0.0647 -1.0258 -0.7265
 4824TIP3    H238668   2.781   1.638  19.280 -1.2101 -0.5899 -0.1724
 4825TIP3   OH238669   5.953   6.601  18.527  0.2833 -0.7097 -0.4836
 4825TIP3    H138670   6.003   6.677  18.499  0.6815 -0.3180  1.1559
 4825TIP3    H238671   5.916   6.565  18.447 -0.4545  1.5760 -1.2199
 4826TIP3   OH238672   5.925   2.322  18.720 -0.4575  0.2613 -0.2472
 4826TIP3    H138673   5.914   2.406  18.766 -1.0286  1.3888 -2.3189
 4826TIP3    H238674   6.020   2.315  18.706 -0.5395  1.7005 -1.9334
 4827TIP3   OH238675   4.364   0.629  17.904 -0.5690 -0.0909 -0.4181
 4827TIP3    H138676   4.281   0.585  17.921  0.6267 -2.0878  0.6282
 4827TIP3    H238677   4.419   0.562  17.864  1.0907  0.6496  0.5305
 4828TIP3   OH238678   3.166   6.834  17.681 -0.2852 -0.2880  0.6390
 4828TIP3    H138679   3.184   6.856  17.772 -2.8376 -0.1291  1.1603
 4828TIP3    H238680   3.147   6.740  17.682 -1.1900 -0.1111  0.4239
 4829TIP3   OH238681   0.129   5.274  18.387  0.3192  0.3199  0.1109
 4829TIP3    H138682   0.136   5.232  18.301  1.8065  1.3871 -0.3246
 4829TIP3    H238683   0.110   5.366  18.367 -0.2104  0.4071  0.9714
 4830TIP3   OH238684   6.544   1.643  17.630  0.0134 -0.1659 -0.2919
 4830TIP3    H138685   6.622   1.630  17.685 -1.1239 -0.5880  1.2778
 4830TIP3    H238686   6.573   1.619  17.542  1.5411 -0.7463  0.3335
 4831TIP3   OH238687   2.424   7.614  17.729 -0.1839 -0.3364 -0.2103
 4831TIP3    H138688   2.426   7.649  17.640  0.5436 -0.9992 -0.4759
 4831TIP3    H238689   2.423   7.519  17.717 -1.4090 -0.4298  0.4913
 4832TIP3   OH238690   5.552   4.337  16.887 -0.2870  0.7763  0.5412
 4832TIP3    H138691   5.507   4.339  16.803  1.4369  0.4080 -0.4235
 4832TIP3    H238692   5.520   4.415  16.933 -2.0408  0.4159  0.0124
 4833TIP3   OH238693   2.631   4.408  17.210  0.1798 -0.3009 -0.0829
 4833TIP3    H138694   2.694   4.336  17.216  0.2943 -0.1350  0.9507
 4833TIP3    H238695   2.674   4.473  17.155  1.3690  0.2167  1.3660
 4834TIP3   OH238696   6.241   4.283  16.976  0.6043  0.2331 -0.2258
 4834TIP3    H138697   6.191   4.350  16.929  1.2408  2.8423  2.5026
 4834TIP3    H238698   6.330   4.291  16.943  0.4839  0.0336 -0.6010
 4835TIP3   OH238699   0.214   5.361  19.359  0.1862 -0.6848 -0.0040
 4835TIP3    H138700   0.297   5.378  19.404  0.8251 -0.5656 -1.1576
 4835TIP3    H238701   0.165   5.442  19.366 -0.3479 -1.1236  1.6866
 4836TIP3   OH238702   7.281   7.520  18.741  0.7303 -0.1984  0.2250
 4836TIP3    H138703   7.312   7.546  18.654 -0.6186  0.4198 -0.0946
 4836TIP3    H238704   7.344   7.559  18.802 -0.0284  2.1027 -0.3478
 4837TIP3   OH238705   1.448   0.553  18.797 -0.4561 -0.0736 -0.7275
 4837TIP3    H138706   1.464   0.484  18.733  1.8620  0.1112 -0.4396
 4837TIP3    H238707   1.468   0.634  18.751 -1.0289  0.2392 -0.4310
 4838TIP3   OH238708   5.978   3.056  18.030 -0.3780 -0.3347  0.0890
 4838TIP3    H138709   6.011   3.125  17.972 -0.5623  0.0639  0.4468
 4838TIP3    H238710   5.884   3.057  18.017 -0.5799  0.6710  1.3440
 4839TIP3   OH238711   1.141   6.363  17.872  0.3048 -0.3264 -0.0437
 4839TIP3    H138712   1.121   6.423  17.944  0.4283 -1.8902  1.3582
 4839TIP3    H238713   1.082   6.390  17.801 -0.4689  0.6909  0.9563
 4840TIP3   OH238714   5.239   2.501  17.172 -0.0376  0.0859  0.3210
 4840TIP3    H138715   5.295   2.555  17.115 -0.7042 -0.1531 -0.5948
 4840TIP3    H238716   5.270   2.412  17.158 -0.6555 -0.0533 -0.2263
 4841TIP3   OH238717   3.267   2.114  18.918  0.6789 -0.0867 -0.2940
 4841TIP3    H138718   3.355   2.137  18.888  0.5244 -2.4225 -2.9399
 4841TIP3    H238719   3.283   2.049  18.987  1.0041  0.9298  0.6103
 4842TIP3   OH238720   1.625   0.656  19.260 -0.1450 -0.1838  0.7129
 4842TIP3    H138721   1.677   0.578  19.276  0.1623  0.0612  0.9110
 4842TIP3    H238722   1.593   0.645  19.170  1.4492  0.3481  0.0406
 4843TIP3   OH238723   6.548   1.573  18.233  0.4907  0.0834  0.0321
 4843TIP3    H138724   6.589   1.653  18.267 -0.8160  0.8657 -0.1674
 4843TIP3    H238725   6.458   1.576  18.265 -0.2146 -0.1896 -1.7831
 4844TIP3   OH238726   1.631   4.546  19.134 -0.1268  0.3306  0.0123
 4844TIP3    H138727   1.689   4.620  19.150  0.3923 -0.0704  0.0042
 4844TIP3    H238728   1.591   4.528  19.218 -0.6394  0.9373 -0.0933
 4845TIP3   OH238729   6.434   7.014  17.479 -0.1651  0.0495  0.0997
 4845TIP3    H138730   6.485   7.074  17.426  0.3261  0.7604  1.3172
 4845TIP3    H238731   6.352   7.004  17.432  0.0539  1.0569 -0.5335
 4846TIP3   OH238732   1.252   4.076  18.659  0.5924  0.6553 -0.1921
 4846TIP3    H138733   1.171   4.122  18.682  0.0125 -0.4403  0.0570
 4846TIP3    H238734   1.284   4.041  18.742 -0.0781 -1.0690 -0.6212
 4847TIP3   OH238735   3.080   1.142  17.353 -0.5922 -0.1057 -0.3938
 4847TIP3    H138736   3.052   1.115  17.440  0.0159 -0.7189 -0.3848
 4847TIP3    H238737   3.071   1.064  17.299  3.4478 -1.1708  0.1592
 4848TIP3   OH238738   5.246   4.720  19.416 -0.6361  0.3440 -0.1667
 4848TIP3    H138739   5.309   4.792  19.421  0.0969 -0.2479 -0.6473
 4848TIP3    H238740   5.289   4.655  19.361 -0.7028 -1.0420  1.3541
 4849TIP3   OH238741   0.721   0.986  18.744 -0.0968 -0.0233  0.3618
 4849TIP3    H138742   0.693   1.022  18.827 -1.4573  0.1469 -0.1349
 4849TIP3    H238743   0.719   1.060  18.683  1.0058 -0.1169  0.1879
 4850TIP3   OH238744   6.498   0.038  17.985 -0.2768 -0.2410 -0.0863
 4850TIP3    H138745   6.520   0.023  17.893  1.0482  0.1137  0.1475
 4850TIP3    H238746   6.404   0.021  17.990 -0.2149 -1.1144 -1.3229
 4851TIP3   OH238747   5.562   3.547  17.480 -0.3918  0.1829 -0.2753
 4851TIP3    H138748   5.618   3.577  17.551 -0.7792 -1.4219  0.7754
 4851TIP3    H238749   5.549   3.624  17.425  1.6128  0.9470  0.2435
 4852TIP3   OH238750   6.205   0.994  17.477  0.7010  0.1008 -0.2101
 4852TIP3    H138751   6.239   1.083  17.485  1.1486 -0.1911  1.6650
 4852TIP3    H238752   6.258   0.942  17.538 -0.7770 -1.0751  0.1477
 4853TIP3   OH238753   2.601   5.054  18.806  0.2648  0.3453  0.3842
 4853TIP3    H138754   2.629   4.996  18.878  3.2758  0.1344 -0.8008
 4853TIP3    H238755   2.647   5.020  18.730 -0.6218  2.2703 -1.0738
 4854TIP3   OH238756   3.335   3.213  18.551  0.3207  0.4090  1.1397
 4854TIP3    H138757   3.316   3.283  18.490  0.0265 -0.9482 -0.4042
 4854TIP3    H238758   3.298   3.243  18.634  1.8561  2.8459  1.0424
 4855TIP3   OH238759   0.350   2.772  16.806  0.4196  0.2765  0.3043
 4855TIP3    H138760   0.357   2.678  16.825  0.2971  0.2441  0.1942
 4855TIP3    H238761   0.266   2.798  16.845 -0.7082 -0.1701 -1.6899
 4856TIP3   OH238762   2.234   1.618  16.982 -0.2424 -0.5836 -0.8354
 4856TIP3    H138763   2.161   1.560  17.003  1.6933 -2.3465  1.6109
 4856TIP3    H238764   2.247   1.670  17.061  1.5973 -0.8908 -0.8826
 4857TIP3   OH238765   6.725   6.482  16.832 -0.3471 -0.1252 -0.3090
 4857TIP3    H138766   6.661   6.553  16.828 -2.2395 -1.6122  1.1454
 4857TIP3    H238767   6.672   6.403  16.840  1.6914 -1.4911  0.5605
 4858TIP3   OH238768   6.602   6.969  17.748 -0.4306  0.0844 -0.6421
 4858TIP3    H138769   6.642   6.918  17.677 -0.7927  1.1373 -1.6375
 4858TIP3    H238770   6.622   7.060  17.726 -0.4449  0.4320  0.6953
 4859TIP3   OH238771   5.648   6.885  18.339 -0.0513 -0.3045 -0.1249
 4859TIP3    H138772   5.713   6.954  18.324  0.0927 -0.2147  0.8340
 4859TIP3    H238773   5.567   6.921  18.304 -0.5126  1.3754  2.3898
 4860TIP3   OH238774   2.380   5.408  17.525  0.3515 -0.5281  0.8884
 4860TIP3    H138775   2.425   5.380  17.445 -1.9762  0.5927 -0.9614
 4860TIP3    H238776   2.412   5.349  17.593  3.6204 -0.5303 -0.4806
 4861TIP3   OH238777   3.180   6.815  19.534  0.0801 -0.4533  0.4225
 4861TIP3    H138778   3.256   6.806  19.476 -0.5951 -0.7801 -0.4122
 4861TIP3    H238779   3.218   6.842  19.618  1.1617 -0.9558  0.1143
 4862TIP3   OH238780   7.037   2.581  17.381  0.3867 -0.4656  0.1331
 4862TIP3    H138781   7.095   2.587  17.457  0.2093  1.1715  0.1768
 4862TIP3    H238782   7.063   2.655  17.325 -2.0710  0.7837  0.4948
 4863TIP3   OH238783   6.757   6.420  19.579  0.3281 -0.4812  0.0922
 4863TIP3    H138784   6.698   6.345  19.577 -0.1114 -0.1690  0.9334
 4863TIP3    H238785   6.725   6.474  19.651  0.2519  0.8364 -0.9001
 4864TIP3   OH238786   4.503   0.702  18.781  0.6571  0.0266  0.0117
 4864TIP3    H138787   4.546   0.772  18.829  1.2220 -1.3848  1.6707
 4864TIP3    H238788   4.411   0.706  18.807  0.8432 -0.3352  0.7427
 4865TIP3   OH238789   5.982   1.567  17.770  0.2973 -0.0495 -0.0232
 4865TIP3    H138790   5.967   1.661  17.783  1.2497  0.1681 -0.4660
 4865TIP3    H238791   6.077   1.556  17.778  0.7443 -0.3056 -4.0144
 4866TIP3   OH238792   7.657   3.603  19.181  0.2094  0.1062 -0.4110
 4866TIP3    H138793   7.675   3.696  19.196  0.1540  0.0229  0.1949
 4866TIP3    H238794   7.654   3.565  19.269  0.3509 -0.4908 -0.6647
 4867TIP3   OH238795   1.769   3.844  18.790  0.1469  0.4381  0.3713
 4867TIP3    H138796   1.848   3.891  18.816  0.6963  1.2108 -2.3582
 4867TIP3    H238797   1.700   3.910  18.791 -0.1581  0.1230  1.2277
 4868TIP3   OH238798   4.333   3.077  19.197 -0.1542 -0.3368 -0.3694
 4868TIP3    H138799   4.295   3.038  19.119 -0.2476  0.3925 -0.6935
 4868TIP3    H238800   4.265   3.068  19.264  0.6328 -2.7567  0.2206
 4869TIP3   OH238801   4.433   7.290  17.402 -0.2172  0.3155 -0.0622
 4869TIP3    H138802   4.381   7.347  17.459  2.3010  1.7261  1.0076
 4869TIP3    H238803   4.484   7.235  17.461  1.1328  0.5486 -0.9415
 4870TIP3   OH238804   6.493   5.609  18.311 -0.1426  0.1782  0.1906
 4870TIP3    H138805   6.545   5.605  18.230 -1.6812  0.2449 -0.8295
 4870TIP3    H238806   6.534   5.679  18.362 -0.2027  1.3516 -1.3117
 4871TIP3   OH238807   4.378   6.769  19.335  0.1939 -0.1181  0.2492
 4871TIP3    H138808   4.302   6.712  19.322  0.2559 -0.3639  0.9210
 4871TIP3    H238809   4.369   6.801  19.424  0.3630  0.6367  0.0048
 4872TIP3   OH238810   3.463   3.072  18.906 -0.2178 -0.3468  0.2257
 4872TIP3    H138811   3.404   3.096  18.836 -1.2369 -0.6304  0.9641
 4872TIP3    H238812   3.526   3.144  18.911 -1.2974  0.6120  0.3065
 4873TIP3   OH238813   0.606   3.083  18.879 -0.0042  0.0197  0.4008
 4873TIP3    H138814   0.676   3.141  18.849 -0.2102  0.2474  0.3597
 4873TIP3    H238815   0.631   3.060  18.969  0.7633 -0.8933 -0.0190
 4874TIP3   OH238816   4.291   4.402  17.503 -0.1218 -0.6001 -0.0514
 4874TIP3    H138817   4.249   4.481  17.539  0.5047 -0.3971  0.2521
 4874TIP3    H238818   4.374   4.396  17.551  0.4458 -0.6825 -1.0302
 4875TIP3   OH238819   1.556   3.399  18.172 -0.0831  0.1736 -0.5152
 4875TIP3    H138820   1.474   3.436  18.203  0.1123 -1.2284  1.9592
 4875TIP3    H238821   1.623   3.446  18.222  0.4394 -0.5118 -0.5597
 4876TIP3   OH238822   0.500   3.344  18.246  0.2561 -0.1385  0.1295
 4876TIP3    H138823   0.571   3.293  18.285 -0.6037 -0.3125  1.5144
 4876TIP3    H238824   0.420   3.297  18.271 -0.8376  3.1518  3.8398
 4877TIP3   OH238825   4.840   0.764  17.043  0.0142 -0.2797  0.3954
 4877TIP3    H138826   4.776   0.834  17.056  1.7280  1.5921 -0.6485
 4877TIP3    H238827   4.909   0.804  16.991  2.6113 -1.8456  2.3832
 4878TIP3   OH238828   4.473   0.523  18.260 -0.1376 -0.1719 -0.0094
 4878TIP3    H138829   4.392   0.523  18.208 -0.9721  1.0963  1.2422
 4878TIP3    H238830   4.449   0.479  18.341  0.2477  0.7651  0.6266
 4879TIP3   OH238831   2.924   4.434  17.345 -0.1455  0.2117 -0.0550
 4879TIP3    H138832   2.897   4.518  17.307 -1.5509 -0.3678 -0.4023
 4879TIP3    H238833   2.884   4.368  17.289 -1.3223 -0.6715  1.7109
 4880TIP3   OH238834   6.862   2.265  18.702  0.3235  0.2344  0.3050
 4880TIP3    H138835   6.789   2.315  18.667  0.8425 -0.6345 -2.2581
 4880TIP3    H238836   6.833   2.173  18.695  1.3243 -0.0712  0.0370
 4881TIP3   OH238837   6.118   0.098  18.719  0.1718  0.2520  0.1017
 4881TIP3    H138838   6.164   0.015  18.731 -1.5986 -0.8411 -0.2207
 4881TIP3    H238839   6.150   0.154  18.790 -1.3789 -2.0352  2.8607
 4882TIP3   OH238840   1.474   2.370  17.002  0.0526 -0.2248  0.3133
 4882TIP3    H138841   1.401   2.310  16.991 -1.8579  1.3529  3.2073
 4882TIP3    H238842   1.465   2.433  16.931  0.5721 -1.7751 -1.2090
 4883TIP3   OH238843   6.312   4.437  19.046 -0.3334 -0.0178 -0.3903
 4883TIP3    H138844   6.356   4.361  19.008 -2.0914 -0.4869 -1.6357
 4883TIP3    H238845   6.354   4.513  19.005  1.2892 -0.2665  0.7033
 4884TIP3   OH238846   0.482   5.089  18.662 -0.6946 -0.1588 -0.5723
 4884TIP3    H138847   0.396   5.108  18.700 -0.4736  0.4952 -0.3913
 4884TIP3    H238848   0.523   5.030  18.725 -0.1493  1.2828  0.4733
 4885TIP3   OH238849   6.689   0.856  19.613  0.0734 -0.0667 -0.1621
 4885TIP3    H138850   6.690   0.951  19.615  0.3309 -0.0770  0.5922
 4885TIP3    H238851   6.655   0.830  19.699  1.8138 -0.6647  0.3912
 4886TIP3   OH238852   4.507   2.232  18.643 -0.0500 -0.1678  0.1913
 4886TIP3    H138853   4.500   2.216  18.549  0.5826 -0.7453  0.2345
 4886TIP3    H238854   4.547   2.153  18.678 -1.8602 -0.6935  1.2150
 4887TIP3   OH238855   7.484   7.486  18.440  0.0017 -0.1938  0.6652
 4887TIP3    H138856   7.421   7.541  18.393  1.3639  0.1684 -0.8462
 4887TIP3    H238857   7.545   7.549  18.480 -1.0335 -0.5078  2.8516
 4888TIP3   OH238858   7.177   0.225  19.520  0.0228  0.4774  0.0892
 4888TIP3    H138859   7.137   0.141  19.542 -1.2261  1.3994  1.5936
 4888TIP3    H238860   7.242   0.204  19.454 -0.7385 -1.5677 -0.0902
 4889TIP3   OH238861   4.640   2.984  17.828  0.1423  0.8435  0.1208
 4889TIP3    H138862   4.641   3.079  17.823  3.9467  1.0303  1.3642
 4889TIP3    H238863   4.683   2.955  17.747  1.8543  0.4314  1.1281
 4890TIP3   OH238864   5.415   7.513  17.518  0.4275 -0.2348  0.0323
 4890TIP3    H138865   5.328   7.535  17.484  1.1497  1.3576 -0.8469
 4890TIP3    H238866   5.431   7.578  17.586  0.6878 -0.9035  0.6181
 4891TIP3   OH238867   6.949   5.980  17.161  0.5160 -0.5180  0.4073
 4891TIP3    H138868   6.918   5.919  17.095 -0.9220  0.4778  0.1378
 4891TIP3    H238869   6.966   6.062  17.114 -0.2676  0.1229  1.1922
 4892TIP3   OH238870   7.312   3.738  17.150  0.3512 -0.0301 -0.4514
 4892TIP3    H138871   7.265   3.655  17.149 -0.3667  0.3693 -0.7593
 4892TIP3    H238872   7.330   3.754  17.243 -0.1301 -0.1940 -0.3251
 4893TIP3   OH238873   1.400   7.063  17.443 -0.2119  0.1635 -0.0073
 4893TIP3    H138874   1.330   7.122  17.413  0.0445  0.1705 -0.5995
 4893TIP3    H238875   1.353   6.985  17.474 -0.4467 -0.3113 -1.4793
 4894TIP3   OH238876   2.712   0.669  17.310 -0.0872 -0.5832 -0.4564
 4894TIP3    H138877   2.753   0.752  17.336  0.2813 -0.8959 -0.0088
 4894TIP3    H238878   2.757   0.645  17.229  1.3672 -1.4289  0.5603
 4895TIP3   OH238879   7.027   4.755  17.338 -0.9540 -0.0776 -0.2772
 4895TIP3    H138880   7.023   4.708  17.421 -0.2249  1.2609  0.5404
 4895TIP3    H238881   7.116   4.789  17.333 -0.7512 -0.7606 -1.9815
 4896TIP3   OH238882   6.690   0.229  19.277 -0.2789  0.2289 -0.6347
 4896TIP3    H138883   6.742   0.171  19.333 -1.6125 -1.1086 -0.7100
 4896TIP3    H238884   6.755   0.277  19.225  0.9090 -1.8672 -1.2262
 4897TIP3   OH238885   5.492   0.693  16.495 -0.0871 -0.0682 -0.2985
 4897TIP3    H138886   5.546   0.618  16.521 -0.4446 -0.5989 -1.0360
 4897TIP3    H238887   5.408   0.654  16.472 -0.4231  0.6219 -0.2436
 4898TIP3   OH238888   4.559   6.939  18.930 -0.3229  0.3257  0.3128
 4898TIP3    H138889   4.611   7.019  18.925  1.7692 -1.0098 -0.9263
 4898TIP3    H238890   4.582   6.901  19.015  0.4705 -0.0596 -0.0613
 4899TIP3   OH238891   4.651   6.688  18.425  0.1120  0.4950 -0.3866
 4899TIP3    H138892   4.657   6.779  18.451  1.0335  0.1165  0.8150
 4899TIP3    H238893   4.713   6.678  18.353  0.1233  0.7855 -0.4147
 4900TIP3   OH238894   5.128   7.507  18.421  0.1402 -0.8504 -0.2843
 4900TIP3    H138895   5.075   7.572  18.467  0.3768  0.6591 -2.0331
 4900TIP3    H238896   5.162   7.450  18.490  0.6107  1.3710  1.4059
 4901TIP3   OH238897   3.280   1.033  17.671  0.5730  0.3047 -0.5459
 4901TIP3    H138898   3.277   1.077  17.756  0.7560 -0.6385 -0.0356
 4901TIP3    H238899   3.369   0.997  17.666  0.6913  0.6872 -1.3179
 4902TIP3   OH238900   1.816   5.431  19.041  0.0111 -0.4339 -0.0436
 4902TIP3    H138901   1.749   5.362  19.040  0.6668 -1.0899  0.2157
 4902TIP3    H238902   1.880   5.401  19.107  0.8250 -0.0777 -0.6550
 4903TIP3   OH238903   0.863   0.455  18.955 -0.2821 -0.1697 -0.2968
 4903TIP3    H138904   0.860   0.482  18.864  0.4795 -0.4100 -0.4042
 4903TIP3    H238905   0.776   0.474  18.990 -0.5898 -0.1326 -1.0864
 4904TIP3   OH238906   6.980   1.443  18.004  0.3355  0.5599 -0.2819
 4904TIP3    H138907   7.041   1.372  17.984 -0.6320 -0.0946 -1.0061
 4904TIP3    H238908   6.985   1.501  17.928 -0.0163  0.4544 -0.3856
 4905TIP3   OH238909   0.674   2.896  19.554 -0.1740 -0.2179 -0.1395
 4905TIP3    H138910   0.635   2.850  19.628 -1.9809  0.8795 -0.3428
 4905TIP3    H238911   0.603   2.906  19.491  0.7724  0.7364 -1.1110
 4906TIP3   OH238912   4.532   6.266  19.599  0.0002  0.3304 -0.2596
 4906TIP3    H138913   4.571   6.241  19.516 -0.9338 -2.5233  0.0227
 4906TIP3    H238914   4.601   6.251  19.664  0.1906  0.8641 -0.3369
 4907TIP3   OH238915   1.176   2.205  18.035  0.6179 -0.2445  0.6989
 4907TIP3    H138916   1.132   2.214  18.119  1.2531 -0.6069  1.0788
 4907TIP3    H238917   1.176   2.294  17.998 -0.6319 -0.2827  0.5723
 4908TIP3   OH238918   0.788   6.271  17.475 -0.3536  0.2473 -0.3468
 4908TIP3    H138919   0.798   6.219  17.395  0.7879 -0.7314  0.3937
 4908TIP3    H238920   0.738   6.215  17.534 -1.0947  0.9243 -0.3145
 4909TIP3   OH238921   4.777   0.093  17.099 -0.5462 -0.2886  0.5342
 4909TIP3    H138922   4.700   0.117  17.149 -1.3059 -0.5522 -0.4686
 4909TIP3    H238923   4.805   0.175  17.057 -0.1930 -0.1653  1.0048
 4910TIP3   OH238924   6.372   5.237  19.452  0.6661  0.1738 -0.0146
 4910TIP3    H138925   6.366   5.296  19.377 -1.6263  0.6598  0.4904
 4910TIP3    H238926   6.378   5.296  19.528 -2.6027 -0.0876  0.5781
 4911TIP3   OH238927   6.698   5.912  17.674  0.1130 -0.2585  0.0962
 4911TIP3    H138928   6.770   5.886  17.616  1.3875 -0.6555  1.7922
 4911TIP3    H238929   6.650   5.978  17.624  0.9653 -0.8189 -1.5294
 4912TIP3   OH238930   3.190   1.921  17.644 -0.0047  0.6257 -0.2258
 4912TIP3    H138931   3.113   1.868  17.621  0.3592 -1.6211  3.0714
 4912TIP3    H238932   3.264   1.862  17.634  0.8513  1.5723  0.3257
 4913TIP3   OH238933   4.490   2.372  16.913  0.3111  0.6069  0.1549
 4913TIP3    H138934   4.454   2.414  16.835 -1.1785 -1.2176 -0.2177
 4913TIP3    H238935   4.421   2.312  16.941  1.9385 -0.8430  1.2215
 4914TIP3   OH238936   6.563   7.398  18.626 -0.0587  0.3399  0.9443
 4914TIP3    H138937   6.554   7.486  18.591  1.0295  0.2822  0.4578
 4914TIP3    H238938   6.513   7.399  18.707 -2.0256  0.6956 -0.2112
 4915TIP3   OH238939   4.772   6.076  18.168  0.0620  0.2372  0.0918
 4915TIP3    H138940   4.742   6.073  18.259  0.7365 -1.5742  0.3023
 4915TIP3    H238941   4.718   6.012  18.122  1.6105 -0.9498 -0.1415
 4916TIP3   OH238942   4.354   2.821  18.728  0.2161  0.8046  0.3367
 4916TIP3    H138943   4.377   2.803  18.637 -0.4454 -0.8181  0.4662
 4916TIP3    H238944   4.434   2.803  18.777  0.0506 -0.1468  0.2676
 4917TIP3   OH238945   1.399   0.110  19.467 -0.1471  0.3349 -0.0128
 4917TIP3    H138946   1.465   0.152  19.523 -0.1488 -0.8320  0.8863
 4917TIP3    H238947   1.436   0.116  19.378  0.1564  1.6198  0.1745
 4918TIP3   OH238948   4.011   0.172  19.040 -0.1173  0.3201  0.0952
 4918TIP3    H138949   3.927   0.128  19.026  0.6756 -0.9922 -0.8002
 4918TIP3    H238950   4.045   0.186  18.951 -0.0746  2.2473  0.3844
 4919TIP3   OH238951   3.509   2.681  17.569 -0.3253 -0.7793  0.1292
 4919TIP3    H138952   3.504   2.769  17.532 -0.3892 -0.8716 -0.0843
 4919TIP3    H238953   3.570   2.689  17.642 -1.4219 -0.2293  1.0322
 4920TIP3   OH238954   3.673   5.211  18.845  0.3592  0.0022  0.3007
 4920TIP3    H138955   3.768   5.205  18.843  0.5501  2.1594  0.5555
 4920TIP3    H238956   3.651   5.210  18.938  0.0347 -1.3456  0.2261
 4921TIP3   OH238957   3.676   2.959  19.218 -0.3924  0.0461 -0.1964
 4921TIP3    H138958   3.606   2.899  19.243 -0.4282  0.2538  0.2087
 4921TIP3    H238959   3.745   2.902  19.183 -0.3614 -0.2483  0.3373
 4922TIP3   OH238960   7.372   6.478  19.174 -0.2824  0.4659 -0.9450
 4922TIP3    H138961   7.458   6.440  19.160 -0.5204 -0.8690  0.8151
 4922TIP3    H238962   7.383   6.538  19.247 -0.9866 -0.4653 -0.0304
 4923TIP3   OH238963   3.608   6.752  18.111  0.0928 -0.6909 -0.3560
 4923TIP3    H138964   3.643   6.775  18.197 -3.0844 -0.5028  1.0081
 4923TIP3    H238965   3.631   6.660  18.100  0.2131 -0.8331  0.8780
 4924TIP3   OH238966   0.165   4.397  19.785 -0.0490 -0.5962  0.6587
 4924TIP3    H138967   0.217   4.439  19.717 -0.2395  0.2404  1.0139
 4924TIP3    H238968   0.192   4.442  19.866  0.5048 -1.8701  1.2101
 4925TIP3   OH238969   2.204   4.321  18.198 -0.1398 -0.1220  0.5718
 4925TIP3    H138970   2.223   4.374  18.276 -2.5429 -1.1366  1.9617
 4925TIP3    H238971   2.162   4.382  18.138  0.4888  0.3708  0.6237
 4926TIP3   OH238972   7.445   4.539  17.601  0.0817  1.0906 -0.0275
 4926TIP3    H138973   7.534   4.511  17.620  0.4870  1.9251 -0.6730
 4926TIP3    H238974   7.396   4.516  17.680  0.5471 -0.7003 -0.2201
 4927TIP3   OH238975   6.935   4.418  19.403  0.2281  0.0781 -0.0029
 4927TIP3    H138976   6.969   4.359  19.470 -1.1458 -1.5606 -0.6670
 4927TIP3    H238977   7.006   4.480  19.386  2.1586 -2.0395 -0.0308
 4928TIP3   OH238978   7.604   4.786  16.933  0.5869  0.4321 -0.1364
 4928TIP3    H138979   7.601   4.780  17.028  0.3396  0.3771 -0.1476
 4928TIP3    H238980   7.577   4.876  16.914 -1.5339 -0.1786 -0.2559
 4929TIP3   OH238981   2.149   7.172  19.271 -0.0458  0.4989 -0.0574
 4929TIP3    H138982   2.203   7.216  19.205  0.6733 -1.2990 -0.7591
 4929TIP3    H238983   2.070   7.225  19.277  1.0248  2.2173 -0.3420
 4930TIP3   OH238984   5.695   5.961  18.400  0.3114 -0.3878  0.4789
 4930TIP3    H138985   5.639   6.004  18.465  0.7189  0.4345  0.2950
 4930TIP3    H238986   5.639   5.952  18.322 -0.5379 -2.3641  1.2392
 4931TIP3   OH238987   5.174   5.767  18.558  0.6484  0.3663 -0.0353
 4931TIP3    H138988   5.130   5.744  18.476  3.2673  0.4854 -1.5917
 4931TIP3    H238989   5.106   5.761  18.625 -1.8737  1.3702 -2.3570
 4932TIP3   OH238990   4.934   0.287  18.009  0.3633 -0.4941 -0.1428
 4932TIP3    H138991   5.023   0.315  18.031  0.8106 -0.2354 -2.0785
 4932TIP3    H238992   4.939   0.192  18.003  0.5849 -0.4610 -0.5134
 4933TIP3   OH238993   0.135   0.208  18.191  0.3309  0.0892 -0.1811
 4933TIP3    H138994   0.078   0.131  18.196  1.3487 -0.6320  1.2667
 4933TIP3    H238995   0.146   0.235  18.282  1.0306  1.1801 -0.5672
 4934TIP3   OH238996   6.180   3.726  16.784  0.3522  0.2943  0.4539
 4934TIP3    H138997   6.139   3.639  16.791 -0.4206  0.5532 -0.6795
 4934TIP3    H238998   6.273   3.708  16.775  0.1299 -0.4674 -0.5020
 4935TIP3   OH238999   5.851   4.787  18.648  0.0869 -0.1730  0.0397
 4935TIP3    H139000   5.885   4.740  18.572 -0.2482 -0.9882  0.3846
 4935TIP3    H239001   5.810   4.720  18.702  1.1310  0.2332  1.4155
 4936TIP3   OH239002   3.239   2.836  18.601  0.0953 -0.2941  0.3085
 4936TIP3    H139003   3.189   2.827  18.520 -0.5901  0.3064  0.6515
 4936TIP3    H239004   3.221   2.925  18.631  1.1824 -0.1549  0.5775
 4937TIP3   OH239005   6.932   3.854  17.955  0.1310  0.2655  0.1283
 4937TIP3    H139006   6.906   3.917  17.888  0.2428 -0.9594 -1.1100
 4937TIP3    H239007   6.937   3.905  18.035  0.0801  1.8023 -0.8062
 4938TIP3   OH239008   0.856   1.587  18.204 -0.2270  0.8665  0.1390
 4938TIP3    H139009   0.859   1.661  18.265  0.0006  1.4643 -0.5634
 4938TIP3    H239010   0.766   1.586  18.172 -0.4470  0.3040  0.7811
 4939TIP3   OH239011   2.689   1.669  16.863  0.5316  0.2923 -0.2170
 4939TIP3    H139012   2.627   1.731  16.826  1.2994  1.2618  0.0978
 4939TIP3    H239013   2.635   1.594  16.890 -0.4824  1.0821 -0.0138
 4940TIP3   OH239014   3.054   3.031  18.397  0.2905  0.0373  0.2039
 4940TIP3    H139015   3.128   3.014  18.339 -2.3093 -1.8216 -2.8857
 4940TIP3    H239016   3.022   3.117  18.371  0.5487  0.2731  0.6425
 4941TIP3   OH239017   7.447   2.711  19.069 -0.2451  0.0366 -0.8566
 4941TIP3    H139018   7.353   2.731  19.062 -0.2809 -0.1316 -0.8534
 4941TIP3    H239019   7.451   2.616  19.078 -0.0078 -0.0785 -2.0196
 4942TIP3   OH239020   5.269   7.257  18.257  0.2022  0.1582  0.5565
 4942TIP3    H139021   5.310   7.335  18.219 -1.1496  0.5024 -0.2378
 4942TIP3    H239022   5.264   7.195  18.184 -2.3834  0.8112  0.1059
 4943TIP3   OH239023   7.295   4.096  18.322 -0.5617  0.4420  0.9515
 4943TIP3    H139024   7.267   4.032  18.387 -0.7437  0.6699  1.0992
 4943TIP3    H239025   7.377   4.061  18.287 -0.9575 -0.1628  0.6127
 4944TIP3   OH239026   5.788   2.443  19.333  0.2317  0.2655  0.2911
 4944TIP3    H139027   5.736   2.419  19.256  0.5169 -0.4824  0.3304
 4944TIP3    H239028   5.763   2.534  19.350  0.0448  0.3913 -0.5881
 4945TIP3   OH239029   6.299   2.933  19.476 -0.5612 -0.1169 -0.0410
 4945TIP3    H139030   6.220   2.947  19.424 -1.0559 -0.4204  0.6155
 4945TIP3    H239031   6.293   2.842  19.504 -0.6740  0.2325  1.1336
 4946TIP3   OH239032   1.795   2.555  18.987  0.2476 -0.0778  0.2444
 4946TIP3    H139033   1.861   2.494  19.020 -1.9793 -2.1648  1.1623
 4946TIP3    H239034   1.801   2.548  18.892  0.2932 -1.4745  0.3353
 4947TIP3   OH239035   0.823   4.941  19.245  0.2312  0.1471  0.8034
 4947TIP3    H139036   0.878   4.954  19.169 -0.2495  1.6041  0.6719
 4947TIP3    H239037   0.834   5.021  19.297 -0.9596  0.0273  1.2770
 4948TIP3   OH239038   0.283   1.095  18.632 -0.5322 -0.3296 -0.4765
 4948TIP3    H139039   0.323   1.182  18.636 -1.7739  0.2502 -0.1660
 4948TIP3    H239040   0.335   1.042  18.692 -0.0156  0.3006 -0.3499
 4949TIP3   OH239041   6.123   6.248  19.152 -0.0767 -0.1270 -0.1397
 4949TIP3    H139042   6.075   6.271  19.231  2.4406 -2.3650  2.2349
 4949TIP3    H239043   6.081   6.169  19.120 -1.2388  0.9051 -1.2539
 4950TIP3   OH239044   3.079   3.561  18.508  0.2299  0.1940 -0.0129
 4950TIP3    H139045   3.099   3.603  18.424 -1.0956 -0.9010 -0.9222
 4950TIP3    H239046   3.064   3.469  18.487 -2.9547  0.3883  0.8935
 4951TIP3   OH239047   4.141   0.211  17.616 -0.0470  0.0205  0.0548
 4951TIP3    H139048   4.219   0.189  17.666  1.5120  4.2124 -0.1519
 4951TIP3    H239049   4.158   0.176  17.528  2.4929  2.0951 -0.4141
 4952TIP3   OH239050   1.115   4.887  16.959 -0.3456 -0.4807  0.4976
 4952TIP3    H139051   1.051   4.844  16.901 -1.1933 -1.5644  2.1674
 4952TIP3    H239052   1.137   4.821  17.024  2.5543 -0.1367 -0.0216
 4953TIP3   OH239053   3.361   7.110  17.447  0.3559 -0.0780 -0.4232
 4953TIP3    H139054   3.313   7.177  17.400  0.0919 -0.0980 -0.1847
 4953TIP3    H239055   3.298   7.074  17.510  0.5386 -0.4369 -0.4384
 4954TIP3   OH239056   6.923   2.650  19.051 -0.2840 -0.1024 -0.3082
 4954TIP3    H139057   6.879   2.658  19.136 -1.7820  1.0687 -1.1163
 4954TIP3    H239058   6.913   2.558  19.027  2.3640 -1.0477  1.8385
 4955TIP3   OH239059   0.584   0.851  17.862 -0.1111  0.7340  0.2791
 4955TIP3    H139060   0.500   0.833  17.821 -0.2079 -1.3341  1.2384
 4955TIP3    H239061   0.566   0.850  17.956  1.1585 -1.1363  0.5589
 4956TIP3   OH239062   2.486   0.529  19.736  0.2584  0.1088 -0.7697
 4956TIP3    H139063   2.453   0.456  19.789  0.6152  0.9164  0.6233
 4956TIP3    H239064   2.581   0.522  19.742  0.3833  2.5046  2.1452
 4957TIP3   OH239065   2.920   5.966  16.779 -0.7549 -0.2225 -0.4406
 4957TIP3    H139066   2.828   5.982  16.800 -0.0337  1.1689  2.1284
 4957TIP3    H239067   2.964   6.048  16.801  1.2375 -1.1761 -0.6594
 4958TIP3   OH239068   5.694   4.500  18.470 -0.0258  0.5632  0.1539
 4958TIP3    H139069   5.731   4.567  18.412 -0.4015  1.2129  0.6583
 4958TIP3    H239070   5.609   4.480  18.431  0.2397  0.1059 -0.2035
 4959TIP3   OH239071   7.457   5.121  16.880  0.3684  0.0597 -0.1526
 4959TIP3    H139072   7.553   5.121  16.884  0.3541  0.9795  0.4286
 4959TIP3    H239073   7.438   5.138  16.788  0.7522 -0.4313 -0.3334
 4960TIP3   OH239074   6.747   2.907  18.782  1.0823  0.8333  0.7479
 4960TIP3    H139075   6.820   2.845  18.779  0.4166  0.0608  0.2770
 4960TIP3    H239076   6.676   2.858  18.822  0.3221  1.0414 -0.3145
 4961TIP3   OH239077   6.182   4.199  18.797 -0.6352 -0.4190  0.0711
 4961TIP3    H139078   6.209   4.114  18.762 -0.7126 -0.5749  0.3847
 4961TIP3    H239079   6.236   4.212  18.874 -0.2959  0.0376 -0.2399
 4962TIP3   OH239080   5.927   1.030  19.529 -0.0272 -0.1623  0.2514
 4962TIP3    H139081   5.955   1.119  19.551 -1.4902  1.1249 -2.5812
 4962TIP3    H239082   5.860   1.042  19.461  1.0775 -3.4951 -1.6403
 4963TIP3   OH239083   3.019   4.717  17.921 -0.0617 -0.1969  0.1332
 4963TIP3    H139084   3.092   4.767  17.957 -0.4572  0.5681 -0.1156
 4963TIP3    H239085   2.941   4.764  17.949 -0.6296 -2.2443  2.3715
 4964TIP3   OH239086   2.912   7.067  16.977 -0.0397  0.5481  0.6210
 4964TIP3    H139087   2.889   7.041  16.887 -1.6050 -0.0923  1.1668
 4964TIP3    H239088   2.908   7.163  16.975  0.1795  0.5533 -0.0471
 4965TIP3   OH239089   1.474   4.259  19.270 -0.1244 -0.4997 -0.4234
 4965TIP3    H139090   1.380   4.255  19.284  0.0629 -0.0906  1.2021
 4965TIP3    H239091   1.502   4.335  19.321  0.9758 -0.0755 -1.6106
 4966TIP3   OH239092   0.043   4.513  18.882 -0.5286 -0.4476 -0.5906
 4966TIP3    H139093  -0.019   4.516  18.809 -0.3683 -0.7073 -0.7406
 4966TIP3    H239094   0.098   4.590  18.870 -0.7454 -0.2813 -0.5246
 4967TIP3   OH239095   4.764   7.556  17.997  0.4562 -0.3875  0.4173
 4967TIP3    H139096   4.740   7.627  17.937  0.9643 -1.3744 -0.9970
 4967TIP3    H239097   4.712   7.573  18.075  1.9133  2.6076  0.8828
 4968TIP3   OH239098   7.400   0.176  17.320  0.4524  0.1348  0.1508
 4968TIP3    H139099   7.392   0.166  17.415 -0.0761  0.3485  0.1338
 4968TIP3    H239100   7.486   0.140  17.299 -0.0247 -1.2540  0.5129
 4969TIP3   OH239101   5.950   1.017  17.605 -0.5888 -0.6996 -0.3518
 4969TIP3    H139102   6.006   0.985  17.535  0.3330 -2.3078  1.0564
 4969TIP3    H239103   5.985   1.104  17.625 -0.1767 -0.6773 -1.1270
 4970TIP3   OH239104   0.958   2.468  18.868  0.0586 -0.1113  0.2345
 4970TIP3    H139105   0.960   2.486  18.962  0.7104  0.2372  0.1596
 4970TIP3    H239106   0.879   2.416  18.855  0.4662 -0.9778  1.1219
 4971TIP3   OH239107   3.893   0.624  18.692  0.3008 -0.1728 -0.1653
 4971TIP3    H139108   3.903   0.711  18.653 -1.0349 -0.2865 -0.8147
 4971TIP3    H239109   3.838   0.639  18.769 -0.5640 -0.5500 -0.7080
 4972TIP3   OH239110   2.380   0.213  17.225  0.2830 -0.0636 -0.2960
 4972TIP3    H139111   2.453   0.191  17.284  1.8775 -0.7089 -2.3753
 4972TIP3    H239112   2.338   0.289  17.266  2.4243  0.6218  0.7894
 4973TIP3   OH239113   5.358   1.626  18.549  0.0886  0.7847  0.4362
 4973TIP3    H139114   5.308   1.563  18.600 -0.3630 -0.2088 -1.1454
 4973TIP3    H239115   5.447   1.623  18.585 -0.0607 -0.3629  0.7293
 4974TIP3   OH239116   5.612   6.969  18.747  0.3658 -0.4694  0.0248
 4974TIP3    H139117   5.620   7.029  18.673  0.1025 -0.6097 -0.1215
 4974TIP3    H239118   5.649   6.886  18.715  1.3551 -0.2057  0.4517
 4975TIP3   OH239119   1.231   6.986  18.347  0.3981  0.1668 -0.3411
 4975TIP3    H139120   1.171   6.931  18.398  0.1558  0.1960 -0.5945
 4975TIP3    H239121   1.222   7.073  18.385 -1.7081  0.7794 -2.0427
 4976TIP3   OH239122   7.392   5.793  19.119  0.1147  0.3802  0.0720
 4976TIP3    H139123   7.382   5.849  19.196  0.7059 -1.2884  1.4374
 4976TIP3    H239124   7.327   5.723  19.132 -0.0308  0.2657 -1.1417
 4977TIP3   OH239125   5.489   7.143  17.142  0.6884 -0.0003  0.3263
 4977TIP3    H139126   5.562   7.175  17.195 -0.6738  1.7435  1.2546
 4977TIP3    H239127   5.437   7.221  17.124 -0.1162 -0.9417 -1.6881
 4978TIP3   OH239128   2.418   3.505  18.624  0.6548  0.0348 -0.0012
 4978TIP3    H139129   2.416   3.468  18.712  0.0211  2.2908  0.9996
 4978TIP3    H239130   2.372   3.440  18.570 -1.1495 -0.2876  1.7987
 4979TIP3   OH239131   0.860   4.629  17.924 -0.2336  0.1029 -0.7052
 4979TIP3    H139132   0.898   4.563  17.866  0.3781  0.8408 -1.1694
 4979TIP3    H239133   0.887   4.601  18.012 -0.5193 -0.6024 -0.8359
 4980TIP3   OH239134   2.005   2.329  17.418  0.6957  0.5350 -0.6876
 4980TIP3    H139135   1.954   2.365  17.345 -0.2791  1.4807  0.4055
 4980TIP3    H239136   1.980   2.237  17.422  0.5573  0.5375 -1.3694
 4981TIP3   OH239137   3.869   5.068  18.459  0.1880 -0.3415  0.2640
 4981TIP3    H139138   3.952   5.114  18.470  0.3197 -0.1717 -1.3179
 4981TIP3    H239139   3.886   4.980  18.494  0.8923 -0.1773  0.3525
 4982TIP3   OH239140   0.994   0.887  18.646 -0.0253  0.1408 -0.1419
 4982TIP3    H139141   0.905   0.912  18.671  0.3935  0.1556  1.4527
 4982TIP3    H239142   1.050   0.941  18.702  0.9640 -0.8277 -0.1732
 4983TIP3   OH239143   1.876   2.380  18.765 -1.0637 -0.8989 -0.2126
 4983TIP3    H139144   1.815   2.419  18.702 -0.2901  0.7137 -0.0093
 4983TIP3    H239145   1.962   2.403  18.731 -0.6196 -0.8143  0.9590
 4984TIP3   OH239146   7.630   1.332  16.856 -0.3969  0.1258 -0.1978
 4984TIP3    H139147   7.627   1.376  16.771  0.6575 -1.9641 -1.3958
 4984TIP3    H239148   7.712   1.360  16.895  0.1063 -0.4648 -0.8066
 4985TIP3   OH239149   1.672   5.071  18.067  0.5099 -0.2464 -0.0580
 4985TIP3    H139150   1.741   5.068  18.134 -0.4510 -1.5582  0.9154
 4985TIP3    H239151   1.663   4.981  18.038  0.4045  0.1953 -1.4858
 4986TIP3   OH239152   0.668   0.536  17.075  0.3100 -0.3359 -0.0389
 4986TIP3    H139153   0.610   0.554  17.001  1.1277 -0.5440 -0.7521
 4986TIP3    H239154   0.716   0.457  17.049  0.5174 -0.4854  0.7710
 4987TIP3   OH239155   4.207   5.671  19.062  0.1748 -0.5354 -0.0629
 4987TIP3    H139156   4.278   5.683  19.125 -0.8181 -2.6412  1.5535
 4987TIP3    H239157   4.163   5.756  19.061  0.6818 -0.2118  1.4944
 4988TIP3   OH239158   3.073   5.257  18.456 -0.4410  0.2768 -0.6527
 4988TIP3    H139159   3.110   5.329  18.508  0.1399  0.3331 -1.1378
 4988TIP3    H239160   3.118   5.179  18.488 -0.2962  0.2724 -0.8663
 4989TIP3   OH239161   2.327   5.154  18.642 -0.4523 -0.0173 -0.4170
 4989TIP3    H139162   2.374   5.126  18.721 -1.3789  0.0915  0.1985
 4989TIP3    H239163   2.378   5.118  18.569  0.1512 -0.5466  0.2501
 4990TIP3   OH239164   3.274   1.662  19.344  0.3337  0.1006  0.4221
 4990TIP3    H139165   3.250   1.601  19.274  1.0246 -1.2129  1.2745
 4990TIP3    H239166   3.314   1.606  19.411 -0.3700  1.3038  1.8967
 4991TIP3   OH239167   2.386   4.420  17.799  0.0883  0.3853 -0.3180
 4991TIP3    H139168   2.330   4.438  17.723  0.0657  2.1308  0.0765
 4991TIP3    H239169   2.329   4.370  17.858 -1.3308  2.5653  0.3028
 4992TIP3   OH239170   2.877   2.629  18.616 -0.5755  0.3080 -0.2157
 4992TIP3    H139171   2.782   2.635  18.627 -0.5101  1.5756 -0.2887
 4992TIP3    H239172   2.889   2.553  18.558 -1.6334  1.0158 -1.4159
 4993TIP3   OH239173   3.450   2.469  19.352 -0.0770 -0.6251  0.0408
 4993TIP3    H139174   3.420   2.560  19.358 -1.7621 -1.1629  0.5216
 4993TIP3    H239175   3.454   2.439  19.443 -2.3022 -1.8082 -0.1680
 4994TIP3   OH239176   3.658   3.283  18.918  0.0018 -0.2906 -0.2481
 4994TIP3    H139177   3.732   3.262  18.862 -0.5212 -1.7207 -0.4505
 4994TIP3    H239178   3.623   3.365  18.882  1.3267  0.2839 -0.2745
 4995TIP3   OH239179   2.914   7.335  16.919  0.2926 -0.0099  0.3584
 4995TIP3    H139180   2.857   7.396  16.967 -1.0743 -2.0044  1.4115
 4995TIP3    H239181   2.941   7.384  16.842 -1.9677  1.4340  0.3674
 4996TIP3   OH239182   5.918   2.951  18.623 -0.3349 -0.2925  0.0615
 4996TIP3    H139183   5.853   2.992  18.567 -2.7226 -5.2062 -1.2808
 4996TIP3    H239184   6.002   2.974  18.583 -1.3265  3.4354 -0.1877
 4997TIP3   OH239185   7.106   4.477  18.411  0.3980 -0.1401  0.4618
 4997TIP3    H139186   7.021   4.511  18.384  0.6903  0.6720  0.5302
 4997TIP3    H239187   7.142   4.437  18.332  0.2095  0.0504  0.2801
 4998TIP3   OH239188   1.184   4.291  17.956  0.1360 -0.1363  0.0394
 4998TIP3    H139189   1.264   4.342  17.953 -0.0977  0.3608  1.6235
 4998TIP3    H239190   1.122   4.345  18.006 -0.9355 -0.8610 -0.4513
 4999TIP3   OH239191   5.382   2.391  17.952  0.0683 -0.0742  0.1174
 4999TIP3    H139192   5.337   2.432  17.878  0.4242 -2.0661 -1.2783
 4999TIP3    H239193   5.453   2.341  17.913  0.8797 -0.4306  1.9123
 5000TIP3   OH239194   0.411   2.904  16.575 -0.5325  0.3610 -0.3932
 5000TIP3    H139195   0.400   2.850  16.654 -0.3710  1.1283  0.1625
 5000TIP3    H239196   0.326   2.900  16.532  0.2130 -2.6171 -1.8769
 5001TIP3   OH239197   4.951   5.526  17.080 -0.3275  0.3424 -0.5187
 5001TIP3    H139198   4.934   5.450  17.025  0.4861 -1.3301  1.4474
 5001TIP3    H239199   5.039   5.554  17.056 -0.6903  0.8116 -1.3599
 5002TIP3   OH239200   3.559   6.915  19.170  0.5229  0.1608  0.1308
 5002TIP3    H139201   3.589   6.920  19.079  1.7756 -0.3144  0.4884
 5002TIP3    H239202   3.524   7.002  19.189  0.6289  0.3879 -0.6762
 5003TIP3   OH239203   7.463   1.142  19.624  0.0909  0.1660 -0.0439
 5003TIP3    H139204   7.521   1.178  19.691  0.1534 -0.7845  0.4338
 5003TIP3    H239205   7.473   1.200  19.549  0.1307  1.1643  0.7247
 5004TIP3   OH239206   1.990   6.168  19.440  0.2066  0.3537  0.1620
 5004TIP3    H139207   2.068   6.157  19.494 -0.7774 -1.8739  1.3117
 5004TIP3    H239208   2.017   6.140  19.352  0.7066 -0.5013  0.5719
 5005TIP3   OH239209   7.399   6.822  17.475 -0.1665  0.1111 -0.1134
 5005TIP3    H139210   7.376   6.761  17.545 -1.3170  0.9782  0.3170
 5005TIP3    H239211   7.367   6.780  17.395  1.4751 -1.0477 -0.1998
 5006TIP3   OH239212   4.723   4.874  17.110 -0.1560 -0.0686 -0.5365
 5006TIP3    H139213   4.630   4.877  17.132  0.2659  1.6370  1.3062
 5006TIP3    H239214   4.766   4.848  17.191  0.9591 -1.9149 -1.6502
 5007TIP3   OH239215   1.345   3.962  18.897 -0.2132  0.6243  0.4856
 5007TIP3    H139216   1.337   4.035  18.958 -0.0219 -0.6858  2.1848
 5007TIP3    H239217   1.390   3.894  18.948 -1.0711 -0.9434 -0.7546
 5008TIP3   OH239218   0.510   3.571  18.820  0.0675 -0.5993  0.0910
 5008TIP3    H139219   0.420   3.602  18.806  0.3911  0.1724 -0.3655
 5008TIP3    H239220   0.517   3.560  18.915 -0.0492  0.8622  0.3044
 5009TIP3   OH239221   2.648   0.961  17.815  0.4358 -0.2635 -0.6684
 5009TIP3    H139222   2.704   0.890  17.845 -0.4286 -0.8936 -0.5362
 5009TIP3    H239223   2.559   0.931  17.831  0.0579  1.3241  0.5250
 5010TIP3   OH239224   3.935   2.526  17.979 -0.2855 -0.2855 -0.2205
 5010TIP3    H139225   4.005   2.537  17.916 -1.7637  0.5965 -1.7742
 5010TIP3    H239226   3.966   2.455  18.037  1.3024 -0.8024 -1.6281
 5011TIP3   OH239227   6.468   0.663  17.853 -0.1064 -0.2907 -0.1886
 5011TIP3    H139228   6.542   0.688  17.909  0.0333  0.1051 -0.5423
 5011TIP3    H239229   6.487   0.573  17.827  0.6964  0.0909 -0.9728
 5012TIP3   OH239230   6.290   5.674  19.730  0.1882  0.6038  0.1438
 5012TIP3    H139231   6.290   5.756  19.779 -0.3193  1.2739 -0.9414
 5012TIP3    H239232   6.234   5.691  19.655  0.6588 -0.5162 -0.4839
 5013TIP3   OH239233   0.141   5.219  17.496  0.3349 -0.1314 -0.1001
 5013TIP3    H139234   0.055   5.260  17.511  0.5256 -0.0829  0.9034
 5013TIP3    H239235   0.145   5.148  17.559  1.8375  1.1005  1.2877
 5014TIP3   OH239236   1.388   0.023  18.992 -0.6217  0.4627 -0.1807
 5014TIP3    H139237   1.306  -0.011  19.028  0.1854 -0.4746  0.8603
 5014TIP3    H239238   1.439  -0.055  18.971 -0.5450  1.0053 -2.2182
 5015TIP3   OH239239   7.215   5.964  18.154 -0.2394 -0.4762  0.3656
 5015TIP3    H139240   7.162   6.044  18.159  1.6244  0.7740  4.3950
 5015TIP3    H239241   7.299   5.993  18.117 -0.3999 -1.2232 -0.6414
 5016TIP3   OH239242   5.332   2.289  16.934 -0.1006  0.1335 -0.1191
 5016TIP3    H139243   5.253   2.330  16.900 -0.6742 -1.1376 -0.3978
 5016TIP3    H239244   5.307   2.259  17.022  1.1742  2.8289  1.2638
 5017TIP3   OH239245   1.703   7.114  18.014 -0.1355 -0.0155 -0.8012
 5017TIP3    H139246   1.663   7.026  18.018 -0.7567  0.2600 -0.7653
 5017TIP3    H239247   1.777   7.104  17.955  0.4363 -0.8124  0.0064
 5018TIP3   OH239248   4.272   5.386  17.007 -0.5492 -0.0753 -0.2947
 5018TIP3    H139249   4.308   5.458  16.955  0.6481  0.1484  0.8009
 5018TIP3    H239250   4.177   5.390  16.991 -0.2534  0.0861 -2.3007
 5019TIP3   OH239251   2.538   6.908  18.015 -0.0356  0.3440 -0.1569
 5019TIP3    H139252   2.510   6.953  18.094  0.1218 -0.9746  0.6794
 5019TIP3    H239253   2.456   6.887  17.969 -0.1636  0.5553 -0.0251
 5020TIP3   OH239254   2.053   7.213  18.675 -0.1468  0.1263  0.1837
 5020TIP3    H139255   2.070   7.120  18.660 -0.2603  0.3295 -1.4036
 5020TIP3    H239256   2.056   7.252  18.587 -0.9163  1.4788  0.7320
 5021TIP3   OH239257   2.276   0.402  17.374  0.1938 -0.2133  0.1332
 5021TIP3    H139258   2.193   0.415  17.419  0.3030 -0.2153  0.3392
 5021TIP3    H239259   2.335   0.465  17.415  0.4628 -0.6545  0.4402
 5022TIP3   OH239260   5.662   4.302  17.786  0.1644 -0.3761  0.2638
 5022TIP3    H139261   5.729   4.369  17.793 -0.2994  0.1776 -0.4058
 5022TIP3    H239262   5.665   4.255  17.869  0.9774  0.0131  0.4612
 5023TIP3   OH239263   3.363   4.404  18.929 -0.4246  0.1511  0.2755
 5023TIP3    H139264   3.450   4.444  18.934 -0.7085  0.9903 -0.9573
 5023TIP3    H239265   3.306   4.464  18.977 -0.1694 -1.0070  2.1350
 5024TIP3   OH239266   2.895   4.647  18.676 -0.0173 -0.3574 -0.8306
 5024TIP3    H139267   2.825   4.642  18.741 -0.5547  0.0699 -1.3695
 5024TIP3    H239268   2.864   4.594  18.603  0.1025  0.0554 -1.1823
 5025TIP3   OH239269   4.676   1.485  18.609  0.1884  0.3882  0.5336
 5025TIP3    H139270   4.611   1.507  18.543  1.0332  0.7690 -0.1985
 5025TIP3    H239271   4.701   1.394  18.588  0.7934  0.6643  0.0223
 5026TIP3   OH239272   1.507   5.801  16.859 -1.0101  0.2181 -0.3399
 5026TIP3    H139273   1.579   5.804  16.795 -0.6865 -0.5236 -0.0201
 5026TIP3    H239274   1.485   5.708  16.865 -1.2455  0.3223  0.4079
 5027TIP3   OH239275   5.623   2.290  17.788  0.1544 -0.4375 -0.3337
 5027TIP3    H139276   5.605   2.205  17.747  0.0398 -0.7668  0.3838
 5027TIP3    H239277   5.621   2.353  17.715 -1.7231 -0.7619 -0.6153
 5028TIP3   OH239278   5.906   6.652  19.118  1.0489  0.5193 -0.1847
 5028TIP3    H139279   5.859   6.641  19.200  1.2579  0.0437 -0.1284
 5028TIP3    H239280   5.854   6.604  19.053  1.8646 -0.6955  0.0264
 5029TIP3   OH239281   6.460   4.815  17.736 -0.5626 -0.6923  0.0196
 5029TIP3    H139282   6.395   4.763  17.783 -1.3799  0.3143  0.0648
 5029TIP3    H239283   6.458   4.900  17.780  0.7450 -0.6108 -0.0393
 5030TIP3   OH239284   5.917   6.237  17.224 -0.5924  0.1403 -0.2164
 5030TIP3    H139285   5.925   6.199  17.137 -0.4456 -1.0540  0.2979
 5030TIP3    H239286   5.831   6.279  17.224 -0.3459  0.6687 -1.1215
 5031TIP3   OH239287   3.337   1.478  18.492  0.1503 -0.1192 -0.4092
 5031TIP3    H139288   3.400   1.425  18.443 -0.9324 -1.3425 -0.5476
 5031TIP3    H239289   3.326   1.557  18.441  1.1934 -0.1079 -0.6351
 5032TIP3   OH239290   5.195   2.755  18.003 -0.1636 -0.0601  0.5758
 5032TIP3    H139291   5.203   2.684  17.940  1.7487  2.3191 -2.1173
 5032TIP3    H239292   5.123   2.809  17.971  0.1405  0.6365  1.0147
 5033TIP3   OH239293   6.422   3.119  19.050  0.3393 -0.2047  0.0143
 5033TIP3    H139294   6.510   3.148  19.074  0.6089 -1.1498  0.2028
 5033TIP3    H239295   6.431   3.087  18.960  0.5457 -1.7470  0.5654
 5034TIP3   OH239296   1.327   3.850  16.954 -0.0035  0.3169  0.1320
 5034TIP3    H139297   1.382   3.905  16.897 -1.9584  0.8025 -1.3743
 5034TIP3    H239298   1.376   3.845  17.036  1.1891  2.6687 -0.3545
 5035TIP3   OH239299   2.167   5.536  18.765  0.2686 -0.3427 -0.6595
 5035TIP3    H139300   2.254   5.559  18.733  1.0932 -0.5797  1.2400
 5035TIP3    H239301   2.182   5.460  18.822 -0.6946  1.1778  1.8316
 5036TIP3   OH239302   6.152   0.846  19.535  0.8324  0.1236 -0.0657
 5036TIP3    H139303   6.160   0.847  19.440  1.7027 -0.0692 -0.0034
 5036TIP3    H239304   6.071   0.893  19.553  0.2394 -0.5351 -0.9345
 5037TIP3   OH239305   6.230   3.901  17.639 -0.2521 -0.2358 -0.2077
 5037TIP3    H139306   6.201   3.829  17.695 -0.1069 -0.5975 -0.5963
 5037TIP3    H239307   6.310   3.933  17.681  0.9490 -1.7615 -1.2400
 5038TIP3   OH239308   4.664   0.054  17.819 -0.4158  0.2717 -0.2138
 5038TIP3    H139309   4.590   0.051  17.758 -1.0145 -0.7985  0.5287
 5038TIP3    H239310   4.703   0.140  17.805 -1.3266  0.5512 -1.1805
 5039TIP3   OH239311   2.096   4.811  18.828 -0.1199  0.0694 -0.3690
 5039TIP3    H139312   2.047   4.752  18.886  0.9123 -1.5381 -1.0708
 5039TIP3    H239313   2.028   4.858  18.779 -0.9657 -0.2660  0.4371
 5040TIP3   OH239314   3.849   6.617  17.252 -0.3194 -0.3093 -0.3259
 5040TIP3    H139315   3.850   6.711  17.231  1.1655 -0.2432 -0.0591
 5040TIP3    H239316   3.882   6.575  17.173  0.3917 -0.4862  0.0652
 5041TIP3   OH239317   4.435   6.308  19.235  0.6786 -0.2608  0.7155
 5041TIP3    H139318   4.516   6.307  19.286 -0.2668  1.1551  2.3848
 5041TIP3    H239319   4.413   6.216  19.224  2.4908 -0.6777  0.2044
 5042TIP3   OH239320   3.171   5.757  17.331 -0.0879 -0.2973  0.0038
 5042TIP3    H139321   3.160   5.770  17.236 -1.0809 -0.7470  0.0436
 5042TIP3    H239322   3.160   5.663  17.343 -0.8833 -0.1273  0.6737
 5043TIP3   OH239323   4.008   6.878  18.757  1.3216  0.2411 -0.5538
 5043TIP3    H139324   3.941   6.862  18.690  0.0917  0.7422  0.5038
 5043TIP3    H239325   4.058   6.952  18.724  1.3585 -0.1337 -1.3590
 5044TIP3   OH239326   2.926   6.855  18.923  0.2409  0.4770 -0.7281
 5044TIP3    H139327   2.830   6.853  18.919  0.1264  1.9133  0.4185
 5044TIP3    H239328   2.953   6.773  18.882 -1.5488 -1.0158  0.8725
 5045TIP3   OH239329   0.487   6.621  18.062  0.2191  0.7759 -0.3799
 5045TIP3    H139330   0.494   6.697  18.120  0.5715  0.2445  0.2911
 5045TIP3    H239331   0.527   6.549  18.111 -0.2856  0.1064 -0.9226
 5046TIP3   OH239332   7.462   5.285  18.370 -0.3153 -0.3293  0.3061
 5046TIP3    H139333   7.507   5.340  18.306  0.6532 -1.2655  0.1600
 5046TIP3    H239334   7.388   5.339  18.399  0.4472  0.9408 -0.0198
 5047TIP3   OH239335   7.283   3.415  18.978  0.3498  0.0967  0.0346
 5047TIP3    H139336   7.293   3.483  18.912  1.1404 -0.0354  0.0068
 5047TIP3    H239337   7.370   3.408  19.018  0.6325 -1.7338 -0.8011
 5048TIP3   OH239338   1.030   3.799  19.204  0.7065 -0.2460 -0.3516
 5048TIP3    H139339   1.119   3.763  19.204  0.1101 -1.7578 -0.4224
 5048TIP3    H239340   0.973   3.725  19.185 -0.6199  0.6164  0.0914
 5049TIP3   OH239341   4.865   0.538  18.951  0.1621  0.3903  0.5032
 5049TIP3    H139342   4.859   0.549  18.856 -0.3010  0.1116  0.4984
 5049TIP3    H239343   4.868   0.628  18.985 -1.4497  0.5423  0.3308
 5050TIP3   OH239344   2.653   4.540  16.978 -0.5161  0.5794 -0.0913
 5050TIP3    H139345   2.571   4.566  16.936 -1.6100 -1.8802  0.3330
 5050TIP3    H239346   2.703   4.496  16.909 -0.7213 -0.2164  0.2503
 5051TIP3   OH239347   6.817   0.414  17.277 -0.2831  0.1554 -0.2888
 5051TIP3    H139348   6.911   0.401  17.290 -0.4885 -1.9577 -0.4890
 5051TIP3    H239349   6.810   0.454  17.190  0.4415  0.7161 -0.0939
 5052TIP3   OH239350   1.175   3.971  17.658 -0.0429 -0.0590  0.6852
 5052TIP3    H139351   1.101   3.914  17.638  0.2246  0.1626 -1.1058
 5052TIP3    H239352   1.184   3.966  17.753 -1.7328 -0.8489  0.8411
 5053TIP3   OH239353   2.092   5.170  17.469  0.5718 -0.2747  0.2246
 5053TIP3    H139354   2.110   5.133  17.383  0.3481  0.4788 -0.1592
 5053TIP3    H239355   2.153   5.244  17.477  1.4274 -1.0673  1.2213
 5054TIP3   OH239356   6.028   4.225  16.741  0.0179  0.0662  0.3851
 5054TIP3    H139357   6.077   4.307  16.746  1.4169 -0.6796 -0.5005
 5054TIP3    H239358   5.937   4.251  16.753  0.5346  1.5923  1.3525
 5055TIP3   OH239359   5.509   2.490  18.459 -0.5451 -0.4494  1.0610
 5055TIP3    H139360   5.528   2.583  18.443 -2.5177 -0.1679  0.0453
 5055TIP3    H239361   5.552   2.444  18.386  0.3794 -0.3561  1.5300
 5056TIP3   OH239362   4.704   2.866  17.346  0.2042 -0.1260 -0.5125
 5056TIP3    H139363   4.619   2.874  17.301 -0.0110 -1.7555 -0.4880
 5056TIP3    H239364   4.762   2.925  17.299 -0.6674  0.1419 -1.2865
 5057TIP3   OH239365   4.867   6.275  17.172  0.7637  0.4352  0.1403
 5057TIP3    H139366   4.845   6.357  17.214 -0.1570  1.8158 -2.7701
 5057TIP3    H239367   4.941   6.296  17.115  0.9030 -0.9215 -0.2280
 5058TIP3   OH239368   1.604   2.254  17.723 -0.7277 -0.0532  0.0651
 5058TIP3    H139369   1.672   2.217  17.780 -0.8230  0.6158  0.6289
 5058TIP3    H239370   1.525   2.205  17.746 -1.0079  0.9015  1.3010
 5059TIP3   OH239371   2.198   7.438  17.275 -0.0690  0.0466 -0.0287
 5059TIP3    H139372   2.259   7.506  17.246  0.7441 -0.9597 -0.8057
 5059TIP3    H239373   2.114   7.462  17.235  0.0966  0.8329  0.0882
 5060TIP3   OH239374   6.805   1.586  18.515  0.0214 -0.2688  0.2330
 5060TIP3    H139375   6.899   1.591  18.536 -0.0745 -0.3511  0.6825
 5060TIP3    H239376   6.795   1.646  18.441  0.0488  1.3836  1.5074
 5061TIP3   OH239377   0.536   5.375  18.742  0.1691  0.3916 -0.0001
 5061TIP3    H139378   0.479   5.320  18.688  1.5156 -1.1805  0.0712
 5061TIP3    H239379   0.478   5.416  18.805 -1.1058  0.3107 -1.0811
 5062TIP3   OH239380   1.017   7.314  16.868 -0.3274  0.0699 -0.4014
 5062TIP3    H139381   0.979   7.226  16.872  0.6255 -0.3381  0.1128
 5062TIP3    H239382   0.979   7.354  16.790 -1.2794 -0.5580 -0.2710
 5063TIP3   OH239383   6.391   0.728  18.127 -0.2766 -0.5344  0.3528
 5063TIP3    H139384   6.302   0.717  18.160 -0.3071  0.4017  0.6046
 5063TIP3    H239385   6.381   0.737  18.032 -0.9917  4.1756  0.6716
 5064TIP3   OH239386   2.521   2.731  16.854  0.1446  0.2975  0.0417
 5064TIP3    H139387   2.483   2.650  16.886  0.0336 -0.1643 -1.1983
 5064TIP3    H239388   2.605   2.705  16.815  1.2345  1.1394  1.7221
 5065TIP3   OH239389   4.903   5.555  17.446  0.1471 -0.4312  0.7305
 5065TIP3    H139390   4.897   5.612  17.369 -1.3055  2.2999  2.6729
 5065TIP3    H239391   4.813   5.524  17.459  0.7384 -2.5112  0.2895
 5066TIP3   OH239392   0.280   6.634  17.894 -0.0693  0.0591  0.1764
 5066TIP3    H139393   0.328   6.692  17.835 -1.5865 -0.0617 -1.2626
 5066TIP3    H239394   0.344   6.607  17.959  1.8797 -0.2516 -1.7596
 5067TIP3   OH239395   5.509   5.859  18.223 -0.7512 -0.0038 -0.0969
 5067TIP3    H139396   5.524   5.818  18.138 -0.1599 -2.0675  0.9564
 5067TIP3    H239397   5.440   5.807  18.263 -0.9710  0.9015  0.7406
 5068TIP3   OH239398   4.280   5.025  18.988  0.1766 -0.6838  0.3424
 5068TIP3    H139399   4.324   5.103  19.022  0.0484 -0.4009 -0.1259
 5068TIP3    H239400   4.274   4.966  19.063 -0.7772  0.2248  1.0017
 5069TIP3   OH239401   4.781   4.859  17.381  0.3104 -0.1501  0.4119
 5069TIP3    H139402   4.852   4.806  17.418  1.3754  0.2369 -1.0229
 5069TIP3    H239403   4.808   4.949  17.396 -0.7756  0.0259  1.4802
 5070TIP3   OH239404   6.494   1.227  18.252 -0.2853  0.1190  0.1885
 5070TIP3    H139405   6.444   1.286  18.195 -0.4122  0.8784  1.0559
 5070TIP3    H239406   6.580   1.268  18.257  0.4801 -1.1678 -1.2802
 5071TIP3   OH239407   2.596   2.391  17.745 -0.0282  0.3597  0.2670
 5071TIP3    H139408   2.548   2.422  17.822  1.1357  1.7511  0.4588
 5071TIP3    H239409   2.593   2.296  17.752 -0.5133  0.4533  1.6733
 5072TIP3   OH239410   1.586   2.797  18.429 -0.1501  0.2468 -0.0747
 5072TIP3    H139411   1.533   2.843  18.494 -0.5674  1.9136 -1.5369
 5072TIP3    H239412   1.535   2.719  18.408  0.0843 -0.4377  1.6816
 5073TIP3   OH239413   1.757   6.175  18.842  0.2764 -1.0500  0.3051
 5073TIP3    H139414   1.699   6.108  18.877  0.0399  0.0695  2.2245
 5073TIP3    H239415   1.845   6.149  18.872  0.2628 -0.8509  0.5281
 5074TIP3   OH239416   7.077   6.203  18.135  0.1817  0.2453  0.2059
 5074TIP3    H139417   6.982   6.213  18.128 -0.0845 -1.1197  1.3020
 5074TIP3    H239418   7.104   6.275  18.192 -0.3067  0.2504  0.4409
 5075TIP3   OH239419   3.587   3.239  19.221  0.0129 -0.7163 -1.1769
 5075TIP3    H139420   3.603   3.145  19.222  2.7222 -0.3335 -0.6230
 5075TIP3    H239421   3.601   3.265  19.130  1.9302 -0.5234 -0.8620
 5076TIP3   OH239422   0.367   6.365  18.063 -0.4957  0.8720  0.2146
 5076TIP3    H139423   0.294   6.354  18.003 -1.6635  1.0290  1.5556
 5076TIP3    H239424   0.384   6.277  18.097  0.2895  0.7503 -0.4699
 5077TIP3   OH239425   2.451   0.276  18.183  0.1930 -0.2770 -0.2823
 5077TIP3    H139426   2.425   0.187  18.159 -1.1440  0.0996 -0.3304
 5077TIP3    H239427   2.540   0.285  18.149  1.2019 -2.2933  1.5846
 5078TIP3   OH239428   2.873   2.522  17.899 -0.1897 -0.0581  0.2951
 5078TIP3    H139429   2.844   2.433  17.919  0.9115 -0.5951 -0.3641
 5078TIP3    H239430   2.876   2.566  17.984  0.4304 -1.0304  0.7997
 5079TIP3   OH239431   7.303   1.330  18.775 -0.4741  0.1667  0.1517
 5079TIP3    H139432   7.298   1.364  18.685 -0.1781  1.2921  0.5510
 5079TIP3    H239433   7.255   1.247  18.771 -0.8956  0.4376 -0.9334
 5080TIP3   OH239434   1.098   0.797  18.400  0.6437  0.3737  0.1679
 5080TIP3    H139435   1.065   0.867  18.456 -0.1378 -0.8991  1.3726
 5080TIP3    H239436   1.160   0.749  18.456  1.5396  0.3749 -0.7938
 5081TIP3   OH239437   5.677   5.311  19.241  0.0491 -0.2196  0.2445
 5081TIP3    H139438   5.640   5.369  19.308 -2.9998 -0.7915 -0.7888
 5081TIP3    H239439   5.683   5.226  19.285 -1.0847 -0.3867  0.1139
 5082TIP3   OH239440   0.081   1.186  18.462 -0.1846  0.1294 -0.3395
 5082TIP3    H139441   0.156   1.168  18.518  0.6395  0.1447 -1.4019
 5082TIP3    H239442   0.087   1.120  18.393  0.9832  2.3128 -2.4652
 5083TIP3   OH239443   1.423   6.812  18.260 -0.4160  0.1996 -0.0649
 5083TIP3    H139444   1.361   6.884  18.278 -1.2689 -0.3965 -0.5524
 5083TIP3    H239445   1.367   6.737  18.239  0.4190 -0.9435  1.5878
 5084TIP3   OH239446   5.831   0.367  18.602 -0.3623 -0.5649  0.2743
 5084TIP3    H139447   5.900   0.363  18.668  0.7374 -1.1921 -0.8868
 5084TIP3    H239448   5.844   0.451  18.558  0.8517 -1.4770 -1.1735
 5085TIP3   OH239449   7.319   4.601  18.845 -0.5206  0.0306 -0.1883
 5085TIP3    H139450   7.301   4.693  18.865  1.2862  0.4350 -0.2758
 5085TIP3    H239451   7.238   4.555  18.868 -1.4458  1.6354 -0.1410
 5086TIP3   OH239452   7.452   5.998  18.045 -0.4594 -0.7441  0.2615
 5086TIP3    H139453   7.519   5.943  18.085  2.3139  0.1957 -2.7316
 5086TIP3    H239454   7.444   5.966  17.955  1.2236  3.3973 -1.6449
 5087TIP3   OH239455   5.528   1.594  19.379 -0.1533  0.1079  0.2757
 5087TIP3    H139456   5.550   1.678  19.418 -0.7931 -0.1474  1.2319
 5087TIP3    H239457   5.476   1.616  19.302  1.8432  0.6453 -0.9840
 5088TIP3   OH239458   1.079   5.536  18.557  0.5080 -0.1472 -0.2069
 5088TIP3    H139459   1.063   5.562  18.466 -0.2538 -0.6885 -0.2399
 5088TIP3    H239460   1.156   5.586  18.583  1.1560 -0.4894 -1.3726
 5089TIP3   OH239461   5.838   4.985  19.070  0.0622  0.5886 -0.0805
 5089TIP3    H139462   5.815   4.991  18.977  1.7035 -0.3688 -0.5942
 5089TIP3    H239463   5.894   5.061  19.086 -1.2828  1.5050  0.5175
 5090TIP3   OH239464   2.029   0.800  19.683  0.3423  0.1494  0.1121
 5090TIP3    H139465   2.122   0.778  19.677  0.7518  2.0162 -5.3527
 5090TIP3    H239466   2.028   0.891  19.711  0.1480  0.1447  0.1190
 5091TIP3   OH239467   4.589   0.748  19.161  0.0689  0.0254  0.1166
 5091TIP3    H139468   4.523   0.775  19.225  0.3555  0.7449  0.1206
 5091TIP3    H239469   4.663   0.807  19.177 -0.3615  1.1790 -1.7795
 5092TIP3   OH239470   1.795   2.120  18.270  0.1854 -0.4421  0.0694
 5092TIP3    H139471   1.813   2.177  18.345 -0.8693  0.9515 -0.7053
 5092TIP3    H239472   1.701   2.127  18.256 -0.1273 -2.9673  0.3780
 5093TIP3   OH239473   1.493   0.042  17.097  0.4408 -0.2200 -0.1160
 5093TIP3    H139474   1.544   0.119  17.120  1.2334 -0.4649 -0.9877
 5093TIP3    H239475   1.489   0.042  17.002 -2.3278  0.4899 -0.0924
 5094TIP3   OH239476   6.422   0.193  18.527  0.1273 -0.0779 -0.0517
 5094TIP3    H139477   6.330   0.165  18.527  0.4401 -1.1997  0.8530
 5094TIP3    H239478   6.439   0.215  18.619  0.3609  1.5848 -0.4687
 5095TIP3   OH239479   2.410   0.871  18.109 -0.4681 -0.1957 -0.0941
 5095TIP3    H139480   2.481   0.911  18.060 -0.7015 -0.4895 -0.6835
 5095TIP3    H239481   2.332   0.886  18.056 -0.8762  0.2348  0.6012
 5096TIP3   OH239482   6.446   6.535  17.115  0.3173 -0.7295  0.8196
 5096TIP3    H139483   6.404   6.533  17.029  1.0884 -1.9150  0.4524
 5096TIP3    H239484   6.459   6.443  17.138  1.6042 -0.4167  1.4656
 5097TIP3   OH239485   2.357   3.600  17.355 -0.4077  0.3399  0.2661
 5097TIP3    H139486   2.341   3.584  17.262  0.6937 -0.6077  0.2279
 5097TIP3    H239487   2.386   3.516  17.390  1.1551  1.1644  1.0423
 5098TIP3   OH239488   2.631   0.023  17.103 -0.0443  0.0211  0.5081
 5098TIP3    H139489   2.703  -0.038  17.114 -0.3770 -0.2381  1.3464
 5098TIP3    H239490   2.644   0.061  17.016  0.9033 -0.2698  0.5147
 5099TIP3   OH239491   1.173   4.906  18.190  0.9571 -0.0802  0.2230
 5099TIP3    H139492   1.144   4.997  18.192  0.0297 -0.3780  0.7648
 5099TIP3    H239493   1.132   4.870  18.111  2.4419  0.3034 -0.7834
 5100TIP3   OH239494   6.075   4.046  17.079  0.5203 -0.0881  0.3930
 5100TIP3    H139495   6.065   4.139  17.100  1.6763  0.1243  0.0528
 5100TIP3    H239496   6.030   4.001  17.151 -1.6043  0.7291 -0.3466
 5101TIP3   OH239497   4.537   1.696  19.194  0.5804 -0.4529  0.3069
 5101TIP3    H139498   4.486   1.719  19.116  2.2609  0.1641 -0.6574
 5101TIP3    H239499   4.507   1.757  19.261  0.0313 -0.1241 -0.2279
 5102TIP3   OH239500   1.054   4.660  18.650  0.2400  0.8229 -0.6874
 5102TIP3    H139501   1.098   4.720  18.591  1.5492  0.4170 -0.1562
 5102TIP3    H239502   1.034   4.583  18.596  1.4972  0.4227 -0.6144
 5103TIP3   OH239503   2.682   4.614  17.616 -0.1464 -0.1078 -0.6149
 5103TIP3    H139504   2.617   4.551  17.583  0.3467 -0.9745  0.0114
 5103TIP3    H239505   2.764   4.564  17.617  0.3168  0.6479 -0.3760
 5104TIP3   OH239506   2.694   2.758  19.580 -0.3418 -0.0632  0.3703
 5104TIP3    H139507   2.708   2.830  19.640 -2.0567  0.1289  0.5781
 5104TIP3    H239508   2.765   2.697  19.599  0.8188  1.2947  0.5658
 5105TIP3   OH239509   7.480   2.742  17.507  0.3470  0.1140  0.2885
 5105TIP3    H139510   7.485   2.813  17.571  1.6595  0.9516 -0.6759
 5105TIP3    H239511   7.557   2.688  17.525  0.6442  0.2681 -0.4597
 5106TIP3   OH239512   5.238   3.789  17.327 -0.1813  0.5120 -0.4984
 5106TIP3    H139513   5.294   3.860  17.296  1.0703 -0.5342 -0.7131
 5106TIP3    H239514   5.262   3.714  17.272 -2.5225  0.2587 -1.3033
 5107TIP3   OH239515   6.149   6.008  18.539  0.0517 -0.4855  0.4103
 5107TIP3    H139516   6.167   5.928  18.588  0.8651  1.0345  2.7911
 5107TIP3    H239517   6.065   6.039  18.573 -0.2380 -0.2632 -0.4618
 5108TIP3   OH239518   2.285   6.280  18.639  0.5966  0.5435 -0.7589
 5108TIP3    H139519   2.327   6.359  18.605 -0.6980  2.1380  1.0730
 5108TIP3    H239520   2.196   6.308  18.661  0.9237 -0.6019  2.6074
 5109TIP3   OH239521   2.752   7.395  18.637 -0.1826  0.1767  0.0116
 5109TIP3    H139522   2.730   7.487  18.649 -2.2838 -0.4055  1.1811
 5109TIP3    H239523   2.825   7.380  18.698  0.7513  1.2135 -0.8080
 5110TIP3   OH239524   1.368   1.755  19.221 -0.2721  0.1172  0.6027
 5110TIP3    H139525   1.420   1.835  19.229  2.0392 -1.1138 -0.8274
 5110TIP3    H239526   1.416   1.690  19.273 -1.2023 -0.7251  0.4372
 5111TIP3   OH239527   2.835   4.203  18.195 -0.1647 -0.5719  0.1723
 5111TIP3    H139528   2.862   4.166  18.279 -0.5792  1.2912  1.1924
 5111TIP3    H239529   2.874   4.146  18.129 -0.6297 -2.6658  1.6093
 5112TIP3   OH239530   3.687   5.464  18.348 -0.0778  0.4875  0.1968
 5112TIP3    H139531   3.770   5.467  18.300  0.1000 -0.9399  0.3667
 5112TIP3    H239532   3.664   5.556  18.363  1.0305  0.9119 -0.6058
 5113TIP3   OH239533   1.878   5.073  18.268 -0.0868  0.0252 -0.0392
 5113TIP3    H139534   1.966   5.084  18.302  0.2171  0.3140 -0.8794
 5113TIP3    H239535   1.843   4.995  18.312  1.2937 -1.2542 -1.1160
 5114TIP3   OH239536   5.882   2.187  19.505 -0.2571 -0.7819  0.2058
 5114TIP3    H139537   5.824   2.115  19.482 -0.0425 -0.9032  0.0323
 5114TIP3    H239538   5.850   2.262  19.454 -0.7841 -0.6231  0.7610
 5115TIP3   OH239539   0.476   2.975  18.084  0.3020  0.3866 -0.0822
 5115TIP3    H139540   0.543   3.042  18.077  0.8556 -0.2481 -1.2181
 5115TIP3    H239541   0.510   2.912  18.147  0.5503  0.3295 -0.2724
 5116TIP3   OH239542   2.207   0.204  17.603 -0.1860 -0.3178  0.1204
 5116TIP3    H139543   2.145   0.200  17.531 -0.6585 -1.8947  0.5732
 5116TIP3    H239544   2.293   0.201  17.561 -0.4559 -1.4915 -0.3821
 5117TIP3   OH239545   4.942   0.012  17.795  0.1455 -0.2711  0.3267
 5117TIP3    H139546   4.858  -0.002  17.751 -0.1451  1.0295  0.4165
 5117TIP3    H239547   4.946  -0.056  17.862  0.1708 -1.7020 -1.0736
 5118TIP3   OH239548   0.835   3.540  18.492  0.0976  0.4359  0.2076
 5118TIP3    H139549   0.900   3.472  18.474 -1.9652 -1.4857 -0.4626
 5118TIP3    H239550   0.793   3.512  18.572 -0.3324  1.3321  0.3100
 5119TIP3   OH239551   4.616   4.623  18.706  0.1199  0.3141 -0.1040
 5119TIP3    H139552   4.544   4.638  18.768 -0.7448 -0.0203 -0.9969
 5119TIP3    H239553   4.691   4.601  18.761 -1.3870 -3.2365  0.7874
 5120TIP3   OH239554   6.183   4.652  19.263  0.0706 -0.2859 -0.6132
 5120TIP3    H139555   6.265   4.607  19.244  0.9543 -1.0694  3.7900
 5120TIP3    H239556   6.192   4.738  19.224  1.9057 -1.1781 -2.3060
 5121TIP3   OH239557   1.994   7.001  18.991 -0.4499  0.4237 -0.4363
 5121TIP3    H139558   2.020   6.935  18.928  2.5715  0.3601  0.7099
 5121TIP3    H239559   1.967   6.951  19.069 -0.4001  0.5313 -0.3500
 5122TIP3   OH239560   5.815   1.012  18.808 -0.5318  0.0173 -0.1815
 5122TIP3    H139561   5.741   1.071  18.819 -1.4197 -1.0840 -0.0821
 5122TIP3    H239562   5.807   0.950  18.880  0.9581  0.3376  0.3034
 5123TIP3   OH239563   2.978   5.223  18.894 -0.5754  0.0326  0.0409
 5123TIP3    H139564   2.957   5.165  18.967 -0.8372 -0.8195 -0.6855
 5123TIP3    H239565   3.074   5.228  18.894 -0.3230 -2.6261 -1.4773
 5124TIP3   OH239566   4.227   7.671  17.887  0.0187  0.1707 -0.6199
 5124TIP3    H139567   4.243   7.701  17.798 -1.1122 -0.0284 -0.9015
 5124TIP3    H239568   4.305   7.619  17.909 -0.1144 -0.5752 -1.8460
 5125TIP3   OH239569   0.781   2.684  19.368  0.4332 -0.0830 -0.2756
 5125TIP3    H139570   0.734   2.765  19.346  0.4354  0.2583  0.9243
 5125TIP3    H239571   0.726   2.642  19.434  1.0573 -0.4528  0.0088
 5126TIP3   OH239572   0.829   4.325  18.311  0.2364 -0.8711  0.0667
 5126TIP3    H139573   0.788   4.400  18.353  1.0813 -0.8156  0.8242
 5126TIP3    H239574   0.767   4.298  18.244  0.8398  1.9362 -1.8530
 5127TIP3   OH239575   5.675   0.216  18.254 -0.2154  0.0646  0.0861
 5127TIP3    H139576   5.678   0.149  18.322 -1.1488 -1.9965 -1.7806
 5127TIP3    H239577   5.594   0.264  18.270 -1.1674 -1.3471 -0.3694
 5128TIP3   OH239578   7.514   4.386  18.990 -0.2728 -0.2173  0.2153
 5128TIP3    H139579   7.478   4.466  19.029 -1.3824 -1.1004  1.0755
 5128TIP3    H239580   7.594   4.414  18.947 -0.5260  1.3194  0.6902
 5129TIP3   OH239581   2.551   4.639  17.864 -0.2022  0.6750  0.4260
 5129TIP3    H139582   2.483   4.578  17.834 -0.5365  1.4746 -0.4947
 5129TIP3    H239583   2.604   4.656  17.787 -0.6557  2.2357  0.4378
 5130TIP3   OH239584   0.256   3.801  19.002 -0.2461  0.5871  0.2584
 5130TIP3    H139585   0.213   3.715  18.994 -1.0998  0.7923  2.0950
 5130TIP3    H239586   0.186   3.864  18.986  0.6640  1.0114 -2.4302
 5131TIP3   OH239587   0.980   6.494  18.068  0.2670 -0.1678 -0.4297
 5131TIP3    H139588   1.019   6.444  18.140  0.4648 -1.7256 -1.5509
 5131TIP3    H239589   0.968   6.582  18.103 -0.1783 -1.0079  1.6811
 5132TIP3   OH239590   5.981   6.199  16.927  0.3593 -0.7948 -0.2887
 5132TIP3    H139591   6.061   6.247  16.948 -0.9901  0.7736  1.6207
 5132TIP3    H239592   6.011   6.121  16.880  3.0672 -0.6742  1.0696
 5133TIP3   OH239593   4.468   5.995  16.910  0.0908  0.0108  0.3245
 5133TIP3    H139594   4.392   6.018  16.963  0.9538 -0.3315  1.7422
 5133TIP3    H239595   4.431   5.967  16.826 -1.3809 -0.7335  1.1849
 5134TIP3   OH239596   6.729   1.925  17.636  0.6510 -0.0531 -0.3989
 5134TIP3    H139597   6.765   1.985  17.570  0.8892 -0.3641 -0.5528
 5134TIP3    H239598   6.648   1.893  17.597 -0.2900  1.3350  0.3105
 5135TIP3   OH239599   4.341   5.081  18.291  0.5120 -0.1116  0.7147
 5135TIP3    H139600   4.377   5.154  18.240  1.5535 -0.9762  0.1612
 5135TIP3    H239601   4.271   5.120  18.344  0.0109  1.0059 -0.6907
 5136TIP3   OH239602   5.200   0.357  17.166  0.4409  0.4125 -0.5380
 5136TIP3    H139603   5.263   0.287  17.182  1.0323  0.9564 -0.4582
 5136TIP3    H239604   5.115   0.319  17.189  0.7448 -0.3068 -0.5961
 5137TIP3   OH239605   2.659   7.458  19.400 -0.0005 -0.1938  0.1849
 5137TIP3    H139606   2.626   7.372  19.425  0.0068  0.0670  1.1095
 5137TIP3    H239607   2.587   7.518  19.419  0.5796  0.2230  1.0990
 5138TIP3   OH239608   3.462   2.933  17.427  0.0696 -0.7170  0.0963
 5138TIP3    H139609   3.377   2.936  17.384 -0.2658 -0.3013  0.7794
 5138TIP3    H239610   3.522   2.975  17.365 -0.5532  0.5980  0.3529
 5139TIP3   OH239611   0.932   0.563  18.383 -0.0290  0.2242 -0.1548
 5139TIP3    H139612   0.954   0.650  18.416  0.1081 -0.3649  1.3955
 5139TIP3    H239613   1.017   0.523  18.363 -0.0972  0.4706 -0.9740
 5140TIP3   OH239614   4.555   5.139  17.217 -0.1611  0.0200 -0.5142
 5140TIP3    H139615   4.570   5.175  17.130  1.2636 -0.0697 -0.3177
 5140TIP3    H239616   4.536   5.046  17.201  2.4736 -0.5684 -0.6171
 5141TIP3   OH239617   4.876   6.066  18.618 -0.1212  0.1618  0.1293
 5141TIP3    H139618   4.954   6.063  18.562 -0.8533 -1.5260 -0.8756
 5141TIP3    H239619   4.853   6.159  18.621  1.1506  0.5319 -0.6452
 5142TIP3   OH239620   1.768   1.663  18.756 -1.0018  0.0842  0.9804
 5142TIP3    H139621   1.757   1.753  18.784  1.9985  1.8152 -2.5578
 5142TIP3    H239622   1.850   1.634  18.797  0.4543  0.7042 -1.3036
 5143TIP3   OH239623   7.406   1.324  19.403  1.0851  0.2199  0.0030
 5143TIP3    H139624   7.325   1.335  19.454  0.6485  0.1257 -0.6655
 5143TIP3    H239625   7.377   1.307  19.314  1.8465  0.1008 -0.2332
 5144TIP3   OH239626   0.751   0.410  17.981  0.5656  0.4938 -0.3851
 5144TIP3    H139627   0.836   0.366  17.973 -0.5746 -2.2740  1.1590
 5144TIP3    H239628   0.692   0.357  17.929 -0.2358  2.5498 -1.6689
 5145TIP3   OH239629   1.787   6.729  19.321 -0.2456  0.3049 -0.3876
 5145TIP3    H139630   1.698   6.763  19.334  0.2636  1.2120  0.9361
 5145TIP3    H239631   1.790   6.650  19.374 -0.7003 -0.5500 -1.6042
 5146TIP3   OH239632   5.538   4.563  19.411  0.5383  1.2300  0.1652
 5146TIP3    H139633   5.609   4.585  19.352  0.3896 -0.0553 -0.5267
 5146TIP3    H239634   5.579   4.560  19.498  1.5741 -0.3975 -0.3261
 5147TIP3   OH239635   1.598   7.567  17.419  0.1856  0.6604 -0.0437
 5147TIP3    H139636   1.506   7.545  17.433 -0.0662  1.7587  0.1232
 5147TIP3    H239637   1.645   7.514  17.484 -0.2069 -0.7142 -0.8321
 5148TIP3   OH239638   5.075   4.265  17.726 -0.1627  0.0550  0.2080
 5148TIP3    H139639   5.065   4.346  17.776  0.8946 -0.5967  1.5546
 5148TIP3    H239640   4.996   4.214  17.746 -0.5902  0.5266 -0.2414
 5149TIP3   OH239641   5.564   1.294  17.206  0.2481  0.2338 -0.5005
 5149TIP3    H139642   5.515   1.376  17.215 -2.0059 -1.0626 -0.3468
 5149TIP3    H239643   5.549   1.248  17.288  0.0713 -1.0569 -1.2387
 5150TIP3   OH239644   7.504   2.155  17.435  0.0533 -0.3273  0.1791
 5150TIP3    H139645   7.429   2.110  17.396  0.6613 -0.7708 -0.5001
 5150TIP3    H239646   7.579   2.100  17.412  0.7679  0.8570 -0.3879
 5151TIP3   OH239647   5.551   5.605  19.017 -0.0456  0.3378 -0.0922
 5151TIP3    H139648   5.601   5.579  19.095  0.2959  1.5473  0.1276
 5151TIP3    H239649   5.602   5.570  18.943  1.8108  2.4380  0.0667
 5152TIP3   OH239650   3.823   2.723  19.055  0.6185  0.2061 -0.6262
 5152TIP3    H139651   3.802   2.640  19.099  1.2029  0.3819  0.0080
 5152TIP3    H239652   3.769   2.723  18.976 -1.1134  0.2921  0.5224
 5153TIP3   OH239653   3.874   4.937  16.848 -0.0312  0.3639 -0.2814
 5153TIP3    H139654   3.863   4.859  16.904 -0.0886 -0.5704 -1.5456
 5153TIP3    H239655   3.884   5.009  16.910 -1.7657 -0.3801  0.9490
 5154TIP3   OH239656   1.197   5.665  16.984 -0.3100 -0.2011  0.2947
 5154TIP3    H139657   1.135   5.609  17.029 -1.2161  0.2262 -0.3883
 5154TIP3    H239658   1.266   5.606  16.953 -1.1143 -0.8991 -0.1924
 5155TIP3   OH239659   1.559   6.575  19.393 -0.3525  0.3641  0.7627
 5155TIP3    H139660   1.497   6.624  19.338 -0.1293 -0.2935 -0.1050
 5155TIP3    H239661   1.552   6.485  19.362  1.0157  0.2719  0.6638
 5156TIP3   OH239662   2.622   1.470  17.970  0.1483  0.0547 -0.4843
 5156TIP3    H139663   2.649   1.450  18.060  2.8890  3.3993 -0.3219
 5156TIP3    H239664   2.545   1.525  17.980 -0.9633 -1.4508 -0.3976
 5157TIP3   OH239665   5.481   7.377  19.374 -0.3761 -0.0762  0.0573
 5157TIP3    H139666   5.463   7.463  19.412  0.8446 -0.0163  0.5692
 5157TIP3    H239667   5.436   7.315  19.432 -0.5701  0.1695  0.1688
 5158TIP3   OH239668   3.023   5.010  17.148  0.0384 -0.1855 -0.7550
 5158TIP3    H139669   2.961   5.026  17.077  0.4131 -0.7778 -1.2321
 5158TIP3    H239670   3.108   5.036  17.112  0.6066 -2.7015 -1.4308
 5159TIP3   OH239671   3.722   6.149  16.680  0.5321  0.1947  0.1209
 5159TIP3    H139672   3.758   6.103  16.604 -0.2271  0.9105 -0.6912
 5159TIP3    H239673   3.661   6.086  16.719  0.9007 -0.1646  0.1246
 5160TIP3   OH239674   7.138   0.754  17.974 -0.4993  0.0714 -0.3298
 5160TIP3    H139675   7.118   0.832  18.025  2.5669 -0.1250  1.3626
 5160TIP3    H239676   7.169   0.787  17.890  1.9431  0.8547  0.7947
 5161TIP3   OH239677   2.556   5.351  18.476  1.1283 -0.2421 -0.3279
 5161TIP3    H139678   2.548   5.260  18.505  3.1661  0.0077  1.2299
 5161TIP3    H239679   2.617   5.347  18.401  1.2972 -0.1559 -0.1954
 5162TIP3   OH239680   2.128   2.149  19.039  0.7159  0.0190  0.4022
 5162TIP3    H139681   2.067   2.085  19.076  1.0216 -0.8182 -0.4997
 5162TIP3    H239682   2.214   2.113  19.057  0.8888  0.1320 -0.1746
 5163TIP3   OH239683   4.481   2.363  19.455 -0.3339 -0.1271  0.2139
 5163TIP3    H139684   4.499   2.271  19.441 -0.8040 -0.3778  1.1671
 5163TIP3    H239685   4.531   2.386  19.533 -0.2347  0.4187 -0.0046
 5164TIP3   OH239686   2.302   2.788  17.503 -0.5654 -0.5371  0.3528
 5164TIP3    H139687   2.271   2.791  17.413  2.0741  0.1797 -0.6255
 5164TIP3    H239688   2.284   2.699  17.532 -0.3737 -1.1458 -1.3132
 5165TIP3   OH239689   0.181   7.200  17.200  0.2244 -0.0354 -0.2504
 5165TIP3    H139690   0.157   7.173  17.111 -1.2097  1.9868 -0.5480
 5165TIP3    H239691   0.260   7.254  17.188 -0.9905  1.7533 -0.5944
 5166TIP3   OH239692   0.662   1.995  17.114 -0.1658  0.3106  0.1487
 5166TIP3    H139693   0.571   2.020  17.095 -0.5684 -0.2871  1.2120
 5166TIP3    H239694   0.706   2.002  17.030 -1.4415 -0.3689 -0.6228
 5167TIP3   OH239695   7.302   5.586  19.607 -0.0503  0.1896  0.5703
 5167TIP3    H139696   7.224   5.639  19.623 -1.4331 -1.6961  0.4197
 5167TIP3    H239697   7.366   5.647  19.571 -1.4416  1.7903  0.6900
 5168TIP3   OH239698   6.095   0.822  18.967  0.0423 -0.3700 -0.2163
 5168TIP3    H139699   6.000   0.818  18.978 -0.1487 -2.2339 -1.9278
 5168TIP3    H239700   6.108   0.836  18.873  1.4219 -1.7340 -0.2711
 5169TIP3   OH239701   2.806   3.586  19.510  0.8080  0.0556 -0.2041
 5169TIP3    H139702   2.788   3.557  19.421 -0.2465  1.2727 -0.4188
 5169TIP3    H239703   2.723   3.575  19.556  1.3452 -0.5739  0.6595
 5170TIP3   OH239704   2.553   7.438  18.256 -0.3268 -0.2570  0.3083
 5170TIP3    H139705   2.627   7.384  18.284 -1.0461 -2.5309 -1.8152
 5170TIP3    H239706   2.584   7.481  18.176 -0.6512  0.3625  0.5126
 5171TIP3   OH239707   2.878   3.752  16.738  0.5044 -0.3746  0.4582
 5171TIP3    H139708   2.921   3.795  16.664 -1.4100  1.6014  0.4076
 5171TIP3    H239709   2.937   3.768  16.812  2.7875 -2.9517 -0.6245
 5172TIP3   OH239710   3.182   0.983  19.197 -0.1462  0.1041  0.9924
 5172TIP3    H139711   3.139   0.899  19.179  0.5126 -0.3539  1.4958
 5172TIP3    H239712   3.143   1.044  19.135 -1.8256 -0.1955  1.7042
 5173TIP3   OH239713   7.638   0.461  18.161  0.2771  0.2028  0.1199
 5173TIP3    H139714   7.731   0.456  18.183  0.3222  0.0008 -0.1141
 5173TIP3    H239715   7.623   0.388  18.101  0.0381  0.4250 -0.0948
 5174TIP3   OH239716   7.613   5.456  18.192  0.7091 -0.2058 -0.4237
 5174TIP3    H139717   7.670   5.466  18.116  1.9910  2.0032  0.7442
 5174TIP3    H239718   7.583   5.544  18.212 -0.8487 -0.9475  0.7379
 5175TIP3   OH239719   0.919   2.034  18.159  0.2399  0.1640 -0.1814
 5175TIP3    H139720   0.847   2.056  18.100 -0.1893  1.3350  0.7588
 5175TIP3    H239721   0.950   2.118  18.193  2.4409 -0.2412 -0.9856
 5176TIP3   OH239722   1.863   7.206  17.660  0.9031  0.2275 -0.3943
 5176TIP3    H139723   1.789   7.170  17.611  2.2796 -1.8540 -1.0789
 5176TIP3    H239724   1.940   7.170  17.617  2.2563  0.4707  1.6945
 5177TIP3   OH239725   6.180   1.217  16.654  0.3330  0.0077 -0.2832
 5177TIP3    H139726   6.187   1.257  16.740  0.8804 -1.2061  0.2609
 5177TIP3    H239727   6.229   1.276  16.596  0.1933  0.6869  0.2757
 5178TIP3   OH239728   4.393   2.023  17.713 -0.4244  0.3049  0.3223
 5178TIP3    H139729   4.317   2.074  17.741  0.8157  1.4900  1.6828
 5178TIP3    H239730   4.468   2.079  17.731  0.7516 -0.2883 -2.1738
 5179TIP3   OH239731   2.784   2.687  16.834 -0.2532  0.4604  0.2704
 5179TIP3    H139732   2.829   2.657  16.755  0.2097 -0.6712  0.9389
 5179TIP3    H239733   2.818   2.775  16.849  0.2599  0.3743 -0.3342
 5180TIP3   OH239734   3.140   7.630  18.313  0.0422  0.3856 -0.6398
 5180TIP3    H139735   3.191   7.562  18.357 -0.5394  1.4819  1.9156
 5180TIP3    H239736   3.061   7.585  18.284  0.4490 -0.3935 -0.5877
 5181TIP3   OH239737   4.510   3.311  17.369  0.3622  0.1279  0.2541
 5181TIP3    H139738   4.581   3.323  17.305 -0.8579 -3.1200 -2.0132
 5181TIP3    H239739   4.432   3.346  17.325 -0.3834 -1.5300  0.1943
 5182TIP3   OH239740   2.920   7.407  19.303 -1.0840 -0.1041  0.6355
 5182TIP3    H139741   2.928   7.322  19.347  0.0041 -0.0753  0.5201
 5182TIP3    H239742   2.851   7.452  19.352 -1.2212 -0.8014  1.1071
 5183TIP3   OH239743   0.694   5.552  18.598  0.6772 -0.0424 -0.2072
 5183TIP3    H139744   0.746   5.493  18.543 -0.8469  1.0078 -2.9554
 5183TIP3    H239745   0.639   5.493  18.650  0.9267 -1.0767 -1.0780
 5184TIP3   OH239746   5.448   5.323  18.685  0.3507 -0.3452  0.2560
 5184TIP3    H139747   5.385   5.356  18.621  1.3210 -0.0636 -0.5845
 5184TIP3    H239748   5.396   5.306  18.764 -0.4659  1.6479  0.1984
 5185TIP3   OH239749   3.252   0.082  19.046  0.0034  0.2044 -0.5346
 5185TIP3    H139750   3.340   0.054  19.020  0.3998 -1.5644  2.3233
 5185TIP3    H239751   3.266   0.133  19.126 -1.5382 -0.1470 -0.0064
 5186TIP3   OH239752   7.323   5.607  17.422 -0.8456 -0.0772  0.1738
 5186TIP3    H139753   7.253   5.651  17.374 -1.0841 -0.2567  0.3559
 5186TIP3    H239754   7.359   5.545  17.359  0.4822  1.3927 -0.5730
 5187TIP3   OH239755   4.445   5.740  19.220 -0.2600  0.1455  0.2104
 5187TIP3    H139756   4.500   5.701  19.288  0.1884  0.0049 -0.2267
 5187TIP3    H239757   4.502   5.746  19.144 -0.6820  0.5480 -0.0768
 5188TIP3   OH239758   4.718   3.869  18.047 -0.0225 -0.6610  0.0966
 5188TIP3    H139759   4.803   3.826  18.037 -0.6946 -2.1129  0.4395
 5188TIP3    H239760   4.739   3.956  18.081  1.4850 -0.0176 -2.2223
 5189TIP3   OH239761   1.401   7.495  17.783  0.3308  0.1953 -0.6461
 5189TIP3    H139762   1.418   7.588  17.797  0.4283  0.1167 -0.2209
 5189TIP3    H239763   1.466   7.451  17.838 -0.0610 -0.1230 -0.4349
 5190TIP3   OH239764   2.645   4.193  19.099 -0.2771  0.1487  0.2497
 5190TIP3    H139765   2.710   4.260  19.114 -0.8620  0.5255  1.1321
 5190TIP3    H239766   2.642   4.184  19.003 -1.4951  2.6913 -0.0277
 5191TIP3   OH239767   0.888   2.150  18.652 -0.3018 -0.5147  0.2007
 5191TIP3    H139768   0.904   2.084  18.584 -1.1789 -0.9520  0.4114
 5191TIP3    H239769   0.967   2.205  18.650  1.4741 -2.8352  1.4826
 5192TIP3   OH239770   0.807   2.545  17.720  0.3265  0.4428 -0.1341
 5192TIP3    H139771   0.818   2.638  17.735  0.3252  0.1561  2.0503
 5192TIP3    H239772   0.813   2.506  17.808  0.4004 -1.6108 -0.9945
 5193TIP3   OH239773   1.698   5.833  17.609 -0.0341  0.4035 -0.0649
 5193TIP3    H139774   1.704   5.893  17.535 -0.4655  0.5246 -0.0032
 5193TIP3    H239775   1.634   5.767  17.582  0.3174  0.0639 -0.0678
 5194TIP3   OH239776   3.900   2.253  17.837 -0.4734  0.1519  0.1488
 5194TIP3    H139777   3.925   2.338  17.871 -0.9976 -0.3627  1.9378
 5194TIP3    H239778   3.823   2.270  17.782 -0.9001  0.7722  0.9263
 5195TIP3   OH239779   5.663   4.175  19.461  0.1844  0.2521 -0.6733
 5195TIP3    H139780   5.728   4.237  19.495  1.5353 -1.6166  0.3290
 5195TIP3    H239781   5.671   4.182  19.366  1.6402  0.3156 -0.5710
 5196TIP3   OH239782   5.102   0.508  17.365  0.5006 -0.0240 -0.1965
 5196TIP3    H139783   5.040   0.449  17.407  0.1756  0.1864 -0.3806
 5196TIP3    H239784   5.151   0.453  17.304  1.2221 -0.4100  0.7022
 5197TIP3   OH239785   4.904   7.536  18.942 -0.0147 -0.2917 -0.6690
 5197TIP3    H139786   4.869   7.620  18.973  0.4086 -0.4183  0.1648
 5197TIP3    H239787   4.840   7.506  18.877 -1.3001 -0.3694  0.5917
 5198TIP3   OH239788   4.028   6.093  19.427  0.4760 -0.2078 -0.3904
 5198TIP3    H139789   3.958   6.038  19.462  1.8123 -0.3608  2.2841
 5198TIP3    H239790   4.095   6.030  19.398  1.0943 -0.0432  0.6491
 5199TIP3   OH239791   2.700   3.403  17.045  0.1550 -0.1333 -0.4668
 5199TIP3    H139792   2.701   3.467  16.974  0.8806  0.7305  0.2926
 5199TIP3    H239793   2.607   3.389  17.064 -0.0209  0.2296 -1.0508
 5200TIP3   OH239794   0.485   2.132  18.890  0.1487  0.5426 -0.1594
 5200TIP3    H139795   0.576   2.154  18.907 -0.1237  2.5072 -0.9375
 5200TIP3    H239796   0.479   2.125  18.795 -0.6696  1.2658 -0.1710
 5201TIP3   OH239797   1.754   7.437  17.739 -0.0976 -0.4990  0.4208
 5201TIP3    H139798   1.774   7.351  17.702  0.8813 -0.3869  0.6524
 5201TIP3    H239799   1.699   7.418  17.815 -1.5262 -0.7739 -0.6609
 5202TIP3   OH239800   3.194   0.769  18.110 -0.1622 -0.1154  0.2134
 5202TIP3    H139801   3.141   0.829  18.058  0.4890  1.6426  1.4882
 5202TIP3    H239802   3.284   0.799  18.098  0.3484 -1.6489 -0.1116
 5203TIP3   OH239803   1.731   1.462  17.101  0.6610 -0.0379 -0.3020
 5203TIP3    H139804   1.761   1.388  17.154  0.4395  0.7499  0.9656
 5203TIP3    H239805   1.644   1.435  17.071  1.1075 -0.8164 -0.9498
 5204TIP3   OH239806   0.362   5.395  18.972 -0.4224  0.1317 -0.0413
 5204TIP3    H139807   0.356   5.304  18.942 -0.0650 -0.0992  0.5807
 5204TIP3    H239808   0.280   5.435  18.943 -0.9470 -0.6093  0.3821
 5205TIP3   OH239809   2.736   1.828  19.283  0.1354 -0.1081  0.1129
 5205TIP3    H139810   2.719   1.895  19.217 -2.0779  1.0698  1.7556
 5205TIP3    H239811   2.808   1.863  19.335  0.6099 -0.1593 -0.4997
 5206TIP3   OH239812   3.198   5.433  19.368 -0.3060  0.5476  0.2077
 5206TIP3    H139813   3.211   5.525  19.392 -3.5372  1.0733  0.4913
 5206TIP3    H239814   3.182   5.434  19.274  0.0980  0.2185  0.1346
 5207TIP3   OH239815   4.856   6.073  17.761  0.0556 -0.1858 -0.3698
 5207TIP3    H139816   4.844   6.115  17.676  0.2824 -1.3455 -0.9879
 5207TIP3    H239817   4.850   5.979  17.743 -1.0631 -0.4261  1.0814
 5208TIP3   OH239818   2.462   7.308  18.684  0.3366  0.5883  0.8942
 5208TIP3    H139819   2.549   7.340  18.661 -0.4091  0.8451 -2.0161
 5208TIP3    H239820   2.420   7.381  18.729  1.1331  0.9764  1.0256
 5209TIP3   OH239821   6.101   2.526  18.096  0.2388  0.1906 -0.0043
 5209TIP3    H139822   6.123   2.613  18.063  0.8000  0.5594  1.2742
 5209TIP3    H239823   6.025   2.499  18.045  0.9124  0.8220 -1.4014
 5210TIP3   OH239824   2.903   4.323  19.176  0.0106  0.4625 -0.0510
 5210TIP3    H139825   2.915   4.239  19.220  1.9340  0.1624 -1.0402
 5210TIP3    H239826   2.944   4.311  19.090 -1.3775  1.8329 -0.9418
 5211TIP3   OH239827   0.056   5.354  16.962 -0.0838  0.1378 -0.0450
 5211TIP3    H139828   0.057   5.436  16.913  0.9759 -0.3119 -0.7986
 5211TIP3    H239829   0.061   5.286  16.896  0.7462 -0.4928  0.6561
 5212TIP3   OH239830   6.516   6.074  17.520 -0.3690 -0.1962  0.3954
 5212TIP3    H139831   6.509   6.159  17.475 -1.7371 -1.0340 -1.0632
 5212TIP3    H239832   6.431   6.061  17.561 -0.6893 -1.4871 -0.6063
 5213TIP3   OH239833   7.179   6.737  18.233 -0.5183 -0.2775 -0.1674
 5213TIP3    H139834   7.142   6.812  18.280 -1.1987  0.0633 -1.1994
 5213TIP3    H239835   7.103   6.696  18.191  0.1154 -0.2890 -1.3413
 5214TIP3   OH239836   2.928   6.583  17.395 -0.2103  0.0077  0.4531
 5214TIP3    H139837   2.966   6.506  17.437  1.2162  0.1161 -0.5839
 5214TIP3    H239838   2.851   6.604  17.449  0.4722 -0.9774  1.8794
 5215TIP3   OH239839   6.921   4.027  18.162  0.1237 -0.1814 -0.1458
 5215TIP3    H139840   6.930   4.123  18.157 -2.3934  0.1380  0.0445
 5215TIP3    H239841   6.944   4.005  18.252  0.7147  0.2276 -0.1885
 5216TIP3   OH239842   5.779   2.187  16.797  0.3729 -0.3913  0.1455
 5216TIP3    H139843   5.840   2.114  16.808  0.7719  0.0450  0.8592
 5216TIP3    H239844   5.806   2.229  16.716  0.8924 -0.3263  0.3470
 5217TIP3   OH239845   2.507   1.694  19.395  0.2080 -0.4985 -0.2844
 5217TIP3    H139846   2.498   1.715  19.488 -0.2554 -2.3524  0.1332
 5217TIP3    H239847   2.583   1.746  19.366 -1.0740  1.9807  0.4834
 5218TIP3   OH239848   3.779   7.398  19.025 -0.6545  0.0023  0.1832
 5218TIP3    H139849   3.730   7.480  19.031  0.0910  0.4075  1.0161
 5218TIP3    H239850   3.795   7.387  18.931 -1.8955  0.1157 -0.0504
 5219TIP3   OH239851   5.293   4.128  18.286 -0.0523  0.2146 -0.1787
 5219TIP3    H139852   5.225   4.195  18.280 -0.0404  0.1905 -0.6423
 5219TIP3    H239853   5.252   4.057  18.336 -0.3458  0.2274 -0.3969
 5220TIP3   OH239854   6.726   1.324  17.678 -0.7324 -0.0864  0.0328
 5220TIP3    H139855   6.782   1.303  17.603  0.6128 -0.2496  1.0539
 5220TIP3    H239856   6.757   1.410  17.707 -1.2039 -0.0517  0.4445
 5221TIP3   OH239857   1.256   5.137  17.863 -0.0860  0.1449 -0.2579
 5221TIP3    H139858   1.184   5.115  17.803 -1.1335 -0.5677  1.1979
 5221TIP3    H239859   1.290   5.220  17.830 -2.5881  1.3056 -0.1653
 5222TIP3   OH239860   1.338   4.728  17.287  0.1033 -1.0746  0.1153
 5222TIP3    H139861   1.407   4.687  17.235 -0.3576 -1.4363 -0.2253
 5222TIP3    H239862   1.256   4.701  17.244 -0.2102  1.6562 -1.2149
 5223TIP3   OH239863   4.090   5.143  17.627 -0.4691 -0.0835  0.0266
 5223TIP3    H139864   4.107   5.222  17.678 -1.1942  0.8299 -1.0938
 5223TIP3    H239865   3.995   5.143  17.613 -0.1697  0.4672 -2.4752
 5224TIP3   OH239866   5.564   3.021  18.670 -0.0704 -0.0124  0.6120
 5224TIP3    H139867   5.488   3.000  18.725 -0.1823 -2.7546 -0.4322
 5224TIP3    H239868   5.528   3.031  18.582  0.6123 -0.0316  0.3217
 5225TIP3   OH239869   2.223   5.094  17.844  0.1413  0.5620  0.3673
 5225TIP3    H139870   2.175   5.170  17.812 -0.2458 -0.5471 -1.8439
 5225TIP3    H239871   2.155   5.032  17.872  0.2578 -0.3671 -1.2620
 5226TIP3   OH239872   7.019   2.295  17.379 -0.4002 -0.1504  0.0150
 5226TIP3    H139873   7.082   2.263  17.315  2.2526 -1.7712  3.0972
 5226TIP3    H239874   7.038   2.389  17.386  0.1710 -0.2107 -0.6207
 5227TIP3   OH239875   4.903   7.493  19.221 -0.1724  0.2936  0.3755
 5227TIP3    H139876   4.847   7.568  19.241 -0.9430  0.0591 -0.7883
 5227TIP3    H239877   4.888   7.477  19.128  0.6442 -0.7693  0.4133
 5228TIP3   OH239878   0.062   5.911  17.369 -0.2149 -0.1393 -0.4693
 5228TIP3    H139879   0.081   5.851  17.297  1.1710 -0.7382  0.3643
 5228TIP3    H239880  -0.004   5.865  17.421 -0.6160 -0.0580 -0.8929
 5229TIP3   OH239881   2.804   5.198  18.518  0.4727  0.3177 -0.3247
 5229TIP3    H139882   2.764   5.136  18.458 -0.6620  0.4844  0.2308
 5229TIP3    H239883   2.886   5.222  18.476  0.0027 -0.0420 -1.4976
 5230TIP3   OH239884   7.674   3.914  18.981 -0.5945  0.2358  0.0902
 5230TIP3    H139885   7.681   4.006  18.955  1.2370 -0.0321 -0.5166
 5230TIP3    H239886   7.620   3.874  18.913  0.6337  0.4039 -1.0331
 5231TIP3   OH239887   6.101   0.628  16.626 -0.2855 -0.9113  0.8230
 5231TIP3    H139888   6.121   0.671  16.543 -1.6748  0.2137  1.0402
 5231TIP3    H239889   6.155   0.549  16.625  1.0489 -0.0487 -0.3599
 5232TIP3   OH239890   2.746   1.004  19.096  0.4457  0.0657 -0.1848
 5232TIP3    H139891   2.749   0.908  19.089 -0.5995 -0.0584  0.8223
 5232TIP3    H239892   2.680   1.030  19.032  0.5448  0.0892 -0.2780
 5233TIP3   OH239893   1.447   3.750  19.098  0.5091 -0.3316 -0.1727
 5233TIP3    H139894   1.441   3.830  19.151 -2.2392 -1.0077  0.7136
 5233TIP3    H239895   1.503   3.691  19.149 -0.0223 -0.0615  0.7554
 5234TIP3   OH239896   0.820   6.347  17.138  0.2595 -0.2283 -0.2086
 5234TIP3    H139897   0.833   6.267  17.189  0.2264 -1.6038 -2.2447
 5234TIP3    H239898   0.727   6.346  17.116  0.2483  0.4063 -0.2079
 5235TIP3   OH239899   4.395   0.238  19.350 -0.4027 -0.5971  0.3455
 5235TIP3    H139900   4.305   0.217  19.328 -0.9121  1.0577  0.7361
 5235TIP3    H239901   4.446   0.206  19.275 -1.3566 -1.0642 -0.1215
 5236TIP3   OH239902   5.771   0.554  18.371  0.2466 -0.3119  0.4916
 5236TIP3    H139903   5.702   0.499  18.335  0.4369 -1.1752  1.3859
 5236TIP3    H239904   5.727   0.615  18.430  0.1369 -0.1632  0.2546
 5237TIP3   OH239905   4.623   3.843  17.725 -0.3231 -0.3632 -0.4198
 5237TIP3    H139906   4.713   3.862  17.698 -1.0088  0.8778 -2.0012
 5237TIP3    H239907   4.632   3.792  17.805  1.7521  2.3898  1.2671
 5238TIP3   OH239908   5.594   0.297  19.491  0.3758  0.5468 -0.2606
 5238TIP3    H139909   5.664   0.343  19.538 -0.5371  1.3485  0.3662
 5238TIP3    H239910   5.609   0.318  19.399  0.0338  2.0751  0.0010
 5239TIP3   OH239911   5.562   1.230  16.655  0.1920  0.3202 -0.0009
 5239TIP3    H139912   5.540   1.211  16.746  1.3142  1.1914  0.4729
 5239TIP3    H239913   5.517   1.312  16.636  0.5498  0.5133 -0.0072
 5240TIP3   OH239914   6.811   2.438  19.766 -0.8143 -0.1620 -0.3978
 5240TIP3    H139915   6.797   2.344  19.775  0.6351 -0.3238  0.5082
 5240TIP3    H239916   6.783   2.475  19.850 -1.2343  0.2177 -0.6949
 5241TIP3   OH239917   0.398   1.845  18.881  0.1955  0.0614 -0.3529
 5241TIP3    H139918   0.483   1.805  18.899 -0.2281 -0.7219 -0.0476
 5241TIP3    H239919   0.419   1.929  18.841  1.1131 -0.1742 -0.3854
 5242TIP3   OH239920   4.643   5.951  18.377 -0.0472  0.3422  0.3308
 5242TIP3    H139921   4.598   6.035  18.370  1.3342  1.0772 -0.0809
 5242TIP3    H239922   4.667   5.945  18.470  1.4212  1.2715  0.0347
 5243TIP3   OH239923   0.832   0.973  18.094 -0.5027  0.4028  0.6393
 5243TIP3    H139924   0.861   1.064  18.093  1.7252 -0.2044 -2.1080
 5243TIP3    H239925   0.910   0.923  18.119 -1.1670 -0.8681  0.2613
 5244TIP3   OH239926   6.725   4.790  18.902  0.6344 -0.4663  0.1509
 5244TIP3    H139927   6.671   4.848  18.847  1.0534  0.7942  1.0354
 5244TIP3    H239928   6.803   4.841  18.922  0.7790 -1.1491  1.4075
 5245TIP3   OH239929   6.457   3.228  18.439  0.3147  0.7604  0.3467
 5245TIP3    H139930   6.511   3.262  18.511 -0.1156 -1.8980  2.0591
 5245TIP3    H239931   6.483   3.137  18.430  0.4128  0.9835 -3.0631
 5246TIP3   OH239932   2.902   1.183  18.420 -0.4731 -0.2013 -0.2087
 5246TIP3    H139933   2.897   1.102  18.470 -2.0789  0.8144  1.3934
 5246TIP3    H239934   2.991   1.215  18.436 -0.0039 -1.3767 -0.4288
 5247TIP3   OH239935   3.612   1.181  18.910  0.6393  0.3385 -0.2587
 5247TIP3    H139936   3.635   1.254  18.968  0.5692  0.4027 -0.3114
 5247TIP3    H239937   3.517   1.175  18.917  0.5011  1.0872 -1.2584
 5248TIP3   OH239938   2.445   4.376  18.855 -0.5835  0.4445 -0.1565
 5248TIP3    H139939   2.423   4.353  18.945  0.3735  0.0814 -0.0133
 5248TIP3    H239940   2.369   4.427  18.825 -1.6381 -0.8021  0.3116
 5249TIP3   OH239941   4.744   6.369  18.331  0.3793 -0.5363 -0.0840
 5249TIP3    H139942   4.742   6.455  18.289  0.4404  0.7736  2.3927
 5249TIP3    H239943   4.829   6.333  18.308  0.3689  0.0547 -1.1365
 5250TIP3   OH239944   4.886   4.059  19.449 -0.2715 -0.1112  0.1154
 5250TIP3    H139945   4.841   4.091  19.371 -2.9403 -0.9441  1.1636
 5250TIP3    H239946   4.823   3.999  19.489  1.2345 -0.1908  2.5848
 5251TIP3   OH239947   3.786   4.771  17.568  0.4481  1.0047 -0.2820
 5251TIP3    H139948   3.769   4.770  17.474 -1.3065 -0.3799 -0.0178
 5251TIP3    H239949   3.710   4.816  17.606  1.5917  2.4066  0.4284
 5252TIP3   OH239950   7.445   1.663  17.345 -0.1179 -0.7466  0.1489
 5252TIP3    H139951   7.488   1.599  17.287  0.4608  0.8027 -1.2368
 5252TIP3    H239952   7.434   1.741  17.290  1.1545  1.0975  2.3179
 5253TIP3   OH239953   2.672   5.939  19.123 -0.4968  0.3083  0.2290
 5253TIP3    H139954   2.591   5.892  19.104  0.7618 -1.3563 -1.3848
 5253TIP3    H239955   2.686   5.926  19.217 -2.4240  1.2831  0.7096
 5254TIP3   OH239956   3.159   5.129  18.060 -0.3818  0.1607 -0.1937
 5254TIP3    H139957   3.233   5.177  18.022 -0.0463 -0.6166 -0.5679
 5254TIP3    H239958   3.092   5.195  18.074 -0.3205  0.5729 -1.6729
 5255TIP3   OH239959   1.415   1.468  18.809 -0.1907  0.2293  0.5358
 5255TIP3    H139960   1.435   1.555  18.844  0.6151 -0.1589  1.0833
 5255TIP3    H239961   1.501   1.430  18.791 -0.5027 -0.7921  1.1506
 5256TIP3   OH239962   1.609   0.298  19.459  0.4138 -0.3313  0.8320
 5256TIP3    H139963   1.680   0.272  19.517 -0.1929 -2.7229  0.6283
 5256TIP3    H239964   1.652   0.338  19.384  1.5544 -1.6606  0.7500
 5257TIP3   OH239965   1.811   6.412  17.666  0.1475 -0.3161  0.1189
 5257TIP3    H139966   1.798   6.360  17.746  1.1467 -0.1790  0.3822
 5257TIP3    H239967   1.743   6.381  17.606  0.2452 -1.3984  0.5393
 5258TIP3   OH239968   7.557   4.725  19.427  0.4393  0.5864 -0.2019
 5258TIP3    H139969   7.606   4.792  19.476 -0.7922  0.5953  1.1133
 5258TIP3    H239970   7.498   4.687  19.492 -0.3289 -0.3588 -1.4076
 5259TIP3   OH239971   0.850   6.529  17.833  0.8184 -0.0695  0.2166
 5259TIP3    H139972   0.809   6.609  17.866  0.8901  0.4868 -0.9813
 5259TIP3    H239973   0.888   6.488  17.910 -0.0965  0.5262  1.0173
 5260TIP3   OH239974   3.246   3.107  19.538  0.0617  0.4811 -0.0935
 5260TIP3    H139975   3.194   3.160  19.478 -1.1717  0.7224  1.1526
 5260TIP3    H239976   3.323   3.160  19.557  0.9038  0.0737 -2.0433
 5261TIP3   OH239977   1.437   2.937  19.221  0.1216 -0.0044 -0.5913
 5261TIP3    H139978   1.514   2.937  19.278 -0.5552  0.3325  0.3403
 5261TIP3    H239979   1.416   3.030  19.211 -2.1660 -0.1323  1.9648
 5262TIP3   OH239980   3.047   0.562  19.331 -0.0871  0.4394  0.2753
 5262TIP3    H139981   3.016   0.508  19.404 -0.6136 -0.6084 -0.6842
 5262TIP3    H239982   3.142   0.564  19.341 -0.0426 -0.7493  0.3196
 5263TIP3   OH239983   3.083   6.076  18.766  0.0929 -0.0604 -0.6200
 5263TIP3    H139984   3.002   6.111  18.727 -0.7110 -2.0077 -0.8174
 5263TIP3    H239985   3.063   6.065  18.859  0.6942  0.9261 -0.3574
 5264TIP3   OH239986   3.755   2.242  19.234  0.3710  0.5565 -0.1761
 5264TIP3    H139987   3.719   2.188  19.163 -0.4437  0.5258  0.2543
 5264TIP3    H239988   3.694   2.231  19.306  1.0156  0.8600  0.4282
 5265TIP3   OH239989   1.330   4.873  17.877  0.2968  0.0210  0.3477
 5265TIP3    H139990   1.338   4.967  17.864 -0.7756  0.0474 -0.2810
 5265TIP3    H239991   1.235   4.858  17.878  0.4614 -1.0948  0.0554
 5266TIP3   OH239992   5.565   0.754  17.840 -0.2868 -0.4333  0.0565
 5266TIP3    H139993   5.597   0.777  17.753 -1.6833  1.4770 -0.0180
 5266TIP3    H239994   5.633   0.785  17.900  0.4003 -1.2075 -0.3032
 5267TIP3   OH239995   3.831   2.392  17.384  0.2170  0.2998  0.3241
 5267TIP3    H139996   3.800   2.482  17.371 -0.8519  0.0382  0.9582
 5267TIP3    H239997   3.860   2.365  17.297 -0.1749  0.9946 -0.0396
 5268TIP3   OH239998   7.103   5.403  16.490 -0.3704 -0.4494  0.2268
 5268TIP3    H139999   7.105   5.487  16.443  0.7579 -0.7916 -0.3705
 5268TIP3    H240000   7.014   5.370  16.477 -0.0461 -0.6207 -1.8548
 5269TIP3   OH240001   0.696   5.705  17.927 -0.8041 -0.1059 -0.2279
 5269TIP3    H140002   0.625   5.680  17.868 -0.0905 -0.6116 -0.8960
 5269TIP3    H240003   0.710   5.798  17.911 -1.9456  0.2352  0.6088
 5270TIP3   OH240004   1.774   2.129  17.913 -0.0259 -0.0599  0.2694
 5270TIP3    H140005   1.849   2.098  17.964  1.0760  1.9471  0.0050
 5270TIP3    H240006   1.767   2.068  17.840 -0.6615 -2.0839  1.9305
 5271TIP3   OH240007   3.340   1.159  19.003  0.1639  0.7976 -0.1617
 5271TIP3    H140008   3.321   1.086  18.945  3.8570  0.7756 -1.6397
 5271TIP3    H240009   3.303   1.235  18.958 -0.8346  0.2622 -0.2746
 5272TIP3   OH240010   4.596   0.751  17.541  0.1318  0.0156  0.2268
 5272TIP3    H140011   4.608   0.773  17.449 -2.0167  0.4391 -0.0270
 5272TIP3    H240012   4.643   0.819  17.589  0.6955  0.1838 -0.5619
 5273TIP3   OH240013   4.089   4.190  17.815  0.0820  0.1960 -0.1395
 5273TIP3    H140014   4.094   4.096  17.801  1.0393  0.6301 -3.4369
 5273TIP3    H240015   3.999   4.213  17.795 -0.4228 -0.0699  1.6346
 5274TIP3   OH240016   1.008   6.079  19.049  0.3826  0.7354 -0.1668
 5274TIP3    H140017   0.948   6.128  19.106 -0.1070  3.0757 -2.4675
 5274TIP3    H240018   0.952   6.047  18.978  1.1106 -1.3194  0.1325
 5275TIP3   OH240019   1.910   5.386  18.216  0.3471  0.5697  0.0452
 5275TIP3    H140020   1.874   5.300  18.236  1.8027 -0.0355  0.1720
 5275TIP3    H240021   1.836   5.446  18.226 -0.5852 -0.6020  0.3847
 5276TIP3   OH240022   2.484   0.568  17.423 -0.2672  0.1382  0.0041
 5276TIP3    H140023   2.461   0.636  17.486  1.9270  0.1151  0.9215
 5276TIP3    H240024   2.561   0.602  17.378 -0.2685 -0.9480 -0.8623
 5277TIP3   OH240025   1.932   0.743  19.035 -0.5919 -0.4974 -0.7834
 5277TIP3    H140026   1.927   0.774  19.125 -1.3897 -2.1227 -0.2208
 5277TIP3    H240027   1.970   0.815  18.986 -1.7845  1.0915  0.5386
 5278TIP3   OH240028   2.745   1.430  16.676  0.3800 -0.1069 -0.1246
 5278TIP3    H140029   2.667   1.445  16.623  0.0505 -0.6665  0.1888
 5278TIP3    H240030   2.745   1.501  16.740  0.1127 -0.1245 -0.1051
 5279TIP3   OH240031   3.700   5.031  17.844 -0.0030 -0.5580  0.5268
 5279TIP3    H140032   3.756   4.967  17.889 -0.9959 -2.9581 -1.4253
 5279TIP3    H240033   3.709   5.111  17.896  1.9960 -2.0027  2.6209
 5280TIP3   OH240034   3.588   1.442  18.709  0.7260  0.3256  0.0080
 5280TIP3    H140035   3.601   1.494  18.630 -2.7685  1.5719  0.0676
 5280TIP3    H240036   3.626   1.496  18.779 -1.7487  2.4357 -0.0974
 5281TIP3   OH240037   2.450   1.617  17.410 -0.6357  0.1853  0.1416
 5281TIP3    H140038   2.425   1.671  17.336 -2.3402 -0.4823  0.1717
 5281TIP3    H240039   2.453   1.528  17.375 -0.8516 -0.0598  0.7356
 5282TIP3   OH240040   0.072   4.248  17.784  0.1158  0.1013  0.4040
 5282TIP3    H140041   0.065   4.152  17.789 -0.6464  0.1959  1.6857
 5282TIP3    H240042   0.156   4.268  17.825  0.1114  0.0051  0.4601
 5283TIP3   OH240043   5.053   4.541  17.231 -0.1176 -0.1702  0.3908
 5283TIP3    H140044   5.109   4.464  17.225 -0.9984 -1.0820  2.4700
 5283TIP3    H240045   4.987   4.528  17.163  1.0139 -0.1141 -0.7324
 5284TIP3   OH240046   4.845   6.000  17.155 -0.1373  0.1287 -0.2751
 5284TIP3    H140047   4.852   6.096  17.149  0.1773  0.1935  0.7823
 5284TIP3    H240048   4.933   5.972  17.182 -0.1558 -0.4871 -0.8374
 5285TIP3   OH240049   2.433   3.355  17.357 -0.3359  0.5018  0.0501
 5285TIP3    H140050   2.520   3.381  17.388 -0.1120  0.8061 -0.8208
 5285TIP3    H240051   2.448   3.279  17.301 -0.8609 -0.7880  1.5594
 5286TIP3   OH240052   4.030   1.207  17.643  0.1181  0.1456 -0.2887
 5286TIP3    H140053   4.098   1.141  17.635 -0.7808 -0.8593  0.1131
 5286TIP3    H240054   4.075   1.285  17.676  0.9381 -0.7247  0.6969
 5287TIP3   OH240055   6.002   3.692  18.191  0.0502 -0.2965  0.3342
 5287TIP3    H140056   5.989   3.679  18.285  0.1934  0.5770  0.4840
 5287TIP3    H240057   5.988   3.605  18.153  0.2375 -0.7140  1.1856
 5288TIP3   OH240058   3.008   4.225  17.521 -0.4692 -0.6681 -0.2100
 5288TIP3    H140059   2.976   4.291  17.459  0.5283 -0.5572 -0.6215
 5288TIP3    H240060   2.940   4.157  17.519 -0.8614 -0.2766 -0.7928
 5289TIP3   OH240061   1.505   1.549  17.638 -0.7953  0.4497  0.3345
 5289TIP3    H140062   1.507   1.519  17.728  0.2638 -1.1024 -0.1749
 5289TIP3    H240063   1.567   1.622  17.635  2.2482 -1.9747  0.0888
 5290TIP3   OH240064   3.227   6.037  18.393 -0.1568  0.3478  0.4383
 5290TIP3    H140065   3.174   5.962  18.421  0.9090 -0.1366  1.2078
 5290TIP3    H240066   3.168   6.112  18.399 -1.1128 -0.3517  0.0781
 5291TIP3   OH240067   6.984   0.610  19.274  0.1222 -0.2093  0.0967
 5291TIP3    H140068   6.939   0.689  19.305 -0.2764 -0.2397 -0.4028
 5291TIP3    H240069   7.051   0.643  19.214  0.5523 -0.1905  0.5763
 5292TIP3   OH240070   4.208   6.401  18.873  0.2393 -0.1719  0.3279
 5292TIP3    H140071   4.300   6.430  18.872  0.5775 -0.6015 -4.6384
 5292TIP3    H240072   4.161   6.472  18.830 -1.2481 -1.2888  0.0725
 5293TIP3   OH240073   4.960   0.097  19.049 -0.1724  0.2194 -0.6715
 5293TIP3    H140074   4.945   0.189  19.029 -0.4656  0.3336  0.0501
 5293TIP3    H240075   5.019   0.097  19.124  0.6422 -0.1973 -1.2922
 5294TIP3   OH240076   5.015   5.440  19.277 -0.2113 -0.1731  0.1922
 5294TIP3    H140077   4.966   5.362  19.256 -1.5432  0.7979 -0.4249
 5294TIP3    H240078   4.995   5.502  19.207 -0.2216  1.1608  1.3137
 5295TIP3   OH240079   1.710   0.388  18.652  0.1384  0.3485 -0.1257
 5295TIP3    H140080   1.787   0.340  18.620  0.6715  1.9748 -1.4406
 5295TIP3    H240081   1.742   0.437  18.727 -0.6227 -1.9058  1.7941
 5296TIP3   OH240082   4.053   6.495  18.489 -0.3142  0.3693  0.3433
 5296TIP3    H140083   4.132   6.478  18.438  0.1212 -0.7228  1.3376
 5296TIP3    H240084   3.983   6.451  18.440 -0.3655  1.4676 -0.6207
 5297TIP3   OH240085   7.464   2.943  17.693  0.4859  0.3029 -0.4747
 5297TIP3    H140086   7.535   3.007  17.687 -0.1857  1.1375  0.2401
 5297TIP3    H240087   7.386   2.995  17.715 -0.1409 -0.7182 -0.1986
 5298TIP3   OH240088   2.806   0.795  17.589  0.0469  0.1685  0.0064
 5298TIP3    H140089   2.808   0.811  17.683  0.2077 -0.2416  0.0728
 5298TIP3    H240090   2.742   0.858  17.555 -1.2037 -0.7408  0.6081
 5299TIP3   OH240091   4.609   0.362  17.436  0.0117  0.0567 -0.3834
 5299TIP3    H140092   4.677   0.377  17.370  0.8349 -2.4100 -0.2086
 5299TIP3    H240093   4.552   0.295  17.397  0.1989 -1.0468  1.1450
 5300TIP3   OH240094   2.302   6.966  19.466  0.5379 -0.3336 -0.4882
 5300TIP3    H140095   2.288   7.011  19.382 -1.7241 -0.3859 -0.2013
 5300TIP3    H240096   2.377   6.909  19.450  1.4507  1.1558 -1.8488
 5301TIP3   OH240097   6.381   6.630  19.173 -0.0491 -0.1112 -0.1523
 5301TIP3    H140098   6.393   6.613  19.266 -1.8031 -1.2663 -0.0797
 5301TIP3    H240099   6.318   6.563  19.145  0.3676  0.2669 -2.1511
 5302TIP3   OH240100   2.672   4.063  17.916 -0.4554 -0.0266  0.3739
 5302TIP3    H140101   2.690   4.152  17.884 -0.1283 -0.3831 -0.4488
 5302TIP3    H240102   2.634   4.018  17.841  1.0588 -1.1133  0.2307
 5303TIP3   OH240103   2.311   0.434  19.556  0.1600 -0.0384  0.2212
 5303TIP3    H140104   2.296   0.511  19.502  0.7476  0.6945  1.0696
 5303TIP3    H240105   2.396   0.450  19.598 -0.2436 -0.6097  1.3026
 5304TIP3   OH240106   5.993   7.556  18.980 -0.0434  0.3225  0.1207
 5304TIP3    H140107   5.958   7.545  19.068  2.0865  1.9974  1.2897
 5304TIP3    H240108   5.949   7.634  18.946 -0.4139  0.0350 -0.0670
 5305TIP3   OH240109   4.094   4.410  17.276  0.3769 -0.1916  0.2215
 5305TIP3    H140110   4.128   4.394  17.364 -0.8548  0.8833  0.9261
 5305TIP3    H240111   4.071   4.503  17.276  2.7838  0.5181 -2.1121
 5306TIP3   OH240112   2.333   4.608  18.158  0.2195 -0.2058 -0.1400
 5306TIP3    H140113   2.379   4.548  18.217  0.2869  0.7012  0.7559
 5306TIP3    H240114   2.374   4.693  18.174  0.4248  0.0158 -1.7079
 5307TIP3   OH240115   0.167   1.298  19.627  0.3609  0.0422 -0.1801
 5307TIP3    H140116   0.103   1.341  19.570  1.2500  0.8240 -0.6108
 5307TIP3    H240117   0.215   1.239  19.570 -0.3452 -0.9739  0.2608
 5308TIP3   OH240118   2.334   6.281  17.758 -0.6994 -0.1834  0.6400
 5308TIP3    H140119   2.265   6.346  17.773 -0.3298  0.4509 -0.2766
 5308TIP3    H240120   2.308   6.235  17.678 -0.5873 -0.6601  0.8739
 5309TIP3   OH240121   6.910   7.374  18.512 -0.1261  0.0776  0.0153
 5309TIP3    H140122   6.864   7.294  18.486 -0.1789  0.2922 -0.5607
 5309TIP3    H240123   6.885   7.439  18.446  1.4830  0.0379 -0.6893
 5310TIP3   OH240124   0.637   0.787  18.173 -0.2249 -0.1197 -0.2907
 5310TIP3    H140125   0.628   0.810  18.266 -2.0684  1.8384 -0.8760
 5310TIP3    H240126   0.713   0.836  18.143 -2.7415  3.7873 -0.9573
 5311TIP3   OH240127   2.853   6.255  17.535  0.6328  0.1123 -0.2506
 5311TIP3    H140128   2.791   6.255  17.462  0.0147  3.4960  0.0973
 5311TIP3    H240129   2.839   6.339  17.578  1.7959 -1.2364  3.1112
 5312TIP3   OH240130   0.834   3.703  18.798  0.1476 -0.3475  0.3683
 5312TIP3    H140131   0.740   3.711  18.817  0.2742  1.5268  0.4730
 5312TIP3    H240132   0.860   3.792  18.774  1.5872 -1.1514 -1.2157
 5313TIP3   OH240133   7.677   6.198  18.772 -0.4508 -0.3897  0.8000
 5313TIP3    H140134   7.759   6.150  18.783 -0.1803 -0.1731 -0.1681
 5313TIP3    H240135   7.609   6.131  18.779 -0.0714 -0.9732 -0.6661
 5314TIP3   OH240136   4.019   1.442  18.890  0.1834 -0.2739  0.1403
 5314TIP3    H140137   3.925   1.455  18.884  0.2770  0.4663  0.1356
 5314TIP3    H240138   4.032   1.348  18.878 -0.4042 -0.1598 -1.6615
 5315TIP3   OH240139   2.969   0.295  18.473  0.4495 -0.3304 -0.0068
 5315TIP3    H140140   3.052   0.325  18.436 -0.1496  0.8407 -0.4329
 5315TIP3    H240141   2.925   0.375  18.501  0.0839 -1.0425  1.5792
 5316TIP3   OH240142   6.680   2.810  17.429  0.1490  0.2778 -0.4913
 5316TIP3    H140143   6.708   2.718  17.432  3.5353  1.1238 -1.9192
 5316TIP3    H240144   6.648   2.822  17.340 -0.9185  0.3768 -0.1107
 5317TIP3   OH240145   0.666   3.076  17.448 -0.4250  0.5761 -0.0823
 5317TIP3    H140146   0.662   3.081  17.543  2.3254  2.5612  0.0443
 5317TIP3    H240147   0.597   3.135  17.418 -0.0043  1.5254  0.7594
 5318TIP3   OH240148   1.411   0.994  18.952 -0.0724  0.1902 -0.3851
 5318TIP3    H140149   1.455   0.914  18.980 -0.3961 -0.8637 -2.6736
 5318TIP3    H240150   1.474   1.064  18.973 -0.1106 -0.4728  2.3959
 5319TIP3   OH240151   6.518   3.525  18.211  0.0585 -0.0368  0.5778
 5319TIP3    H140152   6.565   3.586  18.154 -0.7344 -0.2829 -0.3462
 5319TIP3    H240153   6.565   3.531  18.295  2.0919 -0.6778 -0.4342
 5320TIP3   OH240154   5.237   4.687  18.766 -0.0698  0.0087  0.7207
 5320TIP3    H140155   5.152   4.708  18.726  0.4623 -0.0228 -0.4479
 5320TIP3    H240156   5.280   4.631  18.702  1.5021  1.3214  0.5946
 5321TIP3   OH240157   1.100   0.913  18.153 -0.5840  0.5189 -0.3292
 5321TIP3    H140158   1.121   0.920  18.246  0.2914 -1.1718 -0.3527
 5321TIP3    H240159   1.098   0.818  18.137 -0.4551  0.7928 -2.0787
 5322TIP3   OH240160   3.976   0.327  18.129 -0.3523 -0.0367 -0.2530
 5322TIP3    H140161   3.965   0.343  18.035  1.2261 -0.5531 -0.5622
 5322TIP3    H240162   4.065   0.357  18.148 -0.7131  0.2407  1.1315
 5323TIP3   OH240163   1.938   6.979  19.292 -0.1430  0.1319 -0.1624
 5323TIP3    H140164   2.015   7.032  19.309  0.4518 -0.3141 -1.3572
 5323TIP3    H240165   1.964   6.890  19.318 -0.0216 -0.1331 -1.1704
 5324TIP3   OH240166   0.077   4.330  19.117 -0.1777  0.5187 -0.0767
 5324TIP3    H140167   0.057   4.387  19.043 -1.0783  0.2264 -0.0682
 5324TIP3    H240168   0.147   4.273  19.085 -1.1332 -0.1687 -1.0051
 5325TIP3   OH240169   7.021   5.155  18.537  0.2561 -0.2953  0.2832
 5325TIP3    H140170   7.081   5.188  18.604  0.9841 -2.4934  0.7989
 5325TIP3    H240171   6.992   5.070  18.570  0.0489 -1.1054 -1.8287
 5326TIP3   OH240172   4.952   6.727  17.838  1.3188 -0.1931  0.2510
 5326TIP3    H140173   4.860   6.701  17.830  1.3753 -0.1923 -0.4147
 5326TIP3    H240174   5.001   6.657  17.796  1.7458 -0.9560  1.9146
 5327TIP3   OH240175   2.935   3.253  18.563  0.2314 -0.0451  0.3867
 5327TIP3    H140176   2.894   3.281  18.645 -0.9897  0.5025 -0.3780
 5327TIP3    H240177   2.992   3.180  18.589 -1.2447 -0.8680  1.5262
 5328TIP3   OH240178   1.216   5.166  19.838 -0.0769  0.0090 -0.2698
 5328TIP3    H140179   1.238   5.160  19.745 -0.5920  0.7850 -0.4454
 5328TIP3    H240180   1.299   5.189  19.880  0.3540 -1.1969 -0.4182
 5329TIP3   OH240181   4.628   0.425  18.758 -0.1007  0.3069  0.3185
 5329TIP3    H140182   4.635   0.511  18.715  2.9596  0.4530  0.8392
 5329TIP3    H240183   4.605   0.445  18.848 -0.5533  0.4961  0.1597
 5330TIP3   OH240184   5.727   2.032  17.985  0.8152 -0.1465 -0.5193
 5330TIP3    H140185   5.647   2.082  18.002  0.6703 -0.1186 -1.2624
 5330TIP3    H240186   5.762   2.012  18.072  0.2801  0.2897 -0.1996
 5331TIP3   OH240187   2.391   1.107  18.491 -0.0259  0.2831  0.0355
 5331TIP3    H140188   2.419   1.150  18.572  1.8644 -0.7930  0.0072
 5331TIP3    H240189   2.458   1.132  18.427 -0.7264 -0.0300 -0.8383
 5332TIP3   OH240190   6.822   1.490  18.914 -0.1134  0.2302 -0.1560
 5332TIP3    H140191   6.898   1.515  18.966  0.1234 -2.7656  1.1039
 5332TIP3    H240192   6.840   1.526  18.827  0.5252  3.4415  1.1337
 5333TIP3   OH240193   0.434   6.952  16.973  0.3750 -0.3423 -0.1048
 5333TIP3    H140194   0.494   6.892  16.930  1.3389  0.3717  0.2150
 5333TIP3    H240195   0.479   6.978  17.054  0.1397  1.0605 -0.3977
 5334TIP3   OH240196   1.132   5.176  18.116  0.5995  0.4845 -0.4741
 5334TIP3    H140197   1.139   5.144  18.026  0.3894  1.4250 -0.8320
 5334TIP3    H240198   1.125   5.271  18.107  0.7954  0.6003  0.5495
 5335TIP3   OH240199   1.617   5.404  18.360 -0.2321  0.2547  0.1140
 5335TIP3    H140200   1.560   5.414  18.436  0.7214  0.4706  0.8225
 5335TIP3    H240201   1.558   5.382  18.288 -1.3753  1.7571  0.5260
 5336TIP3   OH240202   4.345   3.447  16.953  0.5070 -0.4621 -0.5327
 5336TIP3    H140203   4.397   3.400  16.887  0.4938  1.5841 -2.1126
 5336TIP3    H240204   4.269   3.478  16.904 -0.7576 -0.9534  1.0724
 5337TIP3   OH240205   5.559   6.719  18.558  0.0441  0.4929 -0.1986
 5337TIP3    H140206   5.608   6.769  18.492 -0.4937  1.4519  0.1153
 5337TIP3    H240207   5.626   6.690  18.619  0.2834  1.4853  0.0273
 5338TIP3   OH240208   6.168   2.634  17.512  0.3341 -0.0925 -0.0445
 5338TIP3    H140209   6.228   2.567  17.479  1.2358  0.0201  1.2851
 5338TIP3    H240210   6.155   2.693  17.438  2.2111  0.1015 -0.2727
 5339TIP3   OH240211   6.172   1.984  16.949  0.1237 -0.3253 -0.5022
 5339TIP3    H140212   6.204   2.057  17.003 -0.4956 -0.0960 -0.4366
 5339TIP3    H240213   6.088   2.016  16.914 -0.5948 -1.3524  0.2489
 5340TIP3   OH240214   7.018   7.245  18.261  0.1309 -0.0141  0.6941
 5340TIP3    H140215   6.937   7.242  18.312 -0.3445 -0.4153 -0.0667
 5340TIP3    H240216   7.045   7.337  18.264 -0.2728  0.0923  1.0843
 5341TIP3   OH240217   4.353   4.526  17.900 -0.3296  0.6540 -0.4106
 5341TIP3    H140218   4.384   4.541  17.989 -0.0181 -1.5839 -0.0784
 5341TIP3    H240219   4.268   4.571  17.897 -0.7682  0.0661  1.3394
 5342TIP3   OH240220   7.652   1.307  19.815  0.6172 -0.6281  0.2092
 5342TIP3    H140221   7.732   1.300  19.764 -0.2900  0.4636 -1.4846
 5342TIP3    H240222   7.680   1.299  19.906  2.9647  1.8533 -0.1660
 5343TIP3   OH240223   1.610   6.181  19.333 -0.0992  0.3993 -0.5408
 5343TIP3    H140224   1.545   6.129  19.380 -0.2301  1.4031  0.4275
 5343TIP3    H240225   1.663   6.220  19.402  0.7824  0.5599 -1.2905
 5344TIP3   OH240226   0.124   7.668  19.275  0.4559  0.3446 -0.4584
 5344TIP3    H140227   0.084   7.742  19.322  0.9292  0.6559 -0.5435
 5344TIP3    H240228   0.119   7.693  19.183  2.0514  1.0062 -0.3991
 5345TIP3   OH240229   4.862   5.721  17.739  0.0831  0.6469 -0.0175
 5345TIP3    H140230   4.953   5.730  17.768  0.2647 -0.8219 -0.0590
 5345TIP3    H240231   4.864   5.745  17.647  0.4452  0.5122 -0.0465
 5346TIP3   OH240232   2.848   2.389  17.649  0.1934 -0.1259  0.2426
 5346TIP3    H140233   2.862   2.449  17.722  0.0611  2.2199 -1.5456
 5346TIP3    H240234   2.753   2.387  17.637  0.2489  0.0461 -0.2639
 5347TIP3   OH240235   4.236   3.337  17.597  0.1733  0.2937  0.2596
 5347TIP3    H140236   4.323   3.374  17.612  0.4250 -0.6255  1.2138
 5347TIP3    H240237   4.245   3.244  17.620 -1.7116  0.7074  3.2663
 5348TIP3   OH240238   7.077   4.242  19.552 -0.0283  0.7039 -0.5925
 5348TIP3    H140239   7.098   4.149  19.542 -2.2298  0.1123 -0.4215
 5348TIP3    H240240   7.119   4.267  19.634  1.7494  0.2679 -1.3268
 5349TIP3   OH240241   2.481   4.193  18.647 -0.7683  0.0438  0.1159
 5349TIP3    H140242   2.476   4.254  18.721  0.3407  0.5848 -0.2275
 5349TIP3    H240243   2.432   4.117  18.676 -1.6096  0.8294  0.8292
 5350TIP3   OH240244   5.798   4.867  19.310 -0.0532  0.4774  0.0774
 5350TIP3    H140245   5.756   4.923  19.375  2.1506  0.9541  1.1872
 5350TIP3    H240246   5.840   4.929  19.249 -0.0817  0.0249 -0.4053
 5351TIP3   OH240247   2.003   5.982  17.480 -0.7559 -0.5241 -0.0979
 5351TIP3    H140248   1.955   6.035  17.416  1.2260  1.8483  0.2055
 5351TIP3    H240249   2.090   5.970  17.441 -0.2141 -0.9186  1.1742
 5352TIP3   OH240250   5.460   6.337  18.745 -0.3178 -0.0146  0.1830
 5352TIP3    H140251   5.446   6.429  18.769  0.8785  0.3002 -0.2647
 5352TIP3    H240252   5.437   6.333  18.652  0.2722 -0.0156  0.0351
 5353TIP3   OH240253   4.129   0.218  19.282 -0.2847 -0.6494  0.5694
 5353TIP3    H140254   4.082   0.150  19.331 -0.3941 -1.3739 -0.5167
 5353TIP3    H240255   4.065   0.250  19.218 -0.3322  0.7053  1.2648
 5354TIP3   OH240256   6.641   5.007  18.740  0.6666 -0.5241  0.2346
 5354TIP3    H140257   6.651   4.995  18.646  0.0896  0.3419  0.0496
 5354TIP3    H240258   6.699   5.081  18.761 -1.6722  1.5054 -0.0597
 5355TIP3   OH240259   7.615   6.692  18.438  0.2290 -0.0236 -0.1901
 5355TIP3    H140260   7.615   6.755  18.510  1.2976  1.2699 -1.2665
 5355TIP3    H240261   7.536   6.640  18.452  0.5493 -0.0026  2.0517
 5356TIP3   OH240262   5.542   5.134  17.392 -0.0278 -0.5660  0.1878
 5356TIP3    H140263   5.515   5.218  17.430 -2.1616 -1.2832  0.3597
 5356TIP3    H240264   5.560   5.154  17.300  3.0554  0.7434  0.9418
 5357TIP3   OH240265   1.920   5.576  17.529  0.6873 -0.4887 -0.5898
 5357TIP3    H140266   1.859   5.547  17.461  1.6320 -2.5431 -0.6324
 5357TIP3    H240267   1.867   5.631  17.587 -1.3781 -2.5324 -0.3820
 5358TIP3   OH240268   3.763   0.628  19.064 -0.2307 -0.4572  0.4995
 5358TIP3    H140269   3.772   0.649  19.157 -0.0479  0.3716  0.3024
 5358TIP3    H240270   3.720   0.705  19.026  2.3645  0.5768 -0.6353
 5359TIP3   OH240271   0.398   6.966  18.430  0.2544 -0.3946 -0.1893
 5359TIP3    H140272   0.439   6.891  18.474  1.1840  0.4523  0.4476
 5359TIP3    H240273   0.396   7.035  18.497 -1.4180 -0.1218 -0.4908
 5360TIP3   OH240274   0.091   6.806  18.263  0.0687 -0.2506  0.3777
 5360TIP3    H140275   0.020   6.773  18.318 -1.6917 -0.7467 -2.0206
 5360TIP3    H240276   0.127   6.727  18.222  0.7275  0.1750  0.1309
 5361TIP3   OH240277   7.410   7.260  18.074  0.4012 -0.0116  0.0005
 5361TIP3    H140278   7.390   7.345  18.034  0.2631 -0.1148 -0.1559
 5361TIP3    H240279   7.335   7.206  18.051 -0.2729  0.2670  1.4383
 5362TIP3   OH240280   5.617   3.903  19.451 -0.2963  0.3848 -0.7802
 5362TIP3    H140281   5.523   3.882  19.446 -0.2507  0.2107 -0.9111
 5362TIP3    H240282   5.619   3.999  19.458 -0.6086  0.2602  2.1996
 5363TIP3   OH240283   0.956   5.376  19.209 -0.1995  0.5028 -0.2023
 5363TIP3    H140284   0.871   5.353  19.246  0.4573 -0.7397  0.5672
 5363TIP3    H240285   0.941   5.461  19.166 -1.3799  1.1996  1.4877
 5364TIP3   OH240286   4.978   3.336  19.161 -0.7143 -0.3476  0.1864
 5364TIP3    H140287   5.059   3.357  19.116 -1.5014 -0.0528 -1.1308
 5364TIP3    H240288   4.916   3.404  19.135 -1.5052 -0.7821  0.8499
 5365TIP3   OH240289   4.729   1.724  17.463  0.0018  0.0441 -0.6742
 5365TIP3    H140290   4.721   1.803  17.516 -0.5242 -0.6141  0.2518
 5365TIP3    H240291   4.721   1.755  17.373  1.2867  1.2227 -0.4200
 5366TIP3   OH240292   2.833   1.691  17.252 -0.3456  0.5355  0.0898
 5366TIP3    H140293   2.799   1.605  17.227  1.6331 -0.2088 -0.2471
 5366TIP3    H240294   2.883   1.720  17.176  0.2157  1.3166  0.7367
 5367TIP3   OH240295   7.339   3.006  19.051  0.3325  0.3017 -0.0127
 5367TIP3    H140296   7.414   2.948  19.034 -1.4258 -2.3155  0.6066
 5367TIP3    H240297   7.313   3.037  18.964  1.2685  0.1673 -0.3616
 5368TIP3   OH240298   6.015   1.295  19.381  0.9209 -0.0212  0.4778
 5368TIP3    H140299   6.078   1.360  19.411  0.3817  0.9912 -0.5209
 5368TIP3    H240300   5.939   1.346  19.352 -0.0478 -1.1720  0.8994
 5369TIP3   OH240301   1.195   1.051  17.565 -0.2122 -0.0705 -0.0660
 5369TIP3    H140302   1.169   1.037  17.474  0.1101  0.5155 -0.2555
 5369TIP3    H240303   1.183   0.966  17.607 -0.4214 -0.3304 -0.6427
 5370TIP3   OH240304   5.826   6.506  17.424  0.3321 -0.1383  0.0601
 5370TIP3    H140305   5.798   6.441  17.360 -2.0282 -0.2599  1.1034
 5370TIP3    H240306   5.891   6.560  17.378 -0.5380 -0.8291 -2.0745
 5371TIP3   OH240307   3.801   0.839  18.838 -0.8036 -0.5976  0.6616
 5371TIP3    H140308   3.804   0.934  18.824 -2.1247 -0.6371 -0.0443
 5371TIP3    H240309   3.725   0.825  18.894 -1.4589 -1.3371 -0.3582
 5372TIP3   OH240310   6.278   6.778  17.428  0.7911  0.3386  0.0919
 5372TIP3    H140311   6.313   6.689  17.425  1.3084  0.5575 -1.2509
 5372TIP3    H240312   6.225   6.785  17.348  0.3891  1.0908  0.4213
 5373TIP3   OH240313   6.486   2.766  17.630  0.5880 -0.4329 -0.5147
 5373TIP3    H140314   6.555   2.716  17.586  0.7449  0.4410 -1.2923
 5373TIP3    H240315   6.533   2.832  17.681  0.3675 -0.7592  0.1174
 5374TIP3   OH240316   0.461   6.810  17.762  0.5229 -0.1828  0.4554
 5374TIP3    H140317   0.549   6.794  17.796  0.6711 -0.7282 -0.1547
 5374TIP3    H240318   0.463   6.900  17.731  0.6575  0.0251  1.0690
 5375TIP3   OH240319   0.354   0.902  18.041  0.2637 -0.1604 -0.6166
 5375TIP3    H140320   0.352   0.809  18.021  0.6004 -0.3163  0.0397
 5375TIP3    H240321   0.263   0.931  18.033 -0.0118 -0.7750  0.1961
 5376TIP3   OH240322   6.094   6.779  19.314  0.1429  0.4238 -0.1784
 5376TIP3    H140323   6.026   6.775  19.382  0.5809 -2.2898  0.2220
 5376TIP3    H240324   6.050   6.818  19.239 -0.5769  2.8142  1.3734
 5377TIP3   OH240325   6.090   5.909  19.245 -0.1155 -0.4031  0.0779
 5377TIP3    H140326   6.015   5.872  19.198 -0.8727  1.3466 -0.1846
 5377TIP3    H240327   6.150   5.836  19.255 -2.6635 -2.4276  2.0553
 5378TIP3   OH240328   5.151   0.584  18.667  0.1187 -0.2695 -0.0018
 5378TIP3    H140329   5.195   0.669  18.664 -1.5747  0.6367 -0.2970
 5378TIP3    H240330   5.060   0.603  18.644 -0.4352 -2.0773  0.5224
 5379TIP3   OH240331   3.415   1.992  19.340  0.6855 -0.6607 -0.3927
 5379TIP3    H140332   3.474   2.067  19.346 -0.2075  0.0995 -0.8285
 5379TIP3    H240333   3.385   1.993  19.249  0.5050 -1.4358 -0.3496
 5380TIP3   OH240334   4.694   2.858  16.880 -0.1417  0.3325  0.3142
 5380TIP3    H140335   4.711   2.940  16.926 -0.7422  1.0962 -0.7919
 5380TIP3    H240336   4.599   2.848  16.883  0.0407 -1.5329  2.4374
 5381TIP3   OH240337   6.894   0.775  18.326 -0.0117  0.1860  0.2046
 5381TIP3    H140338   6.953   0.773  18.401  0.8805  2.9138 -0.3235
 5381TIP3    H240339   6.809   0.798  18.363  0.6255  2.5052  0.3530
 5382TIP3   OH240340   1.199   2.778  19.149 -0.0671 -0.3537 -0.3726
 5382TIP3    H140341   1.133   2.776  19.217  1.5068 -2.2765  1.2519
 5382TIP3    H240342   1.264   2.841  19.180 -0.6296  0.8067 -1.4819
 5383TIP3   OH240343   6.858   7.503  19.279  0.0943  0.3265 -0.5110
 5383TIP3    H140344   6.925   7.542  19.223  0.7623 -0.1013 -0.0264
 5383TIP3    H240345   6.778   7.551  19.257  0.9467  2.2615  0.3436
 5384TIP3   OH240346   3.433   1.785  17.629 -0.0027  0.2511  0.1543
 5384TIP3    H140347   3.526   1.802  17.613  0.4713 -0.9403  1.3592
 5384TIP3    H240348   3.422   1.803  17.723 -0.9774  0.3166  0.0346
 5385TIP3   OH240349   7.588   1.422  18.418 -0.2103  0.8581 -0.0386
 5385TIP3    H140350   7.628   1.336  18.433 -0.3560  1.1137  2.1877
 5385TIP3    H240351   7.657   1.474  18.378  0.8944  0.5583  1.3997
 5386TIP3   OH240352   0.979   0.322  17.849 -0.2626 -0.5276 -0.4006
 5386TIP3    H140353   1.047   0.274  17.896 -1.1065  0.0338  1.4977
 5386TIP3    H240354   1.013   0.411  17.841 -1.3430  0.1829  2.0115
 5387TIP3   OH240355   4.198   1.026  18.035  0.4231  0.3406  0.3012
 5387TIP3    H140356   4.250   1.063  17.963 -0.1813 -1.8583 -1.3786
 5387TIP3    H240357   4.108   1.031  18.004  0.2048 -1.1345  0.6096
 5388TIP3   OH240358   2.988   5.871  18.393  0.5295  0.6409 -0.3525
 5388TIP3    H140359   2.952   5.832  18.473  2.4045 -1.2583 -0.3464
 5388TIP3    H240360   2.914   5.918  18.354 -1.2980 -1.0697  0.8509
 5389TIP3   OH240361   6.888   3.553  17.590 -0.5146 -0.9326 -0.0682
 5389TIP3    H140362   6.978   3.580  17.572 -0.2178 -0.2503  2.2383
 5389TIP3    H240363   6.881   3.467  17.547  0.5979 -0.1748 -1.8823
 5390TIP3   OH240364   7.049   3.974  17.529  0.1014  0.2006 -0.1912
 5390TIP3    H140365   7.113   3.948  17.596 -0.8971  0.5562  0.9425
 5390TIP3    H240366   6.986   3.901  17.528 -0.2328  0.4905 -0.2772
 5391TIP3   OH240367   1.791   4.746  12.485  0.1651 -0.2071 -0.2192
 5391TIP3    H140368   1.764   4.829  12.445  1.5101  1.1639  1.4933
 5391TIP3    H240369   1.760   4.752  12.576  2.3271 -0.4499  0.6048
 5392TIP3   OH240370   1.930   7.142  11.020 -0.7744 -0.3039  0.4736
 5392TIP3    H140371   2.015   7.148  10.977 -0.5906 -0.1776  0.8504
 5392TIP3    H240372   1.911   7.232  11.047 -1.1543 -0.2853  0.1488
 5393TIP3   OH240373   0.742   6.829  11.504 -0.1685  0.2156 -0.0709
 5393TIP3    H140374   0.800   6.780  11.447  0.2459  0.8971 -0.2463
 5393TIP3    H240375   0.771   6.920  11.496 -0.5830  0.4234  0.6475
 5394TIP3   OH240376   1.233   5.917  13.442  0.4559  0.0638 -0.2879
 5394TIP3    H140377   1.319   5.937  13.407  0.3058 -1.5257 -1.7265
 5394TIP3    H240378   1.247   5.899  13.535  1.8432 -1.1069 -0.7014
 5395TIP3   OH240379   0.387   5.273  12.347  0.1175 -0.0536 -0.1385
 5395TIP3    H140380   0.443   5.308  12.278 -0.4664  1.7709  0.2727
 5395TIP3    H240381   0.310   5.329  12.347 -1.2940 -1.8884 -0.0012
 5396TIP3   OH240382   1.665   5.241  13.154  0.5186  0.2969  0.1172
 5396TIP3    H140383   1.696   5.167  13.208  1.6530  0.8276  0.2154
 5396TIP3    H240384   1.708   5.317  13.191 -0.1520  0.9377 -0.3922
 5397TIP3   OH240385   2.370   2.917  12.111 -0.2047 -0.4174  0.2931
 5397TIP3    H140386   2.390   2.981  12.043 -0.8197 -1.9931 -1.4636
 5397TIP3    H240387   2.394   2.960  12.193  1.1168  1.3400 -0.9497
 5398TIP3   OH240388   7.174   5.201  11.448  0.2001  0.1148  0.1823
 5398TIP3    H140389   7.258   5.184  11.491 -0.3327 -0.4857  1.0027
 5398TIP3    H240390   7.175   5.295  11.430  0.8537  0.1936  0.6064
 5399TIP3   OH240391   1.104   0.996  12.711  0.6767 -0.1726  0.0999
 5399TIP3    H140392   1.160   0.931  12.669  2.1551  0.4582  1.0301
 5399TIP3    H240393   1.097   0.967  12.802  0.6951  0.5415  0.3342
 5400TIP3   OH240394   6.513   0.506  12.970  0.3110  0.3719 -0.0248
 5400TIP3    H140395   6.508   0.462  13.055  0.1410  0.9162  0.2502
 5400TIP3    H240396   6.460   0.451  12.912 -1.2217  1.0307  0.6857
 5401TIP3   OH240397   4.381   5.008  12.886  0.0985 -0.2519  0.2453
 5401TIP3    H140398   4.442   5.026  12.958  0.5376  0.7013 -0.3520
 5401TIP3    H240399   4.437   5.000  12.809 -0.6512  3.6184 -0.8906
 5402TIP3   OH240400   5.828   5.499  10.887  0.5118  0.2421 -0.0714
 5402TIP3    H140401   5.915   5.522  10.919  0.1332  1.3341  0.2054
 5402TIP3    H240402   5.772   5.500  10.965  0.2791 -0.7040 -0.2050
 5403TIP3   OH240403   0.065   2.305  12.806 -0.4085 -0.0586  0.2425
 5403TIP3    H140404   0.005   2.248  12.854  0.0701 -0.5418  0.2782
 5403TIP3    H240405   0.021   2.321  12.723  0.0712 -1.6615 -0.3503
 5404TIP3   OH240406   0.306   7.538  12.199 -0.2730 -0.9487 -0.1364
 5404TIP3    H140407   0.335   7.460  12.245  0.0506 -0.6696  0.1371
 5404TIP3    H240408   0.341   7.611  12.250 -0.0828 -0.6312 -0.7040
 5405TIP3   OH240409   3.551   7.049  12.353 -0.4635  0.0540 -0.4905
 5405TIP3    H140410   3.561   7.100  12.434  0.3919  0.2354 -0.6972
 5405TIP3    H240411   3.625   6.988  12.355  0.3821  0.9897 -1.8048
 5406TIP3   OH240412   0.935   7.582  11.621 -0.7606 -0.2557  0.1468
 5406TIP3    H140413   0.942   7.529  11.700  0.8139 -1.2951 -0.6283
 5406TIP3    H240414   1.023   7.579  11.583 -0.8498  2.1468 -0.4425
 5407TIP3   OH240415   5.964   7.228  12.599  0.1974  0.3537  0.5611
 5407TIP3    H140416   5.992   7.304  12.548  1.1228 -0.2355  0.1576
 5407TIP3    H240417   5.969   7.257  12.690  1.6903  0.4346  0.4779
 5408TIP3   OH240418   6.840   6.306  11.948  0.5548 -0.5425  0.5204
 5408TIP3    H140419   6.901   6.264  11.886  0.8210 -0.6781  0.8708
 5408TIP3    H240420   6.868   6.397  11.950  0.3093 -0.4572  0.1577
 5409TIP3   OH240421   1.484   5.246  12.480 -0.5411 -0.1062  0.1206
 5409TIP3    H140422   1.478   5.248  12.575  0.4694  0.9721  0.1831
 5409TIP3    H240423   1.566   5.201  12.461 -1.6193 -1.9853 -0.3182
 5410TIP3   OH240424   4.935   3.027  12.896 -0.2411  0.0838  0.6245
 5410TIP3    H140425   4.978   2.959  12.844 -0.7030  0.7339 -0.6371
 5410TIP3    H240426   5.000   3.052  12.961  1.3155  0.9954 -1.1805
 5411TIP3   OH240427   1.337   0.483  12.959  0.2989  0.0723 -0.2822
 5411TIP3    H140428   1.369   0.405  13.005 -0.2771 -0.1839 -0.3101
 5411TIP3    H240429   1.365   0.556  13.014 -1.4184 -0.2781  1.1438
 5412TIP3   OH240430   2.261   6.881  13.234  0.4556 -0.0258 -0.3142
 5412TIP3    H140431   2.294   6.848  13.150  4.8989 -0.5661  1.3927
 5412TIP3    H240432   2.256   6.804  13.290  0.4215  0.7368  0.7524
 5413TIP3   OH240433   2.248   1.913  11.058 -0.1155 -0.0610  0.1984
 5413TIP3    H140434   2.313   1.980  11.083 -0.3222  0.8340 -1.4932
 5413TIP3    H240435   2.186   1.912  11.131 -0.8373  2.6005 -0.2730
 5414TIP3   OH240436   3.029   1.928  13.160  0.5614  0.0826  0.8103
 5414TIP3    H140437   3.034   1.992  13.232  1.2885  2.1883 -1.0051
 5414TIP3    H240438   2.935   1.919  13.143  0.3205  4.6739 -2.0715
 5415TIP3   OH240439   7.443   7.219  13.226  0.3810  0.4815 -0.7545
 5415TIP3    H140440   7.351   7.201  13.245  0.9995 -1.7293  0.4256
 5415TIP3    H240441   7.474   7.270  13.301 -0.0475  1.9945 -1.5640
 5416TIP3   OH240442   3.052   3.858  13.069  0.0274  0.3567 -0.7618
 5416TIP3    H140443   2.964   3.889  13.047  0.0326  1.7668  0.9342
 5416TIP3    H240444   3.053   3.858  13.165  2.3154  1.7277 -0.7231
 5417TIP3   OH240445   5.804   7.469  11.044 -0.4358  0.0610 -0.1637
 5417TIP3    H140446   5.760   7.475  10.959  1.7082 -1.7340 -1.5040
 5417TIP3    H240447   5.783   7.551  11.088 -1.9453  0.8656 -2.2338
 5418TIP3   OH240448   6.555   3.694  10.693 -0.0610 -0.0338 -0.3892
 5418TIP3    H140449   6.604   3.671  10.772 -1.5320  1.6703  1.1176
 5418TIP3    H240450   6.614   3.670  10.621  1.2744 -1.7994  1.1747
 5419TIP3   OH240451   7.674   1.815  11.415 -0.0993  0.4602  0.2865
 5419TIP3    H140452   7.692   1.891  11.470  0.4741  0.5181  0.0223
 5419TIP3    H240453   7.612   1.763  11.466 -0.3828  1.0282  0.5320
 5420TIP3   OH240454   4.452   3.969  10.692 -0.2982 -0.2148 -0.1113
 5420TIP3    H140455   4.425   3.912  10.765 -1.2755  1.1506  0.6353
 5420TIP3    H240456   4.454   3.910  10.616 -1.4350 -1.2244  0.5990
 5421TIP3   OH240457   6.744   2.380  11.071  0.5950 -0.4539 -0.3433
 5421TIP3    H140458   6.839   2.375  11.082  0.6254 -2.3922 -1.1188
 5421TIP3    H240459   6.727   2.473  11.054  2.4031 -0.1340 -0.5979
 5422TIP3   OH240460   0.817   1.493  11.143  1.0583 -0.0204  0.1278
 5422TIP3    H140461   0.823   1.470  11.050 -0.6911  1.3357 -0.3698
 5422TIP3    H240462   0.742   1.442  11.175  2.0689 -1.0127  1.0020
 5423TIP3   OH240463   5.220   3.398  12.093  0.3637 -0.1922  0.0115
 5423TIP3    H140464   5.187   3.312  12.067  0.7524  0.3317 -2.5129
 5423TIP3    H240465   5.149   3.437  12.143 -0.8557 -1.0180 -1.0106
 5424TIP3   OH240466   0.632   1.092  13.290  0.8351  0.5559 -0.1726
 5424TIP3    H140467   0.638   1.178  13.248  1.0886  1.3474  1.4167
 5424TIP3    H240468   0.697   1.094  13.360 -0.2915 -0.3088  0.9556
 5425TIP3   OH240469   4.783   5.356  10.911  0.3640  1.0597 -0.6786
 5425TIP3    H140470   4.749   5.416  10.845 -0.9408  2.6364  1.3220
 5425TIP3    H240471   4.845   5.408  10.962 -0.2781  0.5517  0.6744
 5426TIP3   OH240472   6.882   0.227  12.357  0.0133  0.6728  0.4489
 5426TIP3    H140473   6.816   0.283  12.319 -0.4461 -0.6061 -0.7032
 5426TIP3    H240474   6.833   0.165  12.412 -0.2733 -2.3958 -2.9215
 5427TIP3   OH240475   0.412   1.616  11.876 -0.4867  1.0704  0.2472
 5427TIP3    H140476   0.334   1.582  11.832  0.0082  0.2166  0.0004
 5427TIP3    H240477   0.485   1.576  11.829  0.0817 -0.9819  2.6570
 5428TIP3   OH240478   3.050   4.031  11.631  0.1363  0.2134  0.2315
 5428TIP3    H140479   3.067   4.125  11.639 -4.2118  1.2488 -0.1851
 5428TIP3    H240480   3.066   4.012  11.538  0.3829  0.6911  0.1736
 5429TIP3   OH240481   1.020   6.901  12.073  0.4116  0.2301  0.4918
 5429TIP3    H140482   0.989   6.991  12.074 -2.7995 -0.5046 -3.6008
 5429TIP3    H240483   0.970   6.857  12.141  0.2842  1.1118  0.9803
 5430TIP3   OH240484   6.097   0.632  10.955  0.1766 -0.0889  0.6755
 5430TIP3    H140485   6.052   0.551  10.977  0.0185 -0.0629  0.4435
 5430TIP3    H240486   6.079   0.646  10.862  0.2083  0.2079  0.7115
 5431TIP3   OH240487   0.439   4.394  11.448  0.1404 -0.0447 -0.1014
 5431TIP3    H140488   0.458   4.484  11.425  1.2037 -0.3434 -0.4570
 5431TIP3    H240489   0.492   4.342  11.387 -0.4086 -0.9005  0.1379
 5432TIP3   OH240490   6.473   5.213  10.781  0.2678  0.0833 -0.2261
 5432TIP3    H140491   6.511   5.129  10.808  0.6184  0.2411 -0.2146
 5432TIP3    H240492   6.483   5.214  10.686  1.7290  0.7925 -0.0899
 5433TIP3   OH240493   3.710   6.258  11.883 -0.3106  0.0592  0.3513
 5433TIP3    H140494   3.701   6.221  11.970 -1.3016 -3.2947 -0.9986
 5433TIP3    H240495   3.781   6.208  11.842 -0.7287  0.6482 -1.1841
 5434TIP3   OH240496   5.326   6.359  12.190 -0.5688 -0.1566  0.3715
 5434TIP3    H140497   5.359   6.309  12.116 -0.7511 -1.4775  1.1456
 5434TIP3    H240498   5.252   6.409  12.155 -1.1417 -1.3559 -0.1849
 5435TIP3   OH240499   4.229   6.325  12.066 -0.2813  0.6477 -0.5015
 5435TIP3    H140500   4.301   6.311  12.127 -0.5246 -0.5648 -0.4669
 5435TIP3    H240501   4.152   6.290  12.111 -0.2591 -1.4544 -1.9366
 5436TIP3   OH240502   6.231   3.184  12.533  0.4775  0.1420 -0.8858
 5436TIP3    H140503   6.315   3.195  12.577 -0.1954  0.1847  0.4385
 5436TIP3    H240504   6.175   3.141  12.598 -0.9044  1.2879 -1.2683
 5437TIP3   OH240505   3.404   7.364  12.918  0.3421  0.0949  0.2168
 5437TIP3    H140506   3.315   7.336  12.941 -0.6641  1.3717 -1.8443
 5437TIP3    H240507   3.401   7.460  12.924  1.3658  0.1908 -0.5474
 5438TIP3   OH240508   1.587   4.458  12.052 -0.6831 -0.0945  0.1130
 5438TIP3    H140509   1.630   4.463  12.137  0.8628  0.5499 -0.6657
 5438TIP3    H240510   1.609   4.370  12.019  0.0173  0.2063 -0.2512
 5439TIP3   OH240511   4.494   1.707  12.608  0.1080 -0.5865 -0.4012
 5439TIP3    H140512   4.575   1.720  12.656 -0.7057  0.8161  0.6826
 5439TIP3    H240513   4.520   1.707  12.516  1.2304  0.8801 -0.1169
 5440TIP3   OH240514   3.415   2.226  11.498  0.1353 -0.4497 -0.2074
 5440TIP3    H140515   3.480   2.287  11.463 -1.6820  1.6505 -0.1587
 5440TIP3    H240516   3.371   2.190  11.421  0.2259 -0.5877 -0.1961
 5441TIP3   OH240517   4.406   1.473  12.705 -0.1032 -0.5835  0.9986
 5441TIP3    H140518   4.433   1.554  12.662 -1.2106 -1.3214 -1.2723
 5441TIP3    H240519   4.400   1.495  12.798  0.9860  1.5312  0.6130
 5442TIP3   OH240520   1.299   0.149  11.906 -0.1793  0.3113  0.0845
 5442TIP3    H140521   1.257   0.111  11.829 -0.4774 -0.6390  0.7054
 5442TIP3    H240522   1.390   0.121  11.899  0.0518  1.1616 -0.4957
 5443TIP3   OH240523   0.177   3.083  10.641 -0.2746 -0.0662 -0.1134
 5443TIP3    H140524   0.183   3.159  10.583  0.3665 -0.8047 -1.0637
 5443TIP3    H240525   0.084   3.069  10.653 -0.3992  1.1039  0.4089
 5444TIP3   OH240526   2.321   1.400  11.706  0.2158 -0.0307  0.2399
 5444TIP3    H140527   2.382   1.449  11.650  0.8763  0.2814  1.2181
 5444TIP3    H240528   2.376   1.338  11.752 -0.5112 -1.1703 -0.3902
 5445TIP3   OH240529   4.569   4.287  11.169  0.2356  0.5111  0.2318
 5445TIP3    H140530   4.551   4.221  11.101 -2.9624 -0.0700  1.4879
 5445TIP3    H240531   4.527   4.366  11.136 -0.6216  0.4366  1.1004
 5446TIP3   OH240532   4.770   3.339  11.532 -0.1299  0.6844  0.9761
 5446TIP3    H140533   4.821   3.272  11.577 -1.0647 -1.1192 -0.5483
 5446TIP3    H240534   4.679   3.315  11.548 -0.4930  1.6598  0.4885
 5447TIP3   OH240535   0.563   1.179  12.909  0.2156  0.6137 -0.1354
 5447TIP3    H140536   0.583   1.251  12.848  0.8251  0.8416  0.3237
 5447TIP3    H240537   0.566   1.219  12.995  2.7752 -0.3715  0.3232
 5448TIP3   OH240538   5.787   7.210  11.873  0.3553  0.1068  0.2848
 5448TIP3    H140539   5.851   7.180  11.809  0.0679 -1.2318  0.5855
 5448TIP3    H240540   5.727   7.265  11.824 -0.3014 -1.5051 -0.7824
 5449TIP3   OH240541   1.287   1.757  10.720  0.0504 -0.0275 -0.4071
 5449TIP3    H140542   1.229   1.681  10.716 -1.8238  1.3528 -0.5163
 5449TIP3    H240543   1.312   1.763  10.812 -1.8818  0.6767  0.1184
 5450TIP3   OH240544   4.102   0.884  12.272  0.6647 -0.1722 -0.2753
 5450TIP3    H140545   4.172   0.930  12.319 -0.2393  0.5106  0.4550
 5450TIP3    H240546   4.125   0.893  12.180  0.6014  1.6749 -0.1482
 5451TIP3   OH240547   3.242   1.285  11.005  0.3990 -0.3672  0.3278
 5451TIP3    H140548   3.231   1.190  10.999  0.3554 -0.3565  0.2464
 5451TIP3    H240549   3.269   1.313  10.918 -2.5945  0.0990 -0.5484
 5452TIP3   OH240550   2.027   1.971  12.712 -0.8055 -0.1137 -0.4172
 5452TIP3    H140551   2.029   1.938  12.802  1.9276  1.1772  0.0873
 5452TIP3    H240552   2.026   1.893  12.657 -1.7357 -0.9199  0.6857
 5453TIP3   OH240553   3.429   6.866  11.986 -0.1970  0.2444  0.2353
 5453TIP3    H140554   3.421   6.885  11.892  0.4662 -0.2493  0.0719
 5453TIP3    H240555   3.501   6.921  12.015 -1.1588  1.2981  0.7307
 5454TIP3   OH240556   7.523   6.327  12.351 -0.0708  0.5940  0.4972
 5454TIP3    H140557   7.436   6.305  12.385 -0.6670  2.4769  0.2948
 5454TIP3    H240558   7.529   6.279  12.268 -0.6939  0.0177  0.7785
 5455TIP3   OH240559   4.205   6.359  11.383  0.8879  0.1896 -0.1245
 5455TIP3    H140560   4.179   6.445  11.349  0.2599  0.6265  1.3972
 5455TIP3    H240561   4.242   6.378  11.469 -0.5313 -1.1968  0.8272
 5456TIP3   OH240562   3.890   0.645  11.449 -0.4235  0.3086  0.5919
 5456TIP3    H140563   3.823   0.577  11.458 -0.4043 -0.0466 -1.3607
 5456TIP3    H240564   3.973   0.598  11.461 -0.4604  0.2615  0.6594
 5457TIP3   OH240565   6.322   6.827  10.878  0.2683  0.5664  0.3337
 5457TIP3    H140566   6.302   6.921  10.883  2.2065  1.0173  0.1783
 5457TIP3    H240567   6.387   6.820  10.808  0.9647 -0.7391  1.0820
 5458TIP3   OH240568   5.342   1.328  11.527 -0.3714  0.1470  0.1554
 5458TIP3    H140569   5.405   1.277  11.578 -0.8989 -2.4989 -1.6451
 5458TIP3    H240570   5.390   1.407  11.501  1.1455 -0.3227  1.4304
 5459TIP3   OH240571   1.411   1.974  10.626 -0.0473 -0.5776 -0.7145
 5459TIP3    H140572   1.364   1.895  10.654  0.3126 -0.4798  0.1941
 5459TIP3    H240573   1.491   1.974  10.678  0.2385  0.0671 -1.1486
 5460TIP3   OH240574   0.235   0.749  11.812 -0.3831  1.4310 -0.5277
 5460TIP3    H140575   0.218   0.671  11.864 -0.1365  2.2532  0.8430
 5460TIP3    H240576   0.272   0.715  11.730 -2.2328  0.0218 -0.8531
 5461TIP3   OH240577   2.533   7.566  12.307  0.2048 -0.6975  0.4131
 5461TIP3    H140578   2.497   7.482  12.337  0.5228 -0.8012  0.5091
 5461TIP3    H240579   2.458   7.625  12.308 -0.0293 -0.9866  0.3212
 5462TIP3   OH240580   4.916   4.937  10.783 -0.1449 -0.0784  0.1057
 5462TIP3    H140581   4.971   4.954  10.860 -0.9078 -1.3679  0.9824
 5462TIP3    H240582   4.870   4.856  10.805 -1.8243  0.5630 -0.9220
 5463TIP3   OH240583   5.253   5.488  12.782  0.6458  0.4394  0.2248
 5463TIP3    H140584   5.341   5.524  12.794  1.6301 -2.0739  1.2794
 5463TIP3    H240585   5.208   5.505  12.865  1.1167 -0.6640  0.7299
 5464TIP3   OH240586   3.985   4.486  11.121 -0.1141  0.2961  0.0395
 5464TIP3    H140587   3.890   4.494  11.114 -0.2587 -0.6607  0.7107
 5464TIP3    H240588   4.018   4.520  11.038 -1.0829 -0.1011 -0.5311
 5465TIP3   OH240589   5.037   3.718  12.482 -0.1134 -0.6184  0.2905
 5465TIP3    H140590   4.981   3.643  12.502 -1.3122 -0.2432 -1.4136
 5465TIP3    H240591   5.124   3.680  12.469 -0.8709 -1.8913 -1.4175
 5466TIP3   OH240592   0.237   4.536  12.845  0.3443  0.1659  0.0636
 5466TIP3    H140593   0.300   4.596  12.887  1.4501 -0.4337 -0.7048
 5466TIP3    H240594   0.220   4.470  12.912  0.5016  0.3585  0.2980
 5467TIP3   OH240595   6.589   6.819  11.286  0.0373 -0.3814 -0.0665
 5467TIP3    H140596   6.677   6.782  11.299  0.2186 -0.0383 -0.2952
 5467TIP3    H240597   6.594   6.862  11.201 -0.5346 -0.8639 -0.3433
 5468TIP3   OH240598   7.308   5.490  11.155 -0.6070  0.2198  0.0088
 5468TIP3    H140599   7.333   5.581  11.140  1.0098  0.3629  2.7791
 5468TIP3    H240600   7.356   5.440  11.089  1.2750  1.1366  0.6139
 5469TIP3   OH240601   6.287   7.587  12.581 -0.4634 -0.3860  0.2848
 5469TIP3    H140602   6.250   7.590  12.669 -0.2214 -0.2455  0.3838
 5469TIP3    H240603   6.379   7.612  12.593 -0.0453 -1.8247  0.2020
 5470TIP3   OH240604   7.577   0.400  11.797 -0.1789 -0.3763 -0.1055
 5470TIP3    H140605   7.568   0.409  11.892  2.3338  1.2784  0.0709
 5470TIP3    H240606   7.574   0.490  11.765  0.6466 -0.7873 -1.3980
 5471TIP3   OH240607   1.453   1.739  10.958  0.1002  0.1919  0.6232
 5471TIP3    H140608   1.459   1.811  11.021 -0.2564  0.2325  0.6112
 5471TIP3    H240609   1.543   1.726  10.928  0.3197 -0.0055  1.3403
 5472TIP3   OH240610   1.357   1.018  13.051 -0.4355 -0.4711  0.4066
 5472TIP3    H140611   1.450   0.999  13.063 -0.1154  0.6731 -0.1652
 5472TIP3    H240612   1.322   1.024  13.140 -0.3949 -2.7634  0.6425
 5473TIP3   OH240613   0.175   0.340  11.513  0.0670  0.2216  0.0501
 5473TIP3    H140614   0.260   0.368  11.547 -0.3621  0.6423  0.7933
 5473TIP3    H240615   0.195   0.305  11.426  0.9341  0.7540  0.0186
 5474TIP3   OH240616   1.387   5.357  11.579 -0.1949 -0.0171 -0.2523
 5474TIP3    H140617   1.310   5.384  11.629 -0.1020  0.5544 -0.3994
 5474TIP3    H240618   1.453   5.335  11.646  0.2229  1.5965 -0.0830
 5475TIP3   OH240619   4.801   6.760  12.657 -0.6955 -0.8976 -0.5769
 5475TIP3    H140620   4.706   6.775  12.660 -0.7815 -1.5852  0.7782
 5475TIP3    H240621   4.822   6.725  12.743  1.1759  1.3578 -0.0099
 5476TIP3   OH240622   3.307   6.901  12.318  0.4536  0.1633 -0.8643
 5476TIP3    H140623   3.376   6.964  12.337 -0.6224  1.0140  0.4237
 5476TIP3    H240624   3.279   6.923  12.229 -0.7680  2.4348 -0.0075
 5477TIP3   OH240625   0.695   3.156  11.563 -0.3201  0.5656 -0.2000
 5477TIP3    H140626   0.775   3.137  11.611 -0.4264  1.4982  0.3688
 5477TIP3    H240627   0.630   3.173  11.631 -0.9599 -0.0070 -0.6571
 5478TIP3   OH240628   3.619   1.444  10.693 -0.1318 -0.5700  0.1768
 5478TIP3    H140629   3.680   1.493  10.638  0.8349  0.1752  1.8670
 5478TIP3    H240630   3.670   1.372  10.729 -1.3629 -2.5195 -1.7198
 5479TIP3   OH240631   5.024   0.109  11.913 -0.1671 -0.4113  0.7368
 5479TIP3    H140632   4.930   0.126  11.904 -0.5331 -2.2519  0.5763
 5479TIP3    H240633   5.058   0.116  11.825 -0.3900 -0.8757  0.6078
 5480TIP3   OH240634   5.006   6.213  11.040 -0.2850 -0.4716  0.1063
 5480TIP3    H140635   5.019   6.291  11.094 -1.3594 -0.4479  0.3506
 5480TIP3    H240636   4.921   6.226  10.998  0.5191 -0.4947 -1.6130
 5481TIP3   OH240637   6.553   2.576  12.088  0.5727  0.3461  0.0374
 5481TIP3    H140638   6.473   2.629  12.090  0.8911  0.9377 -1.4078
 5481TIP3    H240639   6.610   2.618  12.152  0.5063  1.2817 -0.4820
 5482TIP3   OH240640   1.765   2.566  10.887  0.3432  0.3119 -0.0151
 5482TIP3    H140641   1.811   2.485  10.865 -0.7158 -0.2690 -0.1724
 5482TIP3    H240642   1.673   2.540  10.895  0.4281  0.6508  4.1541
 5483TIP3   OH240643   2.997   0.651  11.742  0.1220 -0.2734  0.3033
 5483TIP3    H140644   3.076   0.599  11.727  0.6492  0.1192  1.5904
 5483TIP3    H240645   3.027   0.742  11.735 -0.5820 -0.1133 -0.9157
 5484TIP3   OH240646   7.064   5.055  11.242  0.0061  0.0559 -0.0653
 5484TIP3    H140647   7.106   5.109  11.175  0.7046  0.1320  0.4261
 5484TIP3    H240648   6.984   5.023  11.200 -0.2515  1.1880 -0.4807
 5485TIP3   OH240649   6.139   5.837  12.318 -0.0751 -0.1791  0.3628
 5485TIP3    H140650   6.213   5.777  12.305 -0.4733 -0.2919 -1.7461
 5485TIP3    H240651   6.173   5.923  12.292 -0.5006 -0.1172  0.0031
 5486TIP3   OH240652   5.345   5.145  11.146 -0.0809  0.5264 -0.3125
 5486TIP3    H140653   5.286   5.166  11.219 -2.3276  2.7481 -2.5744
 5486TIP3    H240654   5.423   5.109  11.188 -2.6596 -1.9360  2.9555
 5487TIP3   OH240655   7.490   1.644  11.815 -0.1633  0.0198 -0.0158
 5487TIP3    H140656   7.419   1.701  11.787  0.8513  1.1566 -0.3356
 5487TIP3    H240657   7.558   1.703  11.846 -0.0023 -1.0908  1.9257
 5488TIP3   OH240658   6.774   1.222  10.856 -0.1381  0.0918  0.0910
 5488TIP3    H140659   6.694   1.243  10.904  0.7907  0.1075  1.7073
 5488TIP3    H240660   6.786   1.128  10.868  0.0027  0.0614 -0.2763
 5489TIP3   OH240661   4.496   2.272  12.230 -0.2072  0.2441 -0.1337
 5489TIP3    H140662   4.554   2.215  12.180 -0.1823  1.4921 -1.6125
 5489TIP3    H240663   4.413   2.225  12.234  0.2176 -0.5076 -0.0962
 5490TIP3   OH240664   7.192   7.488  12.311 -0.1845  0.2352 -0.1729
 5490TIP3    H140665   7.145   7.569  12.293 -0.6813 -0.2281 -1.0399
 5490TIP3    H240666   7.248   7.474  12.235 -1.4428 -1.1510 -0.9015
 5491TIP3   OH240667   7.652   6.415  11.393 -0.1409  0.3154  0.2142
 5491TIP3    H140668   7.616   6.381  11.311  1.4899  0.5079 -0.6064
 5491TIP3    H240669   7.744   6.431  11.374  0.0596  1.2190  1.8330
 5492TIP3   OH240670   2.742   5.624  11.660 -0.7475 -0.6284  0.6294
 5492TIP3    H140671   2.680   5.583  11.720 -0.5130 -0.7850  0.7654
 5492TIP3    H240672   2.721   5.588  11.574 -0.1419 -1.5015  0.8396
 5493TIP3   OH240673   4.524   3.839  10.989  0.3143 -0.4430  0.1736
 5493TIP3    H140674   4.573   3.768  10.947  1.0849 -0.3281  0.8360
 5493TIP3    H240675   4.455   3.796  11.039  0.5754 -0.7116  0.3055
 5494TIP3   OH240676   3.408   6.634  11.220 -0.4541 -0.2633 -0.2507
 5494TIP3    H140677   3.500   6.649  11.200 -0.5902  0.2619 -0.4974
 5494TIP3    H240678   3.398   6.539  11.216 -0.2070 -0.2446 -1.4597
 5495TIP3   OH240679   0.255   0.182  12.040  0.0582  0.3330 -0.0586
 5495TIP3    H140680   0.175   0.143  12.075 -0.4746  1.1689 -0.3337
 5495TIP3    H240681   0.291   0.231  12.114  0.9952 -1.0278  0.4400
 5496TIP3   OH240682   4.869   3.506  12.510 -0.7965 -0.3302 -0.1430
 5496TIP3    H140683   4.857   3.426  12.560  0.0683 -1.4430 -1.6254
 5496TIP3    H240684   4.781   3.531  12.482 -0.9364 -1.7280 -1.0402
 5497TIP3   OH240685   0.139   7.480  11.221  0.5175  0.4322  0.0302
 5497TIP3    H140686   0.193   7.451  11.294  1.5261  2.8243  0.3308
 5497TIP3    H240687   0.068   7.530  11.261  1.3563  2.1969 -0.5413
 5498TIP3   OH240688   3.502   4.799  11.780 -0.1626 -0.8459  0.1820
 5498TIP3    H140689   3.515   4.736  11.851 -0.4415 -0.1839  0.8321
 5498TIP3    H240690   3.551   4.876  11.808 -0.9491 -0.2866  0.0576
 5499TIP3   OH240691   6.302   5.361  12.937  0.5971  0.7653  0.1158
 5499TIP3    H140692   6.336   5.273  12.947  0.7701  0.6677 -1.1673
 5499TIP3    H240693   6.367   5.406  12.883  0.1278  1.4450  0.1001
 5500TIP3   OH240694   6.588   2.204  11.251 -0.2745 -0.1456 -0.1467
 5500TIP3    H140695   6.604   2.206  11.156  0.5228 -1.7086 -0.0694
 5500TIP3    H240696   6.653   2.265  11.287 -0.4583  0.3146 -0.5693
 5501TIP3   OH240697   3.893   2.907  12.129 -0.3501 -0.3274 -0.4041
 5501TIP3    H140698   3.819   2.897  12.070 -3.0020  3.6296  1.8236
 5501TIP3    H240699   3.869   2.857  12.207 -0.3322  0.3287  0.0278
 5502TIP3   OH240700   4.656   2.682  11.349  0.3730 -0.0762  0.3233
 5502TIP3    H140701   4.726   2.656  11.289  0.0514  0.9910 -0.5398
 5502TIP3    H240702   4.702   2.722  11.423  0.7795 -1.5723  0.9090
 5503TIP3   OH240703   0.081   3.658  11.170 -0.2945 -0.5864  0.0345
 5503TIP3    H140704   0.089   3.663  11.265 -1.2430  0.2796  0.0938
 5503TIP3    H240705  -0.008   3.688  11.152  0.0293 -0.2848 -1.1635
 5504TIP3   OH240706   0.433   4.595  10.524  0.0484  0.4134 -0.1245
 5504TIP3    H140707   0.347   4.563  10.498 -0.0078  0.5924 -0.1628
 5504TIP3    H240708   0.462   4.535  10.592 -1.6496  2.3547  2.4894
 5505TIP3   OH240709   7.462   7.082  12.783  0.1246 -0.3368 -0.3277
 5505TIP3    H140710   7.493   7.096  12.694  1.3421 -2.2065 -0.2590
 5505TIP3    H240711   7.534   7.038  12.828 -1.6072 -2.4554  0.6194
 5506TIP3   OH240712   4.314   7.614  11.170  0.0512 -0.6641  0.0279
 5506TIP3    H140713   4.269   7.566  11.239  0.2123 -0.4811  0.2622
 5506TIP3    H240714   4.401   7.576  11.166  0.5147  0.2532  0.8943
 5507TIP3   OH240715   4.442   4.526  11.023  0.1708  0.1016 -1.1425
 5507TIP3    H140716   4.425   4.604  11.076  0.1223 -1.2622  0.9890
 5507TIP3    H240717   4.450   4.559  10.934  0.1045  2.5225 -0.3348
 5508TIP3   OH240718   4.702   0.124  11.004  0.3006 -0.2979  0.4396
 5508TIP3    H140719   4.674   0.084  10.922 -0.3033  0.4287  0.2767
 5508TIP3    H240720   4.621   0.149  11.048  0.6269 -0.4746  1.1512
 5509TIP3   OH240721   7.155   3.026  10.997 -0.3116 -0.5155  0.0412
 5509TIP3    H140722   7.150   2.991  11.086 -1.7766 -1.2936 -0.3209
 5509TIP3    H240723   7.074   3.076  10.986  0.9710  1.6765 -0.0382
 5510TIP3   OH240724   2.404   5.609  11.288 -0.4233  0.0699  0.0548
 5510TIP3    H140725   2.354   5.528  11.286  1.6298 -1.3119  0.7821
 5510TIP3    H240726   2.457   5.607  11.208  0.5727  0.0097  0.6928
 5511TIP3   OH240727   6.799   5.775  11.315 -0.0460  0.1370  0.1700
 5511TIP3    H140728   6.747   5.854  11.310 -0.2788 -0.0340 -0.0964
 5511TIP3    H240729   6.884   5.804  11.349  0.2275  0.6719 -0.9354
 5512TIP3   OH240730   1.610   0.086  11.110  0.0127 -0.7684  0.2253
 5512TIP3    H140731   1.589   0.130  11.192 -1.5642  0.9203 -0.9939
 5512TIP3    H240732   1.678   0.141  11.070  0.4740 -1.3480  0.2027
 5513TIP3   OH240733   4.297   6.189  10.491  0.4865  0.0253  0.0345
 5513TIP3    H140734   4.250   6.209  10.572 -0.0041 -0.8853 -0.0143
 5513TIP3    H240735   4.284   6.095  10.478 -0.3176  0.3387 -1.6465
 5514TIP3   OH240736   3.559   3.684  10.698  0.1981  0.1119  0.1247
 5514TIP3    H140737   3.557   3.770  10.738  1.1806  0.3984 -0.3941
 5514TIP3    H240738   3.467   3.661  10.683 -0.0496  1.5428 -0.7146
 5515TIP3   OH240739   3.711   3.911  11.468  0.3405 -0.4930 -0.2384
 5515TIP3    H140740   3.739   3.819  11.458  0.2571 -0.4208 -1.2908
 5515TIP3    H240741   3.687   3.938  11.379  0.1313  0.4801  0.1038
 5516TIP3   OH240742   3.351   0.388  12.203  0.0779  0.2810 -0.1079
 5516TIP3    H140743   3.295   0.316  12.232 -0.2231  0.1888 -0.9037
 5516TIP3    H240744   3.375   0.434  12.284 -1.3487  0.4777  0.2213
 5517TIP3   OH240745   6.610   5.045  17.417  0.4936 -0.5093  0.2714
 5517TIP3    H140746   6.565   4.961  17.421  1.3148 -0.9429  0.6581
 5517TIP3    H240747   6.693   5.026  17.373 -0.3312  0.5759 -1.8884
 5518TIP3   OH240748   7.202   2.584  11.513 -0.3148 -0.7104 -0.4997
 5518TIP3    H140749   7.181   2.519  11.446 -0.4291 -1.3485  0.1380
 5518TIP3    H240750   7.117   2.613  11.545 -0.2851  0.3737 -1.3424
 5519TIP3   OH240751   3.263   1.608  12.322 -0.7489 -0.2125 -0.7893
 5519TIP3    H140752   3.357   1.622  12.324 -0.5510 -1.5259  0.4194
 5519TIP3    H240753   3.242   1.594  12.230  0.5728 -1.9399 -0.8586
 5520TIP3   OH240754   2.969   4.414  12.044 -0.3306 -0.0706 -0.6791
 5520TIP3    H140755   2.972   4.462  11.962  0.1624  1.6719  0.3078
 5520TIP3    H240756   3.046   4.357  12.042 -0.4933 -0.2717 -1.5346
 5521TIP3   OH240757   0.774   0.732  12.233 -0.0757  0.2037 -0.7983
 5521TIP3    H140758   0.843   0.674  12.203 -0.3134  0.2770 -1.5038
 5521TIP3    H240759   0.810   0.774  12.311 -0.1377 -1.3377  0.0818
 5522TIP3   OH240760   7.592   5.862  10.619  0.0547  1.1192 -0.1699
 5522TIP3    H140761   7.656   5.928  10.648  1.7172  0.3109 -1.7742
 5522TIP3    H240762   7.531   5.911  10.564  0.3369  1.6050 -0.0568
 5523TIP3   OH240763   2.263   6.142  12.193 -0.1123  0.2503 -0.6992
 5523TIP3    H140764   2.225   6.059  12.223  1.0436  0.0141  0.1960
 5523TIP3    H240765   2.315   6.118  12.117 -1.3124  0.4940 -1.6245
 5524TIP3   OH240766   6.280   3.987  11.279  1.0910 -0.7106 -0.6930
 5524TIP3    H140767   6.278   3.930  11.202  0.4390  1.1934 -2.1725
 5524TIP3    H240768   6.215   3.950  11.339 -1.0034 -0.3171 -2.5839
 5525TIP3   OH240769   2.526   3.019  10.867  0.2789  0.0092  0.4386
 5525TIP3    H140770   2.527   3.081  10.940 -0.3407  1.7574 -0.9744
 5525TIP3    H240771   2.617   3.017  10.837  0.2055  0.6815  0.1507
 5526TIP3   OH240772   0.675   4.044  10.911 -0.1163  0.6052  0.8102
 5526TIP3    H140773   0.601   4.105  10.910  1.0875  2.1153  1.3366
 5526TIP3    H240774   0.665   3.997  10.993  0.0919  1.5552  1.3892
 5527TIP3   OH240775   6.902   7.086  11.014 -0.0060 -0.5337  0.0958
 5527TIP3    H140776   6.917   6.993  10.992  2.0643  0.3119 -2.7082
 5527TIP3    H240777   6.975   7.108  11.072  2.0538  0.1887 -2.5237
 5528TIP3   OH240778   2.570   5.714  13.065  0.3333  0.0060 -0.0221
 5528TIP3    H140779   2.542   5.700  12.974  0.3724 -1.6093  0.1887
 5528TIP3    H240780   2.529   5.643  13.114  0.1273  0.9851  1.2817
 5529TIP3   OH240781   3.324   2.625  17.804 -0.0939 -0.4276  0.4608
 5529TIP3    H140782   3.356   2.671  17.882 -0.5355  0.8367 -0.0742
 5529TIP3    H240783   3.391   2.559  17.786 -1.0895 -2.3948  3.2549
 5530TIP3   OH240784   3.501   1.474  11.861 -0.3915  0.2720 -0.3137
 5530TIP3    H140785   3.526   1.404  11.921 -0.8564  1.3627  1.2121
 5530TIP3    H240786   3.563   1.544  11.881 -0.8274  0.8029 -0.8141
 5531TIP3   OH240787   5.474   3.285  12.634  0.1827  0.4657  0.5635
 5531TIP3    H140788   5.456   3.192  12.624 -1.2567  0.6489  1.0984
 5531TIP3    H240789   5.562   3.297  12.599  0.6181 -1.1835  1.0086
 5532TIP3   OH240790   3.421   5.361  11.339 -0.1497  0.5403 -0.0885
 5532TIP3    H140791   3.516   5.365  11.338 -0.1323  0.2271 -0.6332
 5532TIP3    H240792   3.392   5.451  11.358  0.2541  0.0976  2.9846
 5533TIP3   OH240793   7.154   0.154  12.714 -0.4141  0.5328 -0.0393
 5533TIP3    H140794   7.236   0.105  12.710 -1.1525 -0.7842  0.0688
 5533TIP3    H240795   7.178   0.245  12.696  1.1548  0.2919  0.7181
 5534TIP3   OH240796   3.650   1.689  11.963 -0.3753  0.6074 -0.0113
 5534TIP3    H140797   3.734   1.666  12.003 -1.3761  0.6943  2.3287
 5534TIP3    H240798   3.665   1.774  11.922  1.0308 -0.0380 -0.9045
 5535TIP3   OH240799   3.826   1.548  12.154 -0.4021  0.1632  0.4655
 5535TIP3    H140800   3.883   1.563  12.230 -0.2695  0.9010  0.2269
 5535TIP3    H240801   3.811   1.453  12.154 -0.8804  0.2240  1.7536
 5536TIP3   OH240802   5.855   2.269  10.476  0.1394  0.0140  0.8248
 5536TIP3    H140803   5.849   2.224  10.391  0.3947 -1.7374  1.6820
 5536TIP3    H240804   5.782   2.233  10.526 -0.1362  1.1946  1.2973
 5537TIP3   OH240805   0.143   5.535  11.937  0.2058 -0.1734  0.2223
 5537TIP3    H140806   0.206   5.469  11.907 -1.6508 -1.6151 -0.7272
 5537TIP3    H240807   0.164   5.613  11.885  0.7770 -0.8376 -0.5752
 5538TIP3   OH240808   4.735   4.126  11.307 -0.1108  0.0096 -1.0565
 5538TIP3    H140809   4.796   4.102  11.237 -1.3755 -1.3443 -1.7617
 5538TIP3    H240810   4.672   4.184  11.264 -0.4966 -0.2717 -0.8727
 5539TIP3   OH240811   3.438   1.904  11.331 -0.3213  0.4043 -0.1280
 5539TIP3    H140812   3.527   1.884  11.361  0.3709  0.7479 -1.8434
 5539TIP3    H240813   3.394   1.819  11.326 -0.1679  0.2491  0.8797
 5540TIP3   OH240814   1.879   6.848  12.029 -0.5432 -0.3019 -0.7781
 5540TIP3    H140815   1.861   6.934  11.990  0.9083  0.3937 -0.0099
 5540TIP3    H240816   1.922   6.799  11.959 -1.2003 -0.3582 -1.1585
 5541TIP3   OH240817   0.650   6.666  12.970 -0.3571  0.3648  0.1705
 5541TIP3    H140818   0.562   6.686  13.003 -0.7097 -0.0679 -0.4802
 5541TIP3    H240819   0.652   6.707  12.884  0.1724  0.5833  0.2852
 5542TIP3   OH240820   1.938   0.603  10.855  0.0935  0.3034  0.4537
 5542TIP3    H140821   1.858   0.598  10.803  0.2186  1.8877  0.0316
 5542TIP3    H240822   1.910   0.640  10.939  0.1797 -0.4326  0.8084
 5543TIP3   OH240823   2.359   6.900  11.958  0.2889 -0.2531  0.3030
 5543TIP3    H140824   2.329   6.948  12.035  1.5006 -2.9923  2.7041
 5543TIP3    H240825   2.454   6.897  11.967  0.3133 -2.4304 -0.0794
 5544TIP3   OH240826   2.665   1.724  11.255  0.3163  0.1760  0.1315
 5544TIP3    H140827   2.589   1.761  11.212  1.1809  0.1027 -1.5611
 5544TIP3    H240828   2.674   1.773  11.336 -1.4169  0.2875  0.2732
 5545TIP3   OH240829   1.906   7.647  12.560 -0.7812 -0.3131  0.8626
 5545TIP3    H140830   1.907   7.646  12.656 -2.6441  3.0037  1.0380
 5545TIP3    H240831   1.980   7.702  12.536 -0.1486 -1.3617  0.3194
 5546TIP3   OH240832   0.521   6.042  11.550 -0.2283 -0.6051 -0.2396
 5546TIP3    H140833   0.517   6.020  11.457  0.0554 -0.8270 -0.2019
 5546TIP3    H240834   0.565   5.967  11.590  1.4427  0.3330 -0.2086
 5547TIP3   OH240835   2.666   6.759  12.384 -0.4300 -0.1450 -0.0158
 5547TIP3    H140836   2.644   6.852  12.384  0.1658 -0.0012  0.3237
 5547TIP3    H240837   2.709   6.745  12.299  3.5682  0.9124  1.5954
 5548TIP3   OH240838   4.235   1.744  13.013  0.0726  0.4554 -0.2294
 5548TIP3    H140839   4.272   1.827  13.043 -0.1646  2.0825 -3.9010
 5548TIP3    H240840   4.140   1.756  13.020  0.0396 -0.3464  1.0639
 5549TIP3   OH240841   1.066   5.081  12.753  0.1738  0.3582 -0.0513
 5549TIP3    H140842   1.020   5.111  12.831 -0.3117 -0.1858 -0.1151
 5549TIP3    H240843   1.141   5.031  12.787 -0.1959 -0.1190  0.0773
 5550TIP3   OH240844   3.642   7.656  13.524 -0.3025 -0.2004 -0.3111
 5550TIP3    H140845   3.725   7.635  13.481 -0.2170 -0.4854 -0.0113
 5550TIP3    H240846   3.589   7.576  13.514 -0.2768 -0.2742  0.1199
 5551TIP3   OH240847   0.647   7.650  12.803 -0.0270  0.1911 -0.1856
 5551TIP3    H140848   0.600   7.659  12.886 -0.3708 -1.6639 -0.1165
 5551TIP3    H240849   0.738   7.674  12.823 -0.1392 -0.1080  0.6957
 5552TIP3   OH240850   3.646   0.117  11.340 -0.2520 -0.1980  0.1997
 5552TIP3    H140851   3.618   0.112  11.249 -1.6574 -0.1773  0.5931
 5552TIP3    H240852   3.734   0.153  11.337 -0.1845 -0.4393 -1.1607
 5553TIP3   OH240853   3.960   5.015  10.489  0.2659 -0.5206 -0.4518
 5553TIP3    H140854   3.939   5.069  10.564 -1.7373 -1.2432 -0.4422
 5553TIP3    H240855   4.019   5.069  10.436  1.7753 -0.0109  1.6002
 5554TIP3   OH240856   0.610   2.969  10.921 -0.3073 -0.7315  0.0123
 5554TIP3    H140857   0.566   2.973  10.836 -2.0904 -0.1709  0.8991
 5554TIP3    H240858   0.670   2.894  10.914 -1.1844 -1.3443 -1.3796
 5555TIP3   OH240859   4.265   7.253  12.048 -0.2427 -0.1516  0.0280
 5555TIP3    H140860   4.188   7.222  12.096 -1.7581  1.7485 -0.9921
 5555TIP3    H240861   4.279   7.342  12.080  0.0878  0.3437 -1.4017
 5556TIP3   OH240862   1.567   7.504  12.161 -0.0077 -0.1254 -0.4791
 5556TIP3    H140863   1.526   7.423  12.190  0.6124 -0.1939  0.2444
 5556TIP3    H240864   1.532   7.571  12.219  0.9780 -0.2059  0.2237
 5557TIP3   OH240865   2.075   4.584  11.948  0.8809  0.2170 -0.2744
 5557TIP3    H140866   1.994   4.633  11.929  2.9595  4.2211  0.0921
 5557TIP3    H240867   2.096   4.539  11.866 -1.0734  0.0328 -0.7239
 5558TIP3   OH240868   3.828   3.806  12.666  0.0200  0.8744  0.0272
 5558TIP3    H140869   3.743   3.804  12.710 -0.5843  0.9327 -1.1064
 5558TIP3    H240870   3.825   3.732  12.604 -0.3972  2.5703 -2.1076
 5559TIP3   OH240871   6.077   5.032  11.659  0.0385 -0.0518 -0.4164
 5559TIP3    H140872   6.074   5.003  11.568  1.2203  0.1586 -0.5414
 5559TIP3    H240873   5.993   5.005  11.696 -0.8643  0.7551 -1.8248
 5560TIP3   OH240874   1.803   7.515  12.831  0.2335  0.6178  0.2035
 5560TIP3    H140875   1.855   7.595  12.834 -0.7481  1.2534  0.6834
 5560TIP3    H240876   1.851   7.454  12.887 -0.2488  1.6578  1.8168
 5561TIP3   OH240877   7.087   6.450  11.451 -0.0199  0.6647 -0.4753
 5561TIP3    H140878   7.051   6.528  11.492  0.2213  0.5453 -0.0277
 5561TIP3    H240879   7.084   6.468  11.357  0.9172  1.5967 -0.3398
 5562TIP3   OH240880   1.818   2.060  11.764 -0.0179  0.1716 -0.3966
 5562TIP3    H140881   1.790   2.151  11.764  0.6955  0.4117  1.0516
 5562TIP3    H240882   1.765   2.018  11.832  1.9786  0.3081  1.3496
 5563TIP3   OH240883   7.512   6.959  13.115  0.3889  0.2890 -0.4979
 5563TIP3    H140884   7.523   7.029  13.178  0.4312 -1.1161  1.1419
 5563TIP3    H240885   7.417   6.943  13.112  0.5093 -0.7975  0.5945
 5564TIP3   OH240886   5.249   4.107  10.780  0.0578  0.4823 -0.7356
 5564TIP3    H140887   5.203   4.025  10.768  1.9973 -0.6430 -0.9660
 5564TIP3    H240888   5.201   4.171  10.727 -1.0953 -0.6442 -1.0717
 5565TIP3   OH240889   5.834   5.974  10.814 -0.3864 -0.0847  0.4223
 5565TIP3    H140890   5.830   5.934  10.901  0.8920 -1.3242 -0.0558
 5565TIP3    H240891   5.816   5.902  10.753 -1.5012  0.8104 -0.3703
 5566TIP3   OH240892   2.254   4.446  11.363 -0.2301 -0.3851  0.0946
 5566TIP3    H140893   2.341   4.409  11.353 -0.3672 -0.2099 -2.1440
 5566TIP3    H240894   2.200   4.373  11.392  0.1508 -1.1487 -1.0793
 5567TIP3   OH240895   2.978   7.317  13.152  0.2187  0.3362 -0.2150
 5567TIP3    H140896   2.925   7.361  13.085 -0.9187 -1.2258 -0.3783
 5567TIP3    H240897   2.915   7.269  13.205  1.2465  0.4705  1.1707
 5568TIP3   OH240898   3.119   5.702  10.534  0.6004 -0.0591 -0.9252
 5568TIP3    H140899   3.068   5.651  10.597 -0.3048  1.5727 -0.2873
 5568TIP3    H240900   3.188   5.744  10.587 -1.1141  2.6037 -0.6076
 5569TIP3   OH240901   6.335   6.966  11.336  0.2098 -0.4239  0.0630
 5569TIP3    H140902   6.430   6.953  11.335  0.5109  1.4362  0.7102
 5569TIP3    H240903   6.321   7.042  11.279 -0.8986 -0.7236 -0.0729
 5570TIP3   OH240904   0.627   1.955  11.134 -0.1452 -0.1904  0.1957
 5570TIP3    H140905   0.657   1.932  11.046  0.9921 -0.1708  0.5565
 5570TIP3    H240906   0.655   2.046  11.145  1.2243 -0.6904  1.1644
 5571TIP3   OH240907   3.371   4.404  10.938 -0.3054 -0.4253  0.1896
 5571TIP3    H140908   3.357   4.488  10.982 -1.0582 -0.5247  0.1498
 5571TIP3    H240909   3.461   4.408  10.907 -0.1356  0.1183  0.7308
 5572TIP3   OH240910   4.894   3.755  10.990 -0.6082  0.3253  0.1392
 5572TIP3    H140911   4.915   3.671  11.032 -1.4222 -0.0869 -0.2468
 5572TIP3    H240912   4.808   3.741  10.950 -1.0476  1.5491  0.6037
 5573TIP3   OH240913   3.043   0.671  12.445 -0.0591  0.1832  0.3046
 5573TIP3    H140914   2.959   0.715  12.459 -0.4838 -0.1931 -0.9515
 5573TIP3    H240915   3.108   0.741  12.446 -0.5297  0.6282  0.0833
 5574TIP3   OH240916   4.642   5.565  10.764  0.1422  0.0808  0.1707
 5574TIP3    H140917   4.583   5.552  10.689  0.1872 -1.0497  0.3188
 5574TIP3    H240918   4.709   5.625  10.732  1.0504 -1.5942 -1.2116
 5575TIP3   OH240919   5.811   7.033  11.176  0.0639 -0.0968  0.2853
 5575TIP3    H140920   5.718   7.011  11.173  0.1875 -0.6119  0.1726
 5575TIP3    H240921   5.847   6.974  11.243  0.4144 -0.2884 -0.0718
 5576TIP3   OH240922   4.663   1.666  12.377 -0.1588  0.2319 -0.5210
 5576TIP3    H140923   4.710   1.583  12.383  0.0423  0.4324  1.4993
 5576TIP3    H240924   4.640   1.675  12.285 -0.3478 -2.1497 -0.7451
 5577TIP3   OH240925   6.086   4.738  13.097 -0.4647 -0.4201  0.2653
 5577TIP3    H140926   6.006   4.744  13.044  0.3898  0.9069 -0.9391
 5577TIP3    H240927   6.089   4.646  13.124 -1.0053 -1.1752 -1.9683
 5578TIP3   OH240928   0.153   2.413  11.114 -0.1715 -0.4148  0.0097
 5578TIP3    H140929   0.173   2.506  11.123  0.5969 -0.5207 -0.4959
 5578TIP3    H240930   0.164   2.377  11.202 -0.2689 -0.0599  0.1666
 5579TIP3   OH240931   3.275   5.761  10.812 -0.4867  0.1836  0.0058
 5579TIP3    H140932   3.298   5.669  10.826 -0.0850  0.4734  1.2901
 5579TIP3    H240933   3.186   5.768  10.846  0.2010  0.7056  1.7790
 5580TIP3   OH240934   4.149   4.910  10.806 -0.3810  0.3085  0.7525
 5580TIP3    H140935   4.087   4.845  10.774 -0.3963  0.7883 -0.2472
 5580TIP3    H240936   4.235   4.878  10.779 -0.2311 -0.0721  1.6401
 5581TIP3   OH240937   4.587   2.202  12.711 -0.3034 -0.5999 -0.6798
 5581TIP3    H140938   4.675   2.204  12.749 -0.5038 -0.6085 -0.2048
 5581TIP3    H240939   4.542   2.133  12.759 -0.9676  0.2710 -0.0174
 5582TIP3   OH240940   2.740   3.080  12.693  0.0986 -0.5497 -0.2836
 5582TIP3    H140941   2.778   3.102  12.778  0.6397 -2.0964 -0.0895
 5582TIP3    H240942   2.738   3.162  12.645 -0.2521  0.3621  1.2306
 5583TIP3   OH240943   2.132   0.193  11.629 -0.5519 -0.1082  0.4485
 5583TIP3    H140944   2.210   0.144  11.605  1.1810  1.9842  1.5276
 5583TIP3    H240945   2.113   0.166  11.719 -2.0405 -1.6940 -0.2678
 5584TIP3   OH240946   0.458   0.571  10.642 -0.6107  0.1985 -0.1133
 5584TIP3    H140947   0.479   0.492  10.693  0.2191 -0.3329 -1.2253
 5584TIP3    H240948   0.533   0.628  10.655 -0.5858  0.2315 -0.3963
 5585TIP3   OH240949   1.198   2.082  11.054  0.0832  0.5071  0.2684
 5585TIP3    H140950   1.213   2.173  11.078  0.3210  0.2920  0.9376
 5585TIP3    H240951   1.264   2.064  10.987  1.2217  0.3087  1.4099
 5586TIP3   OH240952   4.866   1.518  12.121  0.2528  0.4351  0.1683
 5586TIP3    H140953   4.842   1.496  12.211 -0.8480  2.5100  0.4463
 5586TIP3    H240954   4.938   1.580  12.130  0.0508  0.7541 -0.3745
 5587TIP3   OH240955   1.835   6.737  12.477 -0.6476 -0.2891 -0.2315
 5587TIP3    H140956   1.866   6.819  12.437  0.5687 -0.3435  0.5579
 5587TIP3    H240957   1.867   6.741  12.567 -0.5264 -1.6701 -0.2001
 5588TIP3   OH240958   0.416   1.237  13.595  0.6507 -0.3867 -0.3883
 5588TIP3    H140959   0.444   1.181  13.667 -2.5631 -1.3968  0.2320
 5588TIP3    H240960   0.353   1.298  13.634 -0.6176 -0.4768 -2.1828
 5589TIP3   OH240961   5.798   6.249  11.438 -0.0312 -0.3393 -0.2050
 5589TIP3    H140962   5.817   6.161  11.405 -1.8171 -0.7026 -0.3686
 5589TIP3    H240963   5.764   6.234  11.526  0.8362  0.3097  0.2545
 5590TIP3   OH240964   2.510   4.549  12.790 -0.2073  0.2891 -0.1700
 5590TIP3    H140965   2.492   4.525  12.881 -1.0592  0.1442 -0.3632
 5590TIP3    H240966   2.537   4.467  12.748  0.3143  0.3819 -0.0216
 5591TIP3   OH240967   4.975   7.609  12.161 -0.5288 -0.4019  0.1698
 5591TIP3    H140968   5.017   7.541  12.108  0.5348  0.6472 -0.4003
 5591TIP3    H240969   4.999   7.691  12.117  0.2081  0.4990  2.1359
 5592TIP3   OH240970   0.211   3.982  10.900 -0.0449  0.4132 -0.1694
 5592TIP3    H140971   0.172   3.994  10.813 -2.5844  0.2387  0.8671
 5592TIP3    H240972   0.152   4.027  10.960  1.6483  0.5312  1.5112
 5593TIP3   OH240973   1.808   2.322  12.705 -0.1554  0.2048 -0.0300
 5593TIP3    H140974   1.846   2.352  12.622 -0.7680  4.2280  0.9161
 5593TIP3    H240975   1.854   2.373  12.772 -1.9433 -0.4517  1.8032
 5594TIP3   OH240976   7.280   6.783  11.404  0.1404 -0.5192  0.6458
 5594TIP3    H140977   7.249   6.785  11.313  0.8984  1.2809  0.3754
 5594TIP3    H240978   7.375   6.791  11.396  0.1336  0.7573  1.6000
 5595TIP3   OH240979   7.351   6.941  12.278  0.2340  0.0601 -0.0291
 5595TIP3    H140980   7.344   6.851  12.246 -0.8527  0.2309 -0.2980
 5595TIP3    H240981   7.317   6.937  12.368  0.2822  0.1796 -0.0052
 5596TIP3   OH240982   6.856   5.213  13.435  0.3894 -0.1292 -0.6391
 5596TIP3    H140983   6.852   5.303  13.403  1.1063  0.7440  1.5258
 5596TIP3    H240984   6.950   5.196  13.445  0.2184 -0.3864  0.7669
 5597TIP3   OH240985   0.862   7.139  12.630  0.3233  0.7156  0.8738
 5597TIP3    H140986   0.787   7.144  12.689 -0.2785  4.5002  0.0428
 5597TIP3    H240987   0.840   7.198  12.558  2.3196 -1.3919 -1.6602
 5598TIP3   OH240988   6.992   3.904  10.772  0.4402 -0.4659  0.0594
 5598TIP3    H140989   6.954   3.868  10.692 -0.7968  1.5436 -0.3535
 5598TIP3    H240990   7.084   3.878  10.769  0.8286  0.7990 -2.8565
 5599TIP3   OH240991   5.409   6.946  10.829  0.0224  0.0281  0.0512
 5599TIP3    H140992   5.435   6.883  10.762 -0.1925  0.5534 -0.5342
 5599TIP3    H240993   5.377   7.021  10.780  1.3240  1.0581  0.7035
 5600TIP3   OH240994   0.062   5.600  13.122  0.0821  0.3373  0.3083
 5600TIP3    H140995   0.037   5.591  13.031  3.1680 -0.9882 -0.5560
 5600TIP3    H240996   0.068   5.694  13.136  1.3847  0.5760 -1.4915
 5601TIP3   OH240997   1.507   5.063  12.226 -0.0525  0.1317 -0.3611
 5601TIP3    H140998   1.453   5.096  12.298 -1.2668  1.4325 -1.7823
 5601TIP3    H240999   1.595   5.057  12.263 -0.7645 -0.0213  1.4378
 5602TIP3   OH241000   0.677   3.505  12.952  0.7022  0.0078  0.0258
 5602TIP3    H141001   0.583   3.500  12.935  1.0327  2.1619 -3.3971
 5602TIP3    H241002   0.684   3.543  13.039 -1.6069  0.4205  0.0940
 5603TIP3   OH241003   0.866   2.599  12.945 -0.6154  0.4873 -0.0911
 5603TIP3    H141004   0.858   2.599  13.041  4.3357 -0.5044  0.6271
 5603TIP3    H241005   0.838   2.511  12.919 -0.7459  0.2881  0.6781
 5604TIP3   OH241006   4.403   7.307  11.085 -0.4826  0.0523 -0.0332
 5604TIP3    H141007   4.411   7.273  11.174 -0.6619 -2.2035 -0.8138
 5604TIP3    H241008   4.312   7.339  11.080 -0.0645  1.4933  0.9622
 5605TIP3   OH241009   1.745   6.300  12.183 -0.6934 -0.1089 -0.4014
 5605TIP3    H141010   1.828   6.256  12.201  0.5317  2.4962  0.8998
 5605TIP3    H241011   1.746   6.314  12.088  0.7171  0.4497 -0.3321
 5606TIP3   OH241012   3.365   1.318  10.749 -0.3194  0.3101 -0.4338
 5606TIP3    H141013   3.395   1.247  10.693 -2.0795 -0.7799 -0.0664
 5606TIP3    H241014   3.424   1.391  10.729  1.9762 -1.4196 -0.3133
 5607TIP3   OH241015   3.854   2.524  12.309  0.0600 -0.2046 -0.2871
 5607TIP3    H141016   3.811   2.610  12.312 -0.5430 -0.4783 -0.9087
 5607TIP3    H241017   3.801   2.472  12.249 -0.1381 -1.3298  0.8229
 5608TIP3   OH241018   0.543   6.518  10.746 -0.6579 -0.0140  0.7218
 5608TIP3    H141019   0.527   6.434  10.702 -0.6291  0.2175  0.2725
 5608TIP3    H241020   0.540   6.496  10.839 -0.8700 -0.4776  0.6105
 5609TIP3   OH241021   7.481   5.316  10.980 -0.0042  0.8122  0.0775
 5609TIP3    H141022   7.485   5.323  10.884 -0.2086 -1.5205 -0.1671
 5609TIP3    H241023   7.569   5.336  11.010  0.2318  0.8804 -0.6481
 5610TIP3   OH241024   7.228   1.039  12.614  0.1687  0.6387  0.2796
 5610TIP3    H141025   7.151   0.988  12.592  1.2224 -0.9660  0.1206
 5610TIP3    H241026   7.239   1.029  12.708  0.2523  0.7547  0.2833
 5611TIP3   OH241027   7.007   0.137  13.336  0.2990  0.1461 -0.3165
 5611TIP3    H141028   6.952   0.148  13.413 -0.8003  2.5282 -1.3242
 5611TIP3    H241029   7.092   0.171  13.362  0.3879 -0.5510  0.3073
 5612TIP3   OH241030   0.956   0.174  11.801 -0.6077 -0.0815  0.1572
 5612TIP3    H141031   0.971   0.086  11.766  0.0975 -0.7012  1.9015
 5612TIP3    H241032   0.863   0.190  11.786 -0.7340 -1.0972 -0.2406
 5613TIP3   OH241033   3.249   2.787  12.641  0.3137 -0.0880 -0.2397
 5613TIP3    H141034   3.236   2.697  12.612  0.5486 -0.3658  0.4857
 5613TIP3    H241035   3.265   2.780  12.735  2.9098  0.4439 -0.5527
 5614TIP3   OH241036   6.396   4.330  11.369 -0.3162  0.2455 -0.1205
 5614TIP3    H141037   6.440   4.355  11.450  0.2810  0.1118 -0.4005
 5614TIP3    H241038   6.465   4.328  11.303 -0.5014 -1.1806 -0.3173
 5615TIP3   OH241039   0.948   2.716  11.146  0.4332 -1.0434 -0.0890
 5615TIP3    H141040   0.982   2.771  11.076 -2.7161 -1.3468 -2.0920
 5615TIP3    H241041   0.899   2.777  11.202  0.0894 -1.2716 -0.1382
 5616TIP3   OH241042   5.898   6.207  11.011 -0.6033 -0.2385 -0.5329
 5616TIP3    H141043   5.918   6.188  10.920 -0.9411 -1.2305 -0.4064
 5616TIP3    H241044   5.812   6.169  11.026  0.0237 -1.2881  0.5559
 5617TIP3   OH241045   6.060   6.982  12.669 -0.0570  0.4237 -0.1786
 5617TIP3    H141046   6.092   6.950  12.585  1.1573  0.0996  0.3927
 5617TIP3    H241047   6.047   7.076  12.655 -1.6420  0.0749 -1.2486
 5618TIP3   OH241048   0.756   3.444  11.192 -0.5932  0.3179  0.2222
 5618TIP3    H141049   0.673   3.488  11.209 -1.9310 -2.0810  0.2264
 5618TIP3    H241050   0.810   3.464  11.269 -0.2430  3.7025 -0.7251
 5619TIP3   OH241051   3.695   5.848  12.162  0.2217 -0.5855  0.1158
 5619TIP3    H141052   3.615   5.796  12.161  1.2573 -2.2541 -0.1491
 5619TIP3    H241053   3.725   5.848  12.071  1.2104 -1.1294  0.4318
 5620TIP3   OH241054   3.057   2.463  11.952 -0.2643  0.4212 -0.4489
 5620TIP3    H141055   3.017   2.390  11.904  0.9951  0.3338 -1.4111
 5620TIP3    H241056   3.031   2.541  11.903 -1.6251  0.6430  0.5910
 5621TIP3   OH241057   1.294   0.209  11.570 -0.0357  0.2501  0.0839
 5621TIP3    H141058   1.367   0.154  11.542 -0.1487  1.0118 -1.8950
 5621TIP3    H241059   1.241   0.220  11.491 -1.9336  0.2999  1.3012
 5622TIP3   OH241060   3.253   2.801  12.349  0.5384 -0.0678 -0.4888
 5622TIP3    H141061   3.341   2.775  12.321  1.2970  0.4111  1.3347
 5622TIP3    H241062   3.259   2.809  12.444 -1.9401 -1.7094 -0.1028
 5623TIP3   OH241063   0.656   3.121  11.142 -0.0788 -0.1760 -0.0868
 5623TIP3    H141064   0.715   3.196  11.138 -0.0529 -0.1404  0.8638
 5623TIP3    H241065   0.663   3.080  11.056  3.4453 -1.8020  0.7929
 5624TIP3   OH241066   0.443   4.024  11.267 -0.1139  0.3445 -0.3781
 5624TIP3    H141067   0.491   3.962  11.212  0.5587 -1.0714  1.6731
 5624TIP3    H241068   0.354   3.989  11.271  0.6253 -1.6076  2.0864
 5625TIP3   OH241069   1.529   6.468  11.103  0.1057 -0.1227  0.0973
 5625TIP3    H141070   1.492   6.381  11.115 -1.1287  0.1652 -1.3937
 5625TIP3    H241071   1.499   6.496  11.017  1.5288  1.2766  0.0041
 5626TIP3   OH241072   5.953   2.763  13.035  0.0028 -0.0541  0.3715
 5626TIP3    H141073   5.904   2.794  12.958  1.0045 -0.0489 -0.2850
 5626TIP3    H241074   5.951   2.668  13.028 -1.8532 -0.1711  1.6151
 5627TIP3   OH241075   4.064   0.746  13.635  0.5901  0.5165 -0.0091
 5627TIP3    H141076   4.006   0.796  13.577 -1.7191 -1.6389  0.2856
 5627TIP3    H241077   4.032   0.765  13.723  0.7087 -0.2619  0.2050
 5628TIP3   OH241078   3.633   3.489  11.895  0.1821  0.0002  0.2509
 5628TIP3    H141079   3.605   3.553  11.960 -1.6012 -0.3114 -0.1679
 5628TIP3    H241080   3.620   3.532  11.811  2.3683  0.3596  0.0388
 5629TIP3   OH241081   1.124   4.869  12.519  0.2955  0.1944  0.0237
 5629TIP3    H141082   1.218   4.873  12.502  0.3104  0.0082  0.0583
 5629TIP3    H241083   1.106   4.948  12.571  0.5230 -0.0315  0.4521
 5630TIP3   OH241084   6.450   1.487  11.840  0.4741  0.1946  0.0068
 5630TIP3    H141085   6.479   1.467  11.752 -0.0834 -1.5530  0.1780
 5630TIP3    H241086   6.371   1.540  11.828 -0.3472 -1.1205 -0.6018
 5631TIP3   OH241087   5.837   2.391  11.173 -0.5056  0.2728  0.0728
 5631TIP3    H141088   5.865   2.300  11.184  0.3033  0.6088  1.0045
 5631TIP3    H241089   5.779   2.390  11.097 -0.2493 -0.9629 -0.1239
 5632TIP3   OH241090   3.782   3.998  12.483  0.1118  0.0594  0.3633
 5632TIP3    H141091   3.799   3.926  12.544 -3.1423 -1.3799 -0.2320
 5632TIP3    H241092   3.797   3.960  12.396 -1.4371  0.0846  0.0509
 5633TIP3   OH241093   1.232   2.468  11.733 -0.0732 -0.2671 -0.5833
 5633TIP3    H141094   1.182   2.388  11.718 -0.3943 -0.1471 -0.1749
 5633TIP3    H241095   1.166   2.535  11.749  0.1942  0.0794 -0.8977
 5634TIP3   OH241096   1.721   5.437  10.934  0.0871  0.2365 -0.3280
 5634TIP3    H141097   1.803   5.484  10.919 -0.0409  0.0803 -1.5819
 5634TIP3    H241098   1.732   5.397  11.021  0.4914  1.9207  0.4306
 5635TIP3   OH241099   7.118   7.420  10.953 -0.0049 -0.5567 -0.4915
 5635TIP3    H141100   7.121   7.441  11.046 -0.4332 -1.7060 -0.2046
 5635TIP3    H241101   7.183   7.478  10.913 -1.2088  1.3720  0.2198
 5636TIP3   OH241102   1.379   3.507  12.614  0.4910 -0.5763  0.4812
 5636TIP3    H141103   1.410   3.594  12.635 -1.8716  0.0860  1.6007
 5636TIP3    H241104   1.352   3.470  12.698 -1.2515 -1.2001 -0.2887
 5637TIP3   OH241105   6.028   0.036  11.074  0.4359 -0.2254 -0.5795
 5637TIP3    H141106   5.942   0.046  11.116  0.2644  0.1060 -1.0057
 5637TIP3    H241107   6.018   0.077  10.989  0.5314 -1.6122 -1.2851
 5638TIP3   OH241108   4.013   2.334  12.073 -0.4883  0.6463  0.2802
 5638TIP3    H141109   4.075   2.355  12.002 -0.4394  1.5285  0.5749
 5638TIP3    H241110   3.948   2.404  12.069 -0.6388  0.5467  0.9303
 5639TIP3   OH241111   3.461   4.112  13.404 -0.3773 -0.2965 -0.6605
 5639TIP3    H141112   3.403   4.049  13.447  0.1248 -1.0010 -0.9986
 5639TIP3    H241113   3.409   4.149  13.333 -1.1028  0.6275  0.3108
 5640TIP3   OH241114   5.811   3.790  11.296  0.1778  0.3681 -0.4664
 5640TIP3    H141115   5.785   3.858  11.359 -3.2168 -0.9160 -0.2750
 5640TIP3    H241116   5.744   3.792  11.229 -0.7574 -3.4647  0.1292
 5641TIP3   OH241117   2.411   7.268  10.937 -0.4283  0.5079 -0.1203
 5641TIP3    H141118   2.426   7.251  10.844 -2.9278  1.2384 -0.7404
 5641TIP3    H241119   2.453   7.353  10.953  0.1060  0.3301 -0.5545
 5642TIP3   OH241120   3.843   6.950  11.752 -0.3871 -0.8101  0.2693
 5642TIP3    H141121   3.828   6.860  11.721 -0.5830 -0.6112 -0.2227
 5642TIP3    H241122   3.762   6.996  11.729  0.4440 -0.0331 -1.2301
 5643TIP3   OH241123   4.613   7.275  10.913 -0.6136 -0.0982  0.4885
 5643TIP3    H141124   4.576   7.272  10.825  0.7048 -0.5349 -0.0920
 5643TIP3    H241125   4.545   7.313  10.967 -0.8593  1.7883 -1.0355
 5644TIP3   OH241126   4.492   3.557  10.704  0.0381 -0.3406  0.7272
 5644TIP3    H141127   4.449   3.527  10.784 -0.9602 -1.0690 -0.0624
 5644TIP3    H241128   4.510   3.478  10.654 -0.7367  0.1952 -0.4476
 5645TIP3   OH241129   0.077   4.058  12.535  0.0295 -0.3904  0.2617
 5645TIP3    H141130  -0.005   4.105  12.551  0.7052  0.7137  0.5860
 5645TIP3    H241131   0.141   4.101  12.591  0.6780 -1.7487  0.6078
 5646TIP3   OH241132   0.591   3.076  12.684  0.4667 -0.4187 -0.2088
 5646TIP3    H141133   0.583   3.158  12.637 -1.6156 -0.7857 -0.5939
 5646TIP3    H241134   0.664   3.090  12.745  0.3866  1.5686 -0.5083
 5647TIP3   OH241135   5.643   4.234  10.993 -0.4398 -0.2560 -0.0273
 5647TIP3    H141136   5.605   4.315  11.027 -1.9991 -0.9038 -0.1384
 5647TIP3    H241137   5.701   4.203  11.062 -0.7641  0.3283  0.5178
 5648TIP3   OH241138   1.539   6.751  12.394 -0.2880  0.1456  0.3392
 5648TIP3    H141139   1.456   6.795  12.415  0.5024  1.5970  0.5339
 5648TIP3    H241140   1.577   6.804  12.325 -0.1907 -1.3719 -0.8290
 5649TIP3   OH241141   2.184   0.492  10.949  0.2422  0.0203  0.2762
 5649TIP3    H141142   2.173   0.480  11.044  0.6795  1.7109  0.5663
 5649TIP3    H241143   2.100   0.528  10.920  0.5922  0.8289  0.2671
 5650TIP3   OH241144   6.234   4.191  13.432  0.0525  0.0971  0.0658
 5650TIP3    H141145   6.225   4.118  13.494 -0.0332  0.9920  1.1414
 5650TIP3    H241146   6.147   4.230  13.427 -0.2302 -0.6547 -1.5387
 5651TIP3   OH241147   0.526   4.008  12.435 -0.0364  0.0533 -0.4256
 5651TIP3    H141148   0.618   3.994  12.460  0.7153  3.4889 -0.7366
 5651TIP3    H241149   0.493   4.070  12.501 -2.0752 -0.8786 -0.5056
 5652TIP3   OH241150   6.678   4.097  12.186  0.6078 -0.3699  0.0385
 5652TIP3    H141151   6.724   4.174  12.219 -1.5518  0.9452  0.1903
 5652TIP3    H241152   6.714   4.024  12.236  0.1273  1.0515  2.6374
 5653TIP3   OH241153   6.795   4.390  11.398  0.8594  0.2167 -0.1836
 5653TIP3    H141154   6.868   4.328  11.401  0.3849 -0.4195 -1.2395
 5653TIP3    H241155   6.824   4.464  11.451  1.7742 -0.5533  0.4137
 5654TIP3   OH241156   7.610   2.121  12.944  0.0567  0.3823  0.1988
 5654TIP3    H141157   7.612   2.120  13.040 -1.7324 -0.4645  0.2743
 5654TIP3    H241158   7.525   2.082  12.922 -0.4777  2.4204 -1.6996
 5655TIP3   OH241159   6.279   2.830  12.722  0.4586 -0.6361 -0.3495
 5655TIP3    H141160   6.193   2.827  12.681  0.6490 -0.1534 -0.7911
 5655TIP3    H241161   6.270   2.776  12.800  0.2546 -2.0687 -1.3199
 5656TIP3   OH241162   1.678   1.067  12.297  0.5172  0.0956 -0.1040
 5656TIP3    H141163   1.689   1.024  12.383 -1.9874  0.9576  0.7520
 5656TIP3    H241164   1.701   1.158  12.313  1.0901  0.0533 -0.6572
 5657TIP3   OH241165   0.572   2.840  13.041  0.4684  0.9846  0.2744
 5657TIP3    H141166   0.544   2.860  12.952 -1.2858 -0.4613  0.4230
 5657TIP3    H241167   0.551   2.918  13.092 -1.7236  0.6488 -0.0042
 5658TIP3   OH241168   3.562   1.268  12.058 -0.2904 -0.6334  0.2256
 5658TIP3    H141169   3.587   1.178  12.039  0.0688 -0.3133 -0.8829
 5658TIP3    H241170   3.471   1.263  12.087 -0.0047 -1.4371  1.0165
 5659TIP3   OH241171   6.964   7.680  12.525 -0.5286 -0.1841 -0.2828
 5659TIP3    H141172   6.992   7.693  12.434  2.0815 -2.6512  0.0300
 5659TIP3    H241173   7.023   7.736  12.576 -1.0763  0.1468 -0.0073
 5660TIP3   OH241174   3.167   7.472  11.647  0.2305  0.6646  0.4630
 5660TIP3    H141175   3.085   7.450  11.603  0.4558 -1.7689  1.1026
 5660TIP3    H241176   3.140   7.506  11.733 -0.1218  1.4884  0.0299
 5661TIP3   OH241177   4.638   1.452  10.876  0.1646 -0.5395  0.0039
 5661TIP3    H141178   4.658   1.407  10.794  2.6760 -1.0355  0.7726
 5661TIP3    H241179   4.599   1.385  10.932 -0.6596 -0.4466 -0.4468
 5662TIP3   OH241180   4.518   0.371  12.742 -0.1202  0.2167  0.1446
 5662TIP3    H141181   4.575   0.363  12.666 -2.2137  3.2942 -1.9977
 5662TIP3    H241182   4.476   0.285  12.749  0.7374 -0.4082 -1.6484
 5663TIP3   OH241183   0.754   6.028  12.002 -0.0772 -0.6270  0.1937
 5663TIP3    H141184   0.770   5.963  12.070 -1.9553 -0.3192  1.0072
 5663TIP3    H241185   0.791   5.990  11.923  2.4252 -0.8729  1.3915
 5664TIP3   OH241186   5.597   4.898  11.320 -0.1870  0.3036 -0.1850
 5664TIP3    H141187   5.667   4.848  11.362 -0.4162  1.5483  1.8093
 5664TIP3    H241188   5.517   4.859  11.354 -0.4058  0.4325 -0.5569
 5665TIP3   OH241189   4.826   3.251  12.602  0.7059 -0.6469  0.4267
 5665TIP3    H141190   4.888   3.241  12.674  0.6270 -3.1067  0.2387
 5665TIP3    H241191   4.741   3.228  12.640  0.2526  0.4817  0.1285
 5666TIP3   OH241192   0.991   2.904  11.774  0.3063  0.2250 -0.0615
 5666TIP3    H141193   0.931   2.894  11.849  0.4344  0.5035  0.0782
 5666TIP3    H241194   1.047   2.826  11.777 -0.3600 -0.2830 -0.4765
 5667TIP3   OH241195   5.017   0.725  11.583 -0.5565 -0.1724  0.0385
 5667TIP3    H141196   4.967   0.747  11.504 -1.6182  1.8916  1.2053
 5667TIP3    H241197   5.055   0.808  11.611  0.6120 -1.0607  1.1652
 5668TIP3   OH241198   3.270   0.766  13.194  0.0708 -0.5916 -0.4409
 5668TIP3    H141199   3.221   0.684  13.188  1.9752 -1.7413 -1.1735
 5668TIP3    H241200   3.354   0.742  13.232  0.5998  1.0678 -0.4526
 5669TIP3   OH241201   1.756   5.818  10.837 -0.0915  0.0386  0.0815
 5669TIP3    H141202   1.801   5.734  10.837 -1.1506 -0.5769 -1.2546
 5669TIP3    H241203   1.682   5.806  10.896  1.0388  0.8244  1.7256
 5670TIP3   OH241204   2.785   1.482  10.597  0.8965 -0.7932 -0.2360
 5670TIP3    H141205   2.823   1.395  10.589  0.4058 -1.0518  0.1927
 5670TIP3    H241206   2.757   1.488  10.688  0.1076 -0.5298 -0.4865
 5671TIP3   OH241207   2.353   5.048  12.294 -0.7403  0.1387 -0.8218
 5671TIP3    H141208   2.418   5.016  12.231 -0.0064 -0.5536  0.2409
 5671TIP3    H241209   2.288   4.978  12.299 -0.2952 -0.2429 -0.1323
 5672TIP3   OH241210   1.696   1.495  12.810 -0.0918 -0.4632 -0.1203
 5672TIP3    H141211   1.689   1.405  12.842  2.3308 -1.0030 -0.9014
 5672TIP3    H241212   1.759   1.536  12.869 -0.7635  0.5663 -0.1105
 5673TIP3   OH241213   1.103   6.561  11.076  0.1108  0.2626  0.2453
 5673TIP3    H141214   1.180   6.618  11.071 -0.1233  0.9172  2.5691
 5673TIP3    H241215   1.030   6.618  11.055  0.1720 -0.2599 -1.5484
 5674TIP3   OH241216   2.740   3.507  12.400 -0.1324 -0.7253 -0.4130
 5674TIP3    H141217   2.777   3.587  12.438 -0.2602 -1.2073  0.7617
 5674TIP3    H241218   2.702   3.536  12.317  0.0092  0.3937 -0.1076
 5675TIP3   OH241219   4.621   7.602  12.606  0.1523  0.4869 -0.0435
 5675TIP3    H141220   4.560   7.576  12.675 -0.5278  0.5153 -0.6201
 5675TIP3    H241221   4.706   7.568  12.635 -0.3711 -0.7211  0.1341
 5676TIP3   OH241222   0.849   1.696  10.847  0.4283 -0.1464  0.2204
 5676TIP3    H141223   0.844   1.624  10.785 -0.5212 -0.1332  0.2613
 5676TIP3    H241224   0.940   1.697  10.876  0.4336 -1.3759  0.2893
 5677TIP3   OH241225   3.966   1.910  12.397  0.5724  0.3332  0.1539
 5677TIP3    H141226   3.901   1.846  12.367  0.2986  0.4005  0.6050
 5677TIP3    H241227   3.955   1.985  12.338  1.9761 -0.6325 -1.4170
 5678TIP3   OH241228   7.075   4.688  13.446 -0.1434 -0.3299 -0.3601
 5678TIP3    H141229   7.103   4.619  13.386 -0.5737 -2.6931  1.9638
 5678TIP3    H241230   6.994   4.655  13.484 -1.3098  2.2908 -0.3606
 5679TIP3   OH241231   5.124   7.655  12.674  0.7860  0.5781  0.0575
 5679TIP3    H141232   5.144   7.678  12.583  0.5158  1.2290  0.1560
 5679TIP3    H241233   5.194   7.594  12.699  0.2879 -0.4089 -0.9006
 5680TIP3   OH241234   3.235   6.183  13.246 -0.0073 -0.2685 -0.3122
 5680TIP3    H141235   3.152   6.222  13.218  0.3899  0.3799 -0.6119
 5680TIP3    H241236   3.299   6.252  13.232  0.5516 -0.6961  0.1240
 5681TIP3   OH241237   3.986   2.557  13.197  0.2124 -0.2570 -0.1145
 5681TIP3    H141238   3.933   2.481  13.222  0.6710 -0.6210 -0.2342
 5681TIP3    H241239   3.957   2.578  13.109 -0.5714  0.2901  0.2665
 5682TIP3   OH241240   5.363   6.129  12.355  0.9518 -0.4344 -0.0261
 5682TIP3    H141241   5.370   6.214  12.312 -1.6212 -1.0651 -2.0093
 5682TIP3    H241242   5.335   6.069  12.285 -2.4024 -1.7942  2.1790
 5683TIP3   OH241243   6.566   4.467  12.418 -0.0877  0.0057  0.3830
 5683TIP3    H141244   6.502   4.524  12.460 -1.1738 -0.2640 -0.8141
 5683TIP3    H241245   6.645   4.520  12.409 -0.1556  0.3825  1.7951
 5684TIP3   OH241246   1.819   6.148  11.472 -0.1816  0.0217  0.1237
 5684TIP3    H141247   1.813   6.059  11.438  2.1807 -1.3334  2.8007
 5684TIP3    H241248   1.888   6.189  11.421 -1.0118  0.2125 -0.8631
 5685TIP3   OH241249   5.961   6.507  10.546  0.2410  0.2873 -0.3402
 5685TIP3    H141250   6.001   6.584  10.507  0.6963  0.0194 -0.4063
 5685TIP3    H241251   5.867   6.523  10.539  0.3162  0.4581 -1.1245
 5686TIP3   OH241252   5.613   2.825  10.981  0.0529  1.0522  0.3745
 5686TIP3    H141253   5.617   2.730  10.980 -0.3011  1.0352  0.5066
 5686TIP3    H241254   5.652   2.852  10.898  0.0834  0.7919  0.3040
 5687TIP3   OH241255   0.206   5.344  10.921 -0.8517 -0.1242  0.1673
 5687TIP3    H141256   0.180   5.393  10.999  0.8697 -0.2956  0.8835
 5687TIP3    H241257   0.256   5.270  10.954 -2.7605 -2.0438 -0.9393
 5688TIP3   OH241258   1.875   6.781  13.147  0.0773 -0.5608 -0.0353
 5688TIP3    H141259   1.933   6.767  13.223 -0.0862  0.3811  0.2743
 5688TIP3    H241260   1.913   6.726  13.078 -0.0852 -1.8754  0.8689
 5689TIP3   OH241261   7.604   7.409  12.273 -0.5065  0.2729 -0.4038
 5689TIP3    H141262   7.666   7.364  12.216  0.1472  2.0573 -1.1984
 5689TIP3    H241263   7.630   7.383  12.361 -0.5412 -1.3139 -0.8272
 5690TIP3   OH241264   1.107   3.952  11.163 -0.1520 -0.3592 -0.7835
 5690TIP3    H141265   1.119   3.994  11.077  0.3969 -0.6142 -0.8361
 5690TIP3    H241266   1.052   3.876  11.145  1.6971 -1.6652 -1.3178
 5691TIP3   OH241267   2.126   7.488  10.697  0.3250 -0.1122 -0.2226
 5691TIP3    H141268   2.093   7.572  10.727  1.5574 -0.5500  2.7236
 5691TIP3    H241269   2.188   7.509  10.627 -1.4018  1.1295 -1.4649
 5692TIP3   OH241270   6.772   2.091  12.826 -0.2167 -0.5762 -0.4528
 5692TIP3    H141271   6.688   2.108  12.870  0.0403 -0.2619 -0.0840
 5692TIP3    H241272   6.748   2.080  12.734 -0.6002  0.0151 -0.4278
 5693TIP3   OH241273   7.621   4.018  11.606  0.1900 -0.5483  0.0945
 5693TIP3    H141274   7.588   4.097  11.565  0.6559 -0.5238 -0.2472
 5693TIP3    H241275   7.568   3.947  11.569  0.9281 -0.5803 -0.9375
 5694TIP3   OH241276   6.993   5.391  11.763  0.3108  0.3163  0.4628
 5694TIP3    H141277   7.034   5.415  11.680 -1.0703  1.3755  0.0434
 5694TIP3    H241278   7.042   5.440  11.829  1.5449 -0.6869  0.3249
 5695TIP3   OH241279   1.865   0.301  11.661  0.3648  0.0197 -0.1049
 5695TIP3    H141280   1.817   0.219  11.653  0.5365 -0.0905 -0.0012
 5695TIP3    H241281   1.952   0.282  11.625  1.1343 -0.4653  1.8976
 5696TIP3   OH241282   4.914   2.964  11.484 -0.3783 -0.7474  0.6842
 5696TIP3    H141283   4.913   3.031  11.553 -1.6253 -0.9800  0.9179
 5696TIP3    H241284   4.839   2.909  11.504 -1.2747 -0.3359 -1.3270
 5697TIP3   OH241285   6.319   4.879  12.732  0.1720 -0.3282 -0.2307
 5697TIP3    H141286   6.275   4.957  12.699 -2.3639 -1.0311  1.2489
 5697TIP3    H241287   6.333   4.897  12.825  0.2799 -1.3107 -0.0411
 5698TIP3   OH241288   5.198   3.887  11.219  0.5610 -0.0918  0.5067
 5698TIP3    H141289   5.195   3.812  11.277  0.8765 -0.2328  0.3452
 5698TIP3    H241290   5.246   3.856  11.142 -1.1010 -0.3520 -0.4781
 5699TIP3   OH241291   7.167   4.226  12.915  0.2103 -0.3389 -0.5016
 5699TIP3    H141292   7.089   4.259  12.869  0.3991  1.7841  0.5755
 5699TIP3    H241293   7.135   4.204  13.002  0.2823 -2.3043 -0.9304
 5700TIP3   OH241294   6.638   6.017  11.606 -0.5997 -0.1775 -0.1332
 5700TIP3    H141295   6.590   6.084  11.655 -1.3834  0.5299 -1.7978
 5700TIP3    H241296   6.710   5.992  11.664 -1.1014  1.1015  1.0913
 5701TIP3   OH241297   4.284   4.879  12.551 -0.0034  0.2487 -0.2630
 5701TIP3    H141298   4.241   4.957  12.587  1.3137  1.1753 -0.6411
 5701TIP3    H241299   4.272   4.812  12.618 -0.1113  1.1178  0.6082
 5702TIP3   OH241300   7.327   3.316  11.717 -0.4906  0.1064  0.1218
 5702TIP3    H141301   7.322   3.277  11.805  0.6892 -1.0963 -0.3148
 5702TIP3    H241302   7.244   3.291  11.676 -0.7859  0.1476  0.6802
 5703TIP3   OH241303   0.048   6.283  13.444 -0.1797  0.2752 -0.0777
 5703TIP3    H141304   0.019   6.297  13.354 -0.3114 -1.1429 -0.2778
 5703TIP3    H241305  -0.001   6.206  13.473 -1.9365  2.0133  2.0194
 5704TIP3   OH241306   2.034   4.859  11.594  0.4765 -0.1184 -0.4351
 5704TIP3    H141307   2.060   4.909  11.671 -1.5895  1.8602 -0.9000
 5704TIP3    H241308   1.938   4.854  11.600  0.3939 -1.2964 -2.0619
 5705TIP3   OH241309   4.298   0.458  11.338  0.0608  0.2750  0.3818
 5705TIP3    H141310   4.261   0.397  11.275 -1.6381  1.5749  0.0497
 5705TIP3    H241311   4.337   0.527  11.284 -0.7091  0.9944  0.7179
 5706TIP3   OH241312   1.348   2.283  10.691 -0.2414 -0.1464 -0.8106
 5706TIP3    H141313   1.408   2.258  10.762 -0.4745 -0.0850 -0.5919
 5706TIP3    H241314   1.315   2.199  10.657 -1.8870 -0.1506  0.6583
 5707TIP3   OH241315   4.873   3.936  12.419 -0.0694  0.7526 -0.1108
 5707TIP3    H141316   4.929   3.858  12.420 -0.1121  0.6735  2.6014
 5707TIP3    H241317   4.917   3.998  12.478 -0.9715  2.1228 -0.8162
 5708TIP3   OH241318   1.812   3.241  12.151 -0.0960  0.4602 -1.0983
 5708TIP3    H141319   1.726   3.199  12.164 -0.4140  1.5208  0.4964
 5708TIP3    H241320   1.840   3.211  12.065 -2.2822  0.4354 -1.8707
 5709TIP3   OH241321   1.056   1.344  11.228 -0.2469 -0.2883 -0.1918
 5709TIP3    H141322   1.019   1.352  11.140 -1.5463  1.9675  0.4751
 5709TIP3    H241323   0.986   1.374  11.286  1.8206  2.0072  1.3270
 5710TIP3   OH241324   6.836   4.032  12.429 -0.3756 -0.3584  0.4485
 5710TIP3    H141325   6.786   3.955  12.402 -0.7236 -0.6355  1.8000
 5710TIP3    H241326   6.921   4.021  12.388 -0.5430 -1.2795  0.3294
 5711TIP3   OH241327   4.350   4.193  11.711 -0.7058 -0.2897  0.0607
 5711TIP3    H141328   4.297   4.273  11.717  1.5257  1.2893  0.0151
 5711TIP3    H241329   4.378   4.190  11.619 -0.7170 -1.0946  0.0784
 5712TIP3   OH241330   0.068   4.356  11.734 -0.1423  0.6419 -0.5197
 5712TIP3    H141331   0.050   4.311  11.816  0.8846  0.8985 -0.1478
 5712TIP3    H241332   0.151   4.401  11.748 -0.9957  2.4820 -0.9470
 5713TIP3   OH241333   0.703   6.409  13.065  0.3109 -0.0839  0.8785
 5713TIP3    H141334   0.680   6.421  13.157 -1.2655 -0.6180  0.6045
 5713TIP3    H241335   0.693   6.495  13.026 -0.9996 -0.2303  0.8452
 5714TIP3   OH241336   4.829   2.980  11.132  0.1572  0.0022  0.4136
 5714TIP3    H141337   4.769   2.989  11.205  0.6209  1.7712  0.6198
 5714TIP3    H241338   4.905   2.934  11.169  1.1060  2.3229  1.5573
 5715TIP3   OH241339   3.661   2.150  13.362 -0.1814 -0.6495 -0.3086
 5715TIP3    H141340   3.605   2.206  13.415  1.8033 -0.1807  1.3994
 5715TIP3    H241341   3.601   2.108  13.301 -2.1445  1.0559  0.3278
 5716TIP3   OH241342   0.173   2.001  12.779 -0.0315 -0.1644  0.1883
 5716TIP3    H141343   0.138   1.952  12.704 -0.8401  1.6952 -0.7258
 5716TIP3    H241344   0.096   2.040  12.820  0.5175 -0.2689  1.3539
 5717TIP3   OH241345   5.175   7.090  12.030  0.3550  0.0197  0.5110
 5717TIP3    H141346   5.150   7.078  11.939  0.3188 -0.0900  0.5340
 5717TIP3    H241347   5.207   7.179  12.036  0.3334  0.0345  0.3964
 5718TIP3   OH241348   3.087   1.521  11.656 -0.0028 -0.1698  0.1655
 5718TIP3    H141349   3.178   1.492  11.651 -0.0749 -0.5158  0.7417
 5718TIP3    H241350   3.055   1.486  11.739 -1.3133 -1.9576 -1.0079
 5719TIP3   OH241351   0.669   4.883  11.389  0.3724 -0.1708  0.1639
 5719TIP3    H141352   0.735   4.855  11.452  0.8263  1.1388  0.3084
 5719TIP3    H241353   0.670   4.816  11.321  0.4120 -1.2096  1.1612
 5720TIP3   OH241354   6.764   2.655  11.016 -0.4373 -0.0721  0.0439
 5720TIP3    H141355   6.849   2.664  10.973 -0.7124 -0.1930 -0.5330
 5720TIP3    H241356   6.701   2.690  10.953 -0.7564  0.6308  0.7243
 5721TIP3   OH241357   0.386   1.141  11.268 -1.0069  0.3437  0.7035
 5721TIP3    H141358   0.410   1.048  11.260 -1.0727  0.3820  0.0146
 5721TIP3    H241359   0.341   1.161  11.187  1.2961  1.6643 -0.3547
 5722TIP3   OH241360   7.381   4.147  12.114  1.0471  0.5956  0.1703
 5722TIP3    H141361   7.402   4.213  12.048  0.3588 -0.3577 -1.0475
 5722TIP3    H241362   7.463   4.137  12.164  1.2898  2.0318  0.1181
 5723TIP3   OH241363   4.715   0.478  13.176 -0.0400 -0.1456  0.2493
 5723TIP3    H141364   4.810   0.471  13.176  0.0192  0.4135 -0.9279
 5723TIP3    H241365   4.684   0.390  13.154  0.2205 -0.2395  0.2641
 5724TIP3   OH241366   6.805   6.982  10.727  0.0180 -0.5216 -0.0377
 5724TIP3    H141367   6.781   7.066  10.766 -1.4451 -1.4160  1.0720
 5724TIP3    H241368   6.890   6.961  10.766  0.8748  0.8718 -1.0706
 5725TIP3   OH241369   6.975   0.738  11.329  0.9810 -0.1058 -0.3621
 5725TIP3    H141370   6.966   0.675  11.257  2.3667 -0.8329  0.0791
 5725TIP3    H241371   6.909   0.805  11.310 -2.1708 -2.7412  0.3134
 5726TIP3   OH241372   5.785   1.934  11.278  0.9787  0.0175  0.5169
 5726TIP3    H141373   5.779   2.022  11.242 -1.7306  0.4189  1.7262
 5726TIP3    H241374   5.844   1.942  11.352  0.5207  0.9078  0.7994
 5727TIP3   OH241375   3.023   3.690  11.340 -0.1649 -0.0631  0.2376
 5727TIP3    H141376   2.928   3.685  11.331  0.0678 -1.3984 -3.0830
 5727TIP3    H241377   3.052   3.599  11.338  1.2018  0.3449  0.9072
 5728TIP3   OH241378   1.675   6.684  11.946  0.1482  0.3285  0.4179
 5728TIP3    H141379   1.749   6.724  11.991  0.3140 -0.4385  0.8597
 5728TIP3    H241380   1.715   6.617  11.890 -0.1301  0.6645 -0.1959
 5729TIP3   OH241381   6.156   5.506  12.351 -0.0129  0.3497 -0.7354
 5729TIP3    H141382   6.198   5.583  12.314  1.9506 -0.5070 -0.4168
 5729TIP3    H241383   6.157   5.521  12.446 -2.5183  1.2925 -0.7699
 5730TIP3   OH241384   4.788   1.049  11.448  0.1911  0.0555  0.0452
 5730TIP3    H141385   4.704   1.009  11.472 -0.5870  1.7531  0.3282
 5730TIP3    H241386   4.844   1.035  11.525 -0.2838  0.0804  0.3992
 5731TIP3   OH241387   1.443   4.554  12.369  0.2667  0.2496  0.2433
 5731TIP3    H141388   1.514   4.589  12.422  0.1536  0.0680  0.5134
 5731TIP3    H241389   1.369   4.546  12.429 -0.2957  1.3925 -0.2416
 5732TIP3   OH241390   5.570   6.179  12.786 -0.1244 -0.1490  0.2626
 5732TIP3    H141391   5.518   6.134  12.720  0.3369 -0.1001 -0.1449
 5732TIP3    H241392   5.526   6.161  12.869 -0.6823 -0.2497 -0.0559
 5733TIP3   OH241393   3.819   4.819  10.907 -0.4674  0.0755  0.3748
 5733TIP3    H141394   3.870   4.896  10.933 -0.2459 -0.1112  0.5039
 5733TIP3    H241395   3.729   4.840  10.934 -0.2714 -0.0492  1.1724
 5734TIP3   OH241396   2.058   7.029  11.440 -0.1277  0.1723 -0.4428
 5734TIP3    H141397   2.148   7.061  11.450 -0.2562  1.0265 -1.7741
 5734TIP3    H241398   2.063   6.968  11.366 -0.3516 -1.0531  0.5278
 5735TIP3   OH241399   5.794   5.603  12.050 -0.5361 -0.8981 -0.0348
 5735TIP3    H141400   5.730   5.607  11.978 -0.7469 -0.0531  0.1866
 5735TIP3    H241401   5.876   5.578  12.008 -0.6209 -0.2386 -0.6050
 5736TIP3   OH241402   6.478   4.050  11.097 -0.3980  0.8673  0.4783
 5736TIP3    H141403   6.435   4.035  11.181 -1.4425  0.5739 -0.0975
 5736TIP3    H241404   6.474   3.965  11.053 -1.6756  1.5078 -0.6817
 5737TIP3   OH241405   6.166   4.520  12.062  0.2198 -0.2808  0.4962
 5737TIP3    H141406   6.235   4.494  12.122  1.3733 -2.0240 -1.4561
 5737TIP3    H241407   6.086   4.483  12.100  0.5882  0.3163  1.9059
 5738TIP3   OH241408   5.939   7.052  12.120  0.7955 -0.6552 -0.2627
 5738TIP3    H141409   5.856   7.032  12.164  1.0635 -0.6504  0.2567
 5738TIP3    H241410   6.001   7.065  12.192  1.4590 -1.5478 -0.6677
 5739TIP3   OH241411   3.581   0.769  10.684 -0.8984  0.0837 -0.0140
 5739TIP3    H141412   3.672   0.792  10.666 -0.8382 -0.0132  0.1554
 5739TIP3    H241413   3.558   0.708  10.614 -0.7774 -0.0232  0.0370
 5740TIP3   OH241414   3.489   0.657  13.469  0.3486 -0.2496 -0.3311
 5740TIP3    H141415   3.470   0.622  13.382  1.1007  0.4112 -0.7744
 5740TIP3    H241416   3.525   0.583  13.518 -0.3580 -0.6986 -0.4761
 5741TIP3   OH241417   6.621   4.160  10.881  0.0301  0.6742  0.6026
 5741TIP3    H141418   6.559   4.202  10.821 -0.2068  0.0541  0.4016
 5741TIP3    H241419   6.575   4.159  10.965  0.4096  1.6508  0.8317
 5742TIP3   OH241420   2.532   4.730  12.579 -0.2882  0.2106 -1.0437
 5742TIP3    H141421   2.516   4.678  12.658  0.8275  0.3523 -0.7083
 5742TIP3    H241422   2.567   4.667  12.516  2.3837  0.7413 -0.1937
 5743TIP3   OH241423   1.155   5.356  18.900 -0.5578  0.1278 -0.3083
 5743TIP3    H141424   1.061   5.356  18.915 -0.4709 -1.2139  0.3355
 5743TIP3    H241425   1.167   5.304  18.821 -0.2784 -0.6067  0.2107
 5744TIP3   OH241426   2.899   0.194  12.884 -0.1179  0.0305 -0.3157
 5744TIP3    H141427   2.810   0.176  12.915 -0.8000 -0.1740 -2.2684
 5744TIP3    H241428   2.942   0.108  12.886  0.1850  0.1920  0.9887
 5745TIP3   OH241429   3.538   4.930  12.798 -0.0562 -0.2644 -0.1406
 5745TIP3    H141430   3.481   4.859  12.768  0.4045 -0.5434 -0.3481
 5745TIP3    H241431   3.485   4.975  12.865 -0.9726  0.1856 -1.1363
 5746TIP3   OH241432   2.703   5.056  11.897 -0.1374  0.0487 -0.3015
 5746TIP3    H141433   2.700   5.113  11.974 -0.9430 -0.4103  0.0190
 5746TIP3    H241434   2.796   5.050  11.876  0.2165 -0.7693  1.3588
 5747TIP3   OH241435   7.228   2.689  12.314  0.0567  0.1876  0.2493
 5747TIP3    H141436   7.227   2.785  12.315  2.4184  0.3530  3.4676
 5747TIP3    H241437   7.147   2.664  12.358  0.1523  0.8029  0.7934
 5748TIP3   OH241438   7.469   4.155  11.425  0.0887  0.3097  0.3228
 5748TIP3    H141439   7.496   4.221  11.360 -0.8326 -1.2372 -1.7401
 5748TIP3    H241440   7.411   4.096  11.377  0.7329 -1.9325  2.1043
 5749TIP3   OH241441   2.268   5.852  12.257  0.3171  0.0596 -0.4389
 5749TIP3    H141442   2.363   5.857  12.255  0.6209 -3.3263 -0.0330
 5749TIP3    H241443   2.245   5.861  12.349  0.1312  1.3128 -0.5787
 5750TIP3   OH241444   2.055   2.369  11.116 -0.2658 -0.4498  1.0224
 5750TIP3    H141445   2.082   2.399  11.202 -0.9912  0.5580  0.9280
 5750TIP3    H241446   2.069   2.445  11.059  0.9444 -1.3462  0.0803
 5751TIP3   OH241447   6.352   7.108  10.938 -0.3014 -0.4469  0.4025
 5751TIP3    H141448   6.309   7.130  11.021  1.2898  1.5813  0.7740
 5751TIP3    H241449   6.445   7.106  10.959  0.1291 -0.0597 -1.2902
 5752TIP3   OH241450   0.668   2.465  11.377  0.2058 -0.3212 -0.0559
 5752TIP3    H141451   0.649   2.541  11.322 -1.6880 -0.4657  0.3130
 5752TIP3    H241452   0.678   2.393  11.314 -1.2648 -0.3575 -0.2899
 5753TIP3   OH241453   1.815   3.340  12.539  0.1064  0.6800  0.0406
 5753TIP3    H141454   1.884   3.278  12.519 -0.5763 -0.0349 -0.1695
 5753TIP3    H241455   1.858   3.425  12.540  1.2551  0.1209  1.3275
 5754TIP3   OH241456   5.676   2.511  10.908  0.1450  0.0839  0.0729
 5754TIP3    H141457   5.659   2.488  10.817 -2.2014  0.4534  0.3683
 5754TIP3    H241458   5.594   2.494  10.953  0.4623  2.2914  1.6576
 5755TIP3   OH241459   2.714   1.543  11.957 -0.1356  0.1935 -0.4655
 5755TIP3    H141460   2.731   1.636  11.939  0.7656  0.1791  0.2921
 5755TIP3    H241461   2.631   1.543  12.006  0.8451  0.7807  1.2751
 5756TIP3   OH241462   5.498   4.769  11.712  0.3794  0.5616 -0.4768
 5756TIP3    H141463   5.560   4.709  11.672  1.2471  0.7051  0.5786
 5756TIP3    H241464   5.438   4.713  11.761  0.0491  0.4521 -1.0103
 5757TIP3   OH241465   3.217   1.053  11.910  0.6111 -0.2146 -0.4791
 5757TIP3    H141466   3.300   1.009  11.890  0.9752 -0.9214  2.2327
 5757TIP3    H241467   3.239   1.120  11.974 -0.6362  1.0645 -1.3139
 5758TIP3   OH241468   1.902   1.177  11.827  0.1627 -0.4554  0.1467
 5758TIP3    H141469   1.827   1.213  11.779  0.1736  1.4343  1.4680
 5758TIP3    H241470   1.973   1.238  11.809  0.9206 -1.2815  0.3167
 5759TIP3   OH241471   1.203   4.305  12.297  0.0637  0.5453 -0.1252
 5759TIP3    H141472   1.165   4.327  12.382  1.7293  1.3171  0.4523
 5759TIP3    H241473   1.182   4.212  12.285 -2.1982  0.9912  0.0157
 5760TIP3   OH241474   2.016   5.736  11.758 -0.4380  0.6350  0.6413
 5760TIP3    H141475   2.039   5.648  11.728  0.3473  1.1474 -0.3052
 5760TIP3    H241476   2.093   5.767  11.805  0.2247  1.6983 -1.0580
 5761TIP3   OH241477   2.383   3.311  11.392  0.4896 -0.0465  0.2179
 5761TIP3    H141478   2.377   3.406  11.379  0.1539 -0.0389  0.4214
 5761TIP3    H241479   2.352   3.274  11.309  2.2291  0.0217 -0.5112
 5762TIP3   OH241480   1.912   0.566  11.677  1.0720 -0.3658 -0.4045
 5762TIP3    H141481   1.965   0.630  11.724  1.3775  0.4109 -1.7305
 5762TIP3    H241482   1.956   0.483  11.691  0.2526 -0.4604  1.9766
 5763TIP3   OH241483   0.794   4.273  12.585 -0.0322  0.2222  0.4963
 5763TIP3    H141484   0.755   4.194  12.547 -0.5631  0.6794  0.0855
 5763TIP3    H241485   0.777   4.265  12.679  0.7019 -0.5837  0.5774
 5764TIP3   OH241486   0.447   0.357  11.590  0.8837  0.5248 -0.4159
 5764TIP3    H141487   0.459   0.318  11.676  1.2997 -1.0684 -1.1430
 5764TIP3    H241488   0.516   0.423  11.583  1.8600 -0.4245 -0.0908
 5765TIP3   OH241489   0.820   3.249  10.699  0.3363 -0.8723  0.1228
 5765TIP3    H141490   0.830   3.288  10.786 -1.9064  1.5726 -0.5451
 5765TIP3    H241491   0.854   3.316  10.640 -1.0713 -1.0724 -0.9690
 5766TIP3   OH241492   0.670   3.103  10.517 -0.3602 -0.3151  0.6393
 5766TIP3    H141493   0.747   3.156  10.541  1.0899 -2.0445  0.0698
 5766TIP3    H241494   0.597   3.147  10.559  1.1125  0.7059  2.3025
 5767TIP3   OH241495   0.868   1.587  12.678  0.3054  0.6158  0.7950
 5767TIP3    H141496   0.826   1.503  12.695  0.5482  0.3766  0.2270
 5767TIP3    H241497   0.828   1.647  12.741 -0.6608  0.3273  0.4638
 5768TIP3   OH241498   6.758   4.338  11.966 -0.7788 -0.2459  0.4861
 5768TIP3    H141499   6.679   4.287  11.985 -0.1728 -1.1229  0.7050
 5768TIP3    H241500   6.746   4.370  11.877 -1.6650  0.1623  0.7476
 5769TIP3   OH241501   3.148   5.795  10.285  0.0643 -0.0221  0.3898
 5769TIP3    H141502   3.237   5.770  10.259 -0.3261 -0.9334 -0.1363
 5769TIP3    H241503   3.134   5.751  10.369 -0.6773 -1.7993 -0.6087
 5770TIP3   OH241504   2.467   5.274  12.407  0.1799  0.2093 -0.2040
 5770TIP3    H141505   2.430   5.343  12.352  0.0182 -0.0713 -0.4496
 5770TIP3    H241506   2.421   5.195  12.380  0.9385 -0.1450 -0.5077
 5771TIP3   OH241507   3.604   4.673  10.744 -0.2588  0.1312  0.5233
 5771TIP3    H141508   3.573   4.756  10.781 -0.3032 -0.2691  1.3979
 5771TIP3    H241509   3.586   4.681  10.651  1.6177  1.9648  0.2309
 5772TIP3   OH241510   7.674   0.011  10.627 -0.1110 -0.1209 -0.0943
 5772TIP3    H141511   7.708   0.082  10.572  1.3951 -1.5796 -1.1278
 5772TIP3    H241512   7.718   0.022  10.711  2.5152 -1.5488 -1.1857
 5773TIP3   OH241513   1.192   1.547  12.431 -0.0421 -0.1303 -0.1456
 5773TIP3    H141514   1.100   1.529  12.450  0.4245 -0.3571  2.1877
 5773TIP3    H241515   1.235   1.462  12.433  0.5380  0.1627  0.9468
 5774TIP3   OH241516   7.477   2.462  11.285  0.4344 -0.3817 -0.1067
 5774TIP3    H141517   7.470   2.544  11.237 -0.7249 -0.4883 -0.1629
 5774TIP3    H241518   7.427   2.399  11.232 -0.9938 -0.4781  1.2577
 5775TIP3   OH241519   4.931   5.611  12.170  0.1897  0.0309  0.1425
 5775TIP3    H141520   4.860   5.608  12.234  0.6331 -1.4455  0.6017
 5775TIP3    H241521   4.894   5.658  12.095 -1.0265 -0.0765  0.6566
 5776TIP3   OH241522   3.757   0.480  11.812  0.3586 -0.1503 -0.7102
 5776TIP3    H141523   3.774   0.397  11.857  1.5420 -0.1507 -1.1182
 5776TIP3    H241524   3.796   0.546  11.869 -1.1129  0.2045 -0.0888
 5777TIP3   OH241525   5.339   2.300  10.847  0.3419 -0.1586 -0.1437
 5777TIP3    H141526   5.243   2.306  10.847  0.3265 -0.3659 -0.8727
 5777TIP3    H241527   5.362   2.299  10.940 -0.3499  0.0756  0.0392
 5778TIP3   OH241528   6.496   4.744  12.129  0.2354  0.1715  0.1993
 5778TIP3    H141529   6.580   4.783  12.153 -1.2538  2.3909  2.2028
 5778TIP3    H241530   6.431   4.810  12.152 -2.2417 -2.1789  0.4968
 5779TIP3   OH241531   7.279   4.037  12.338  0.7769  0.0654  0.4428
 5779TIP3    H141532   7.275   4.093  12.416  0.1178  0.2669  0.2695
 5779TIP3    H241533   7.307   4.096  12.268 -0.3592  0.2955  0.1646
 5780TIP3   OH241534   4.849   1.007  12.905  0.1814 -0.6368 -0.4354
 5780TIP3    H141535   4.888   1.083  12.862  0.6937 -0.4228  0.3911
 5780TIP3    H241536   4.899   0.932  12.870 -0.9978 -0.7344 -2.0357
 5781TIP3   OH241537   0.247   0.408  10.530  0.1703 -0.0093 -0.9637
 5781TIP3    H141538   0.279   0.324  10.564 -1.4275 -0.3212 -0.1301
 5781TIP3    H241539   0.323   0.466  10.536  1.7293 -1.7134 -2.8862
 5782TIP3   OH241540   5.020   4.514  11.536 -0.6504 -0.9519 -0.3171
 5782TIP3    H141541   5.060   4.588  11.582 -1.5575 -0.2120 -0.6870
 5782TIP3    H241542   5.094   4.457  11.513  0.4291  1.1098 -2.3469
 5783TIP3   OH241543   2.311   6.767  12.990  0.3809  0.3610 -0.0919
 5783TIP3    H141544   2.293   6.760  12.896  0.3623  1.2279 -0.1582
 5783TIP3    H241545   2.382   6.704  13.005 -2.8354 -3.6410  0.2735
 5784TIP3   OH241546   5.397   7.286  10.843 -0.3621  0.6901  0.1946
 5784TIP3    H141547   5.446   7.367  10.828 -0.4213  1.0471  1.7418
 5784TIP3    H241548   5.306   7.314  10.855 -0.5365  0.2934 -0.1856
 5785TIP3   OH241549   7.070   2.479  11.935 -0.3487 -0.3512  0.1684
 5785TIP3    H141550   7.062   2.569  11.904 -0.0115 -0.0906  0.8189
 5785TIP3    H241551   6.980   2.446  11.937 -0.6223  0.4082  1.1799
 5786TIP3   OH241552   5.700   5.735  11.206  0.0891 -0.0495 -0.1153
 5786TIP3    H141553   5.608   5.716  11.222 -0.4985  1.8752 -0.9514
 5786TIP3    H241554   5.743   5.716  11.290 -1.0585 -0.9691  0.2836
 5787TIP3   OH241555   7.400   3.423  13.057 -0.3111 -0.7509  0.0544
 5787TIP3    H141556   7.447   3.505  13.042  0.6675 -1.0301  1.3606
 5787TIP3    H241557   7.356   3.405  12.975 -0.1535  0.8360 -0.4130
 5788TIP3   OH241558   0.860   6.252  10.674 -0.1336 -0.4670 -0.0113
 5788TIP3    H141559   0.910   6.178  10.708  0.4455  0.0084  0.1898
 5788TIP3    H241560   0.833   6.301  10.752  0.0193 -0.1293 -0.1655
 5789TIP3   OH241561   0.684   5.210  11.311  0.1442  0.1834 -0.1726
 5789TIP3    H141562   0.695   5.298  11.347 -0.5745  0.8675 -1.5699
 5789TIP3    H241563   0.690   5.221  11.217  2.6157 -1.6686 -0.3182
 5790TIP3   OH241564   6.632   4.278  11.199 -0.0928  0.3716  0.0586
 5790TIP3    H141565   6.647   4.292  11.292  0.1296 -2.5154  0.5368
 5790TIP3    H241566   6.700   4.216  11.172 -0.3811  0.8375 -1.9531
 5791TIP3   OH241567   6.540   6.112  11.009 -0.0798 -0.5100  0.9672
 5791TIP3    H141568   6.446   6.120  10.994 -0.0253  0.1695  0.9397
 5791TIP3    H241569   6.560   6.020  10.991 -0.5586 -0.4275 -0.0989
 5792TIP3   OH241570   2.783   6.463  12.256 -0.1452 -0.9137 -0.1747
 5792TIP3    H141571   2.810   6.482  12.167  0.0600 -0.7555 -0.0795
 5792TIP3    H241572   2.849   6.506  12.311  0.9466 -2.7351  0.0544
 5793TIP3   OH241573   7.515   4.996  12.305  0.2442 -0.0042  0.0624
 5793TIP3    H141574   7.445   4.963  12.361  0.4262  0.3365  0.5005
 5793TIP3    H241575   7.519   4.934  12.232 -1.6151  0.8634 -0.8513
 5794TIP3   OH241576   3.762   1.753  11.178 -0.4858  0.4187  0.2773
 5794TIP3    H141577   3.766   1.736  11.084 -0.8175  0.4018  0.2656
 5794TIP3    H241578   3.726   1.672  11.215  0.5177  0.0657  0.5229
 5795TIP3   OH241579   5.205   6.713  12.322 -0.0682  0.3212  0.0334
 5795TIP3    H141580   5.195   6.619  12.309  0.6550  0.3048 -0.4806
 5795TIP3    H241581   5.240   6.745  12.238 -1.4562  1.2402 -0.2195
 5796TIP3   OH241582   0.230   2.181  13.019  0.6006  0.0716 -0.1094
 5796TIP3    H141583   0.258   2.161  12.930 -0.3905  0.4745 -0.5249
 5796TIP3    H241584   0.245   2.100  13.067 -1.0322 -0.9508 -1.2024
 5797TIP3   OH241585   6.994   7.498  12.023 -0.4084 -0.1388 -0.9816
 5797TIP3    H141586   6.978   7.416  12.070 -1.8787  0.5470 -0.2100
 5797TIP3    H241587   6.962   7.566  12.083 -0.6891  0.8946 -2.2704
 5798TIP3   OH241588   1.482   3.938  12.338 -0.1127 -0.2382  0.4230
 5798TIP3    H141589   1.557   3.938  12.278 -0.7137 -1.1408 -0.3712
 5798TIP3    H241590   1.419   3.997  12.296  0.1567  0.5564  1.1134
 5799TIP3   OH241591   1.178   1.248  12.186 -0.0263  0.4804 -0.1350
 5799TIP3    H141592   1.257   1.224  12.235  0.7496  2.7300 -0.1571
 5799TIP3    H241593   1.160   1.173  12.130  0.2262 -1.3729  2.0983
 5800TIP3   OH241594   1.210   0.236  12.158 -0.0237 -0.2008 -0.3774
 5800TIP3    H141595   1.226   0.212  12.067 -2.0194  1.6317 -1.2948
 5800TIP3    H241596   1.275   0.304  12.177 -0.2550  0.1386 -0.7871
 5801TIP3   OH241597   6.848   3.110  10.990 -0.3389 -0.1058  0.4614
 5801TIP3    H141598   6.857   3.020  10.957  2.2798 -0.5394  2.1101
 5801TIP3    H241599   6.808   3.099  11.076 -1.0589  0.4339  0.2003
 5802TIP3   OH241600   1.893   3.978  12.719 -0.4520 -0.0597 -0.0400
 5802TIP3    H141601   1.848   3.900  12.752 -0.7514 -0.1298 -0.6159
 5802TIP3    H241602   1.975   3.981  12.768 -0.6543 -0.4679  0.3254
 5803TIP3   OH241603   3.027   7.639  12.935 -0.0235 -0.3353 -0.2201
 5803TIP3    H141604   2.962   7.568  12.938 -0.4571  0.0911  0.7842
 5803TIP3    H241605   3.038   7.665  13.026  0.7959  0.2992 -0.4926
 5804TIP3   OH241606   2.132   3.802  12.425 -0.5224 -0.0334  0.0974
 5804TIP3    H141607   2.074   3.751  12.482 -1.5860  0.8124 -0.1907
 5804TIP3    H241608   2.214   3.808  12.474 -0.4933 -1.6883  0.2912
 5805TIP3   OH241609   2.301   6.168  11.292 -0.3595  0.1698 -0.1976
 5805TIP3    H141610   2.284   6.123  11.375 -1.8652 -1.0819 -1.1358
 5805TIP3    H241611   2.390   6.142  11.268 -0.0146  0.3215  0.8767
 5806TIP3   OH241612   3.889   5.421  12.403 -0.0816 -0.1144 -0.1135
 5806TIP3    H141613   3.969   5.397  12.357  1.4223  0.8183  1.8444
 5806TIP3    H241614   3.918   5.476  12.476 -2.3837 -0.6955  1.3870
 5807TIP3   OH241615   2.290   2.858  11.755 -0.2592 -0.4397 -0.2503
 5807TIP3    H141616   2.339   2.903  11.686  0.5547 -0.3974  0.3302
 5807TIP3    H241617   2.211   2.911  11.768 -0.2317 -0.2404 -0.8801
 5808TIP3   OH241618   6.181   4.614  11.471  0.2668 -0.6213  0.1281
 5808TIP3    H141619   6.193   4.524  11.504  1.8356 -0.3112  0.4913
 5808TIP3    H241620   6.210   4.609  11.380  1.5990 -0.2349  0.5100
 5809TIP3   OH241621   6.055   4.517  10.595 -0.1972 -0.4146  0.4541
 5809TIP3    H141622   6.094   4.550  10.514 -0.3001 -1.9355 -0.2497
 5809TIP3    H241623   6.127   4.516  10.658  0.3433 -0.9227 -0.1509
 5810TIP3   OH241624   3.763   4.657  12.384 -0.8574 -0.3819  0.5828
 5810TIP3    H141625   3.808   4.705  12.454  0.3610 -0.0151 -0.4073
 5810TIP3    H241626   3.793   4.567  12.393 -0.3838 -0.2568  0.3042
 5811TIP3   OH241627   1.240   1.084  12.431  0.1198  0.4194 -0.9035
 5811TIP3    H141628   1.233   0.993  12.461  1.0333  0.0967 -1.6103
 5811TIP3    H241629   1.175   1.090  12.361 -0.4087  0.5139 -0.4149
 5812TIP3   OH241630   0.230   4.582  11.820  0.8642  0.6024  0.2573
 5812TIP3    H141631   0.184   4.645  11.765  0.7399 -0.9357 -1.5100
 5812TIP3    H241632   0.211   4.610  11.909 -0.5251  2.0898 -0.4467
 5813TIP3   OH241633   1.192   1.995  13.158  0.0787  0.2724 -0.5078
 5813TIP3    H141634   1.116   1.947  13.123 -0.8782 -0.0620  1.8253
 5813TIP3    H241635   1.154   2.058  13.219  1.7105 -1.9142  3.0522
 5814TIP3   OH241636   7.481   1.281  13.440 -0.1107  0.1863 -0.4827
 5814TIP3    H141637   7.482   1.208  13.502  2.9077  2.0744  2.0330
 5814TIP3    H241638   7.572   1.312  13.439 -0.4226  1.4999 -4.5085
 5815TIP3   OH241639   6.637   4.763  11.834 -0.1006 -0.5812 -0.1604
 5815TIP3    H141640   6.591   4.797  11.911  0.4802  2.4538 -1.0330
 5815TIP3    H241641   6.718   4.727  11.869  1.3255  2.9846  0.5826
 5816TIP3   OH241642   2.019   2.416  12.881  0.2868  0.1481 -0.5987
 5816TIP3    H141643   2.110   2.431  12.856  0.1699  1.0686 -0.4965
 5816TIP3    H241644   2.023   2.348  12.948  0.8486 -0.1729 -0.9429
 5817TIP3   OH241645   2.295   2.435  12.878 -0.2829  0.2817 -0.1236
 5817TIP3    H141646   2.354   2.419  12.804 -0.4475  0.0568 -0.2084
 5817TIP3    H241647   2.353   2.442  12.954 -0.1765 -0.3416 -0.1438
 5818TIP3   OH241648   3.922   1.152  10.739 -0.2166  0.7691  0.3016
 5818TIP3    H141649   3.891   1.225  10.793  0.0597  1.5653 -0.5852
 5818TIP3    H241650   3.967   1.194  10.666 -1.3087 -0.2404 -1.0116
 5819TIP3   OH241651   3.653   5.311  12.010  0.3432 -0.2840  0.2823
 5819TIP3    H141652   3.577   5.344  11.962  0.6533 -1.3353 -0.9670
 5819TIP3    H241653   3.706   5.388  12.027  0.0386  0.1710 -0.7481
 5820TIP3   OH241654   1.190   1.956  13.523  0.2265 -0.0813  0.1840
 5820TIP3    H141655   1.156   1.885  13.577  0.0454 -0.8144 -0.8532
 5820TIP3    H241656   1.118   2.018  13.516 -0.6112 -1.1290 -1.1447
 5821TIP3   OH241657   4.623   6.004  12.378  0.0423 -0.1449  0.2138
 5821TIP3    H141658   4.595   6.095  12.367 -0.2775 -0.3974 -1.2339
 5821TIP3    H241659   4.549   5.961  12.420  0.4458  0.3688  1.5388
 5822TIP3   OH241660   1.341   0.004  10.851 -0.0321  0.2434 -0.2321
 5822TIP3    H141661   1.434  -0.018  10.846 -0.4528 -1.6920 -0.3002
 5822TIP3    H241662   1.327   0.066  10.780  1.5655  2.0695  0.9705
 5823TIP3   OH241663   1.843   1.663  12.962 -0.2106  0.3010  0.0536
 5823TIP3    H141664   1.762   1.710  12.981 -0.5883 -0.1753 -0.3568
 5823TIP3    H241665   1.912   1.727  12.978 -0.4769  0.0397  2.8641
 5824TIP3   OH241666   5.553   1.477  11.349  0.4273 -0.0196 -0.7096
 5824TIP3    H141667   5.592   1.548  11.298 -1.6893  1.5084 -0.3352
 5824TIP3    H241668   5.621   1.454  11.413  2.1035 -0.1317 -2.4436
 5825TIP3   OH241669   3.019   0.036  11.698 -0.3361 -0.0704  0.0555
 5825TIP3    H141670   3.011   0.126  11.730  1.5097  0.3095 -0.3945
 5825TIP3    H241671   2.975   0.037  11.613  1.7075  1.1375 -1.0925
 5826TIP3   OH241672   0.757   0.210  12.539  0.4742  0.5812 -0.6873
 5826TIP3    H141673   0.848   0.234  12.561  0.1046  0.9518  0.5146
 5826TIP3    H241674   0.759   0.115  12.530  0.8658  0.5252 -0.0558
 5827TIP3   OH241675   4.103   0.523  10.582  0.0344  0.2133  0.3519
 5827TIP3    H141676   4.134   0.453  10.525 -3.2258  0.0807 -1.4840
 5827TIP3    H241677   4.036   0.483  10.637  0.8392  1.0831  2.0389
 5828TIP3   OH241678   2.164   2.247  11.455  0.0389  0.2526 -0.3301
 5828TIP3    H141679   2.127   2.326  11.415  0.2852  0.3427 -0.3837
 5828TIP3    H241680   2.137   2.252  11.546  1.6722  1.4174  0.1395
 5829TIP3   OH241681   7.153   6.186  13.165  0.4497 -0.0563  0.1370
 5829TIP3    H141682   7.086   6.120  13.147 -0.9390  1.0354  1.1063
 5829TIP3    H241683   7.170   6.179  13.258  2.2016 -0.7423 -0.1969
 5830TIP3   OH241684   7.003   1.353  11.349 -0.1223 -0.2379  0.0809
 5830TIP3    H141685   6.996   1.271  11.301 -0.1531  0.2498 -0.7682
 5830TIP3    H241686   6.980   1.420  11.285 -0.8206  0.3841  0.9565
 5831TIP3   OH241687   5.199   5.143  13.046 -0.3527  0.0357  0.3989
 5831TIP3    H141688   5.227   5.203  13.115  2.7681  0.4700 -1.0669
 5831TIP3    H241689   5.117   5.180  13.014  0.1929  2.1203  1.2248
 5832TIP3   OH241690   3.879   0.001  11.808 -0.4935  0.5604  0.3425
 5832TIP3    H141691   3.906   0.071  11.868 -2.5448  1.6884  0.0473
 5832TIP3    H241692   3.800   0.035  11.765 -1.5880 -1.9300  0.1736
 5833TIP3   OH241693   3.957   4.622  11.740  0.5608  0.0890 -0.1325
 5833TIP3    H141694   3.934   4.704  11.785  0.1221 -0.0461 -0.1069
 5833TIP3    H241695   4.053   4.623  11.736  0.5868  0.3025  0.4297
 5834TIP3   OH241696   5.533   7.286  13.562  0.3064  0.1925 -0.2744
 5834TIP3    H141697   5.610   7.291  13.504  2.1210 -0.9671  1.8792
 5834TIP3    H241698   5.556   7.220  13.627 -1.9720  0.8364  1.3109
 5835TIP3   OH241699   1.592   6.413  12.360 -0.5017 -0.0365 -0.4320
 5835TIP3    H141700   1.642   6.357  12.302  1.0671  0.5377  0.2948
 5835TIP3    H241701   1.501   6.403  12.332  0.1535  0.0408 -2.8150
 5836TIP3   OH241702   1.731   1.763  10.961  0.5128 -0.5823  0.0293
 5836TIP3    H141703   1.716   1.697  11.028 -0.1366  1.1293  1.6564
 5836TIP3    H241704   1.779   1.833  11.006  0.7229  0.2992 -1.4841
 5837TIP3   OH241705   5.780   5.710  10.696  0.5018  0.6871 -0.0565
 5837TIP3    H141706   5.813   5.643  10.756 -0.2225 -0.4247 -0.8646
 5837TIP3    H241707   5.688   5.690  10.686  0.3367  1.6331 -0.5720
 5838TIP3   OH241708   2.733   2.930  11.042  0.2289  0.1045 -0.0527
 5838TIP3    H141709   2.668   2.886  11.097  1.0254  0.5960  1.3326
 5838TIP3    H241710   2.781   2.986  11.102  1.0002  0.8351 -1.3096
 5839TIP3   OH241711   0.359   7.464  12.551  0.1104 -0.2711 -0.0547
 5839TIP3    H141712   0.316   7.543  12.518  0.2851 -0.1323  0.0508
 5839TIP3    H241713   0.392   7.421  12.472  1.7259  0.7513  0.0265
 5840TIP3   OH241714   1.587   4.758  12.979 -0.3678 -0.0225 -0.0777
 5840TIP3    H141715   1.554   4.833  13.029 -1.1324  0.7094 -1.6207
 5840TIP3    H241716   1.511   4.701  12.969 -1.1251  1.3733 -3.1175
 5841TIP3   OH241717   6.272   5.827  13.692  0.0008  0.1757  0.1610
 5841TIP3    H141718   6.280   5.903  13.749  2.3510  0.6547 -0.6787
 5841TIP3    H241719   6.217   5.858  13.619  1.3649  1.3060 -0.4438
 5842TIP3   OH241720   6.965   0.102  11.462  0.0493  0.0113  0.4532
 5842TIP3    H141721   6.890   0.098  11.520 -0.0240 -0.7258  0.3190
 5842TIP3    H241722   6.987   0.195  11.457  0.1445  0.0756  1.7580
 5843TIP3   OH241723   2.824   0.276  10.644  0.1578  0.0348  0.3294
 5843TIP3    H141724   2.877   0.354  10.628 -2.4256  2.0484  1.0376
 5843TIP3    H241725   2.780   0.293  10.727 -2.2327 -1.1146 -0.6066
 5844TIP3   OH241726   3.028   6.331  11.143  0.9809  0.3274  0.7021
 5844TIP3    H141727   2.985   6.352  11.226 -1.2340 -1.2946  0.0521
 5844TIP3    H241728   2.989   6.392  11.080 -1.6317 -2.0256 -0.1654
 5845TIP3   OH241729   4.062   5.865  11.221  0.0644  0.4959 -0.0988
 5845TIP3    H141730   4.030   5.908  11.141  0.6235  2.2117  0.5519
 5845TIP3    H241731   3.989   5.810  11.250 -0.6715  0.9677 -0.9905
 5846TIP3   OH241732   6.010   1.783  12.302  0.3506 -0.1152 -0.4627
 5846TIP3    H141733   5.930   1.732  12.293  0.8817 -0.9328 -0.6602
 5846TIP3    H241734   6.001   1.826  12.387 -0.6012  0.3662 -0.7882
 5847TIP3   OH241735   3.028   4.848  12.291  0.6211  0.2741  0.0829
 5847TIP3    H141736   3.016   4.832  12.198  0.7167 -0.7180  0.2288
 5847TIP3    H241737   3.082   4.927  12.296  3.1323 -1.2808 -0.7905
 5848TIP3   OH241738   1.761   1.948  11.529 -0.0036  0.4908  0.2293
 5848TIP3    H141739   1.799   1.965  11.615 -0.1068 -0.1665  0.4086
 5848TIP3    H241740   1.674   1.988  11.532  0.8613  2.6112 -0.4126
 5849TIP3   OH241741   6.783   0.724  11.680 -0.0130 -0.0687 -0.4948
 5849TIP3    H141742   6.728   0.646  11.672 -0.8868  0.3066  1.3866
 5849TIP3    H241743   6.849   0.701  11.745 -1.8414  1.5176  2.0864
 5850TIP3   OH241744   1.653   6.440  11.603 -0.4424  0.1244  0.1512
 5850TIP3    H141745   1.653   6.464  11.510 -0.9028  1.3693  0.4471
 5850TIP3    H241746   1.740   6.467  11.634 -0.0405 -0.9063 -0.0542
 5851TIP3   OH241747   3.772   1.793  12.894 -0.2207  0.1738  0.5195
 5851TIP3    H141748   3.694   1.741  12.912  0.4659 -1.2912 -0.5116
 5851TIP3    H241749   3.752   1.879  12.930 -3.2313  0.5556 -1.6399
 5852TIP3   OH241750   2.821   5.706  12.534 -0.3746 -0.0159 -0.1257
 5852TIP3    H141751   2.760   5.718  12.607 -0.9806  0.1557 -0.6488
 5852TIP3    H241752   2.886   5.774  12.545 -1.4293  1.1281 -0.7072
 5853TIP3   OH241753   6.044   6.345  12.094  0.0911  0.3219  0.0772
 5853TIP3    H141754   6.090   6.328  12.012 -2.2497  0.7746 -1.4119
 5853TIP3    H241755   6.014   6.436  12.086  1.6191  1.1425  2.4267
 5854TIP3   OH241756   2.879   3.328  10.747 -0.4884 -0.3096 -0.0952
 5854TIP3    H141757   2.792   3.318  10.709 -0.4439 -0.8053 -0.0797
 5854TIP3    H241758   2.895   3.422  10.748 -1.5973 -0.1155  1.2107
 5855TIP3   OH241759   3.467   5.702  12.099 -0.7590 -0.1104 -0.1408
 5855TIP3    H141760   3.417   5.659  12.029 -0.0744 -0.8248 -0.2108
 5855TIP3    H241761   3.458   5.643  12.174  0.2639 -0.4363 -0.2618
 5856TIP3   OH241762   3.856   3.367  12.103  0.2899  0.4030 -0.0340
 5856TIP3    H141763   3.875   3.341  12.193  0.5952  0.0938 -0.1845
 5856TIP3    H241764   3.761   3.362  12.096  0.1780  1.4130  0.5676
 5857TIP3   OH241765   4.146   1.710  11.021 -0.8796  0.0276 -0.1664
 5857TIP3    H141766   4.076   1.715  10.955 -0.5855 -0.3698 -0.5148
 5857TIP3    H241767   4.172   1.618  11.022 -0.4070  0.1589  0.0071
 5858TIP3   OH241768   0.231   1.550  10.987 -0.5767  0.0296  0.3637
 5858TIP3    H141769   0.317   1.564  11.027  0.1370  0.7559 -1.3379
 5858TIP3    H241770   0.214   1.631  10.938 -1.7087 -0.5659 -0.2641
 5859TIP3   OH241771   7.328   7.455  12.064 -0.1143 -1.0435 -0.2941
 5859TIP3    H141772   7.417   7.486  12.080  0.1638 -0.5693 -2.3964
 5859TIP3    H241773   7.335   7.360  12.066  0.1896 -1.0111  0.6584
 5860TIP3   OH241774   7.018   3.575  11.551 -0.0748 -0.1354  0.3834
 5860TIP3    H141775   6.957   3.639  11.514 -0.8119 -0.0057  1.7649
 5860TIP3    H241776   6.996   3.572  11.644  1.2517 -0.9697  0.6894
 5861TIP3   OH241777   2.093   7.525  11.584 -0.5255 -0.3659  0.5560
 5861TIP3    H141778   2.043   7.575  11.648  0.2735  0.2923  0.6785
 5861TIP3    H241779   2.149   7.468  11.636 -1.5181 -1.4992  0.4171
 5862TIP3   OH241780   4.533   6.667  12.417 -0.2037 -0.0757 -0.1128
 5862TIP3    H141781   4.537   6.740  12.478  0.8302 -0.3072  0.1142
 5862TIP3    H241782   4.475   6.603  12.459  0.2474 -0.0978  0.4911
 5863TIP3   OH241783   5.265   6.677  10.776  0.2557 -0.2245  0.3305
 5863TIP3    H141784   5.212   6.745  10.734  0.3565 -0.9711 -1.0787
 5863TIP3    H241785   5.220   6.595  10.754  0.7738 -0.7032  1.0123
 5864TIP3   OH241786   7.554   6.609  12.480 -0.0557 -0.3195  0.0416
 5864TIP3    H141787   7.641   6.648  12.468  0.0218  0.5821  2.7645
 5864TIP3    H241788   7.561   6.522  12.442  1.7677  0.0560 -0.5986
 5865TIP3   OH241789   6.217   3.829  12.061  0.3235  0.2820  0.2788
 5865TIP3    H141790   6.289   3.850  12.001 -0.9263  0.2916 -1.2706
 5865TIP3    H241791   6.170   3.758  12.018 -1.3873  1.1863  0.5932
 5866TIP3   OH241792   5.038   4.845  11.391 -0.1826 -0.4972  0.0309
 5866TIP3    H141793   5.044   4.802  11.476  0.0126 -1.0104 -0.2376
 5866TIP3    H241794   5.115   4.815  11.343  1.1951  1.8731  0.5831
 5867TIP3   OH241795   7.678   5.584  12.852 -0.4961 -0.3668 -0.0788
 5867TIP3    H141796   7.730   5.557  12.776  1.0894 -0.0247  0.8562
 5867TIP3    H241797   7.589   5.557  12.830  0.2575 -2.1829 -1.1612
 5868TIP3   OH241798   7.658   7.629  11.406  0.2564 -0.4847 -0.4190
 5868TIP3    H141799   7.615   7.603  11.487  0.3250  1.9291  0.4967
 5868TIP3    H241800   7.601   7.696  11.369  2.7298  2.3842  0.5204
 5869TIP3   OH241801   5.738   4.314  12.432  0.4770 -0.5997  0.3514
 5869TIP3    H141802   5.723   4.385  12.494 -0.9875  0.1136 -0.7584
 5869TIP3    H241803   5.699   4.237  12.474  0.0146 -0.2529  0.5713
 5870TIP3   OH241804   6.270   0.445  10.791  0.4575  0.1345  0.2157
 5870TIP3    H141805   6.265   0.518  10.853 -2.6001 -0.2849  0.5837
 5870TIP3    H241806   6.250   0.367  10.843  1.2546 -0.6882 -0.6599
 5871TIP3   OH241807   7.538   6.415  11.898  0.2180 -0.1301 -0.0429
 5871TIP3    H141808   7.572   6.497  11.932  1.7375 -0.6174 -0.3041
 5871TIP3    H241809   7.563   6.415  11.806  1.5851 -1.4963  0.2663
 5872TIP3   OH241810   0.415   7.033  13.553 -0.1325  0.5517  0.6778
 5872TIP3    H141811   0.479   7.027  13.624  0.0899  0.2518  0.4565
 5872TIP3    H241812   0.360   6.956  13.565 -0.2698  0.6522  0.6929
 5873TIP3   OH241813   6.137   5.409  10.656 -0.7548  0.1856 -0.2119
 5873TIP3    H141814   6.099   5.488  10.617 -2.1085  0.2363  1.1294
 5873TIP3    H241815   6.173   5.439  10.739  1.8043  0.0074 -1.1581
 5874TIP3   OH241816   6.112   7.357  13.112 -0.2940  0.1360 -0.4603
 5874TIP3    H141817   6.146   7.309  13.037 -0.7836  0.1459 -0.6887
 5874TIP3    H241818   6.181   7.349  13.178 -0.0550 -0.2526 -0.7504
 5875TIP3   OH241819   7.195   6.558  12.299  0.3177 -0.4137 -0.0626
 5875TIP3    H141820   7.111   6.524  12.268  1.1157 -1.5458 -1.0935
 5875TIP3    H241821   7.175   6.643  12.336 -1.2975 -0.6987 -0.2175
 5876TIP3   OH241822   2.448   6.983  10.547  0.2554  0.6133  0.2877
 5876TIP3    H141823   2.465   6.947  10.460  3.4415  2.2278  0.1141
 5876TIP3    H241824   2.360   7.021  10.540 -0.4107 -1.0694 -1.5157
 5877TIP3   OH241825   4.139   2.523  11.400  0.0165  0.6497 -0.1601
 5877TIP3    H141826   4.134   2.519  11.495  2.5314  0.7597  0.0463
 5877TIP3    H241827   4.149   2.617  11.381  0.6638  0.5360 -0.4170
 5878TIP3   OH241828   3.618   7.589  12.075 -0.4151  0.1958 -0.4198
 5878TIP3    H141829   3.679   7.542  12.018 -1.4644 -0.6756 -0.8631
 5878TIP3    H241830   3.662   7.592  12.160  0.0902 -0.7739 -0.6288
 5879TIP3   OH241831   0.739   5.993  12.836  0.0869 -0.2339 -0.1861
 5879TIP3    H141832   0.660   5.948  12.866  0.3019 -0.1156  0.5797
 5879TIP3    H241833   0.708   6.054  12.770 -0.4385 -0.3520 -0.0531
 5880TIP3   OH241834   2.175   5.493  11.829 -0.7257  0.5270  0.2886
 5880TIP3    H141835   2.232   5.440  11.885 -1.0806 -0.6233 -0.4227
 5880TIP3    H241836   2.093   5.445  11.826 -0.3869 -0.0117 -2.0647
 5881TIP3   OH241837   4.732   4.338  11.971 -0.1831 -0.6616 -0.1688
 5881TIP3    H141838   4.774   4.329  12.057 -0.8688 -0.8079  0.1541
 5881TIP3    H241839   4.758   4.425  11.942  1.4248 -1.2297 -0.5686
 5882TIP3   OH241840   0.387   3.400  10.915 -0.5392  0.3297 -0.4411
 5882TIP3    H141841   0.387   3.318  10.866 -1.6658 -0.4158  0.7374
 5882TIP3    H241842   0.309   3.446  10.886  0.1059  1.0175 -1.1212
 5883TIP3   OH241843   4.825   5.295  10.613 -0.1952  0.0742 -0.0578
 5883TIP3    H141844   4.917   5.299  10.585  0.0818  0.7523  0.9076
 5883TIP3    H241845   4.829   5.299  10.708 -1.3228  2.5760 -0.0407
 5884TIP3   OH241846   0.138   0.843  12.535  0.3634 -0.2989  0.2491
 5884TIP3    H141847   0.126   0.931  12.498 -0.8893 -1.6021 -2.7614
 5884TIP3    H241848   0.230   0.840  12.560  0.6983  1.5490 -0.5781
 5885TIP3   OH241849   7.164   1.717  13.372 -0.0437 -0.1535  0.7252
 5885TIP3    H141850   7.102   1.767  13.319 -0.8892 -3.1266 -1.3028
 5885TIP3    H241851   7.117   1.699  13.453 -1.6864 -1.8402 -0.5433
 5886TIP3   OH241852   2.685   5.706  10.589 -0.3381  0.2912 -0.0317
 5886TIP3    H141853   2.594   5.677  10.593 -0.5374  0.6219 -1.5614
 5886TIP3    H241854   2.697   5.736  10.499  0.9549  1.3545  0.4543
 5887TIP3   OH241855   6.810   3.299  11.624  0.5289 -0.0109 -0.3915
 5887TIP3    H141856   6.774   3.343  11.701  3.3120 -1.3221  1.8147
 5887TIP3    H241857   6.783   3.354  11.551 -0.2643  2.6115  1.7082
 5888TIP3   OH241858   0.456   7.028  10.564 -0.0052  0.3801 -0.2455
 5888TIP3    H141859   0.481   6.966  10.632  0.1806  1.6106  0.8402
 5888TIP3    H241860   0.449   6.975  10.485  3.4487 -0.5175 -0.1089
 5889TIP3   OH241861   5.229   4.371  11.125 -0.0541  0.0805  0.0603
 5889TIP3    H141862   5.275   4.289  11.143  0.5774  0.5342  0.5259
 5889TIP3    H241863   5.160   4.346  11.063  0.8569 -0.6001 -0.7082
 5890TIP3   OH241864   1.826   2.320  11.386  0.2854  0.1696 -0.7567
 5890TIP3    H141865   1.871   2.405  11.388  0.9737 -0.1894 -0.3969
 5890TIP3    H241866   1.734   2.342  11.375  0.5481  0.9308 -1.6753
 5891TIP3   OH241867   5.385   1.834  10.968  0.4099  0.3721 -0.1710
 5891TIP3    H141868   5.349   1.878  10.891  1.4526  1.2397 -0.1909
 5891TIP3    H241869   5.479   1.833  10.953  0.4340 -2.4390 -0.4437
 5892TIP3   OH241870   7.293   0.307  10.732  0.1500 -0.3437  0.4800
 5892TIP3    H141871   7.386   0.286  10.725 -0.0011 -0.7151 -0.7775
 5892TIP3    H241872   7.291   0.398  10.760  0.8947 -0.3782  0.6690
 5893TIP3   OH241873   1.754   1.917  12.491 -0.1512 -0.0355  0.0437
 5893TIP3    H141874   1.701   1.839  12.506 -2.2588  1.0534 -1.1791
 5893TIP3    H241875   1.832   1.904  12.545 -1.2335 -2.1539  1.2435
 5894TIP3   OH241876   7.192   4.486  11.789  0.3755 -0.3245 -0.1639
 5894TIP3    H141877   7.259   4.418  11.801  1.3463  0.6917  0.3418
 5894TIP3    H241878   7.237   4.568  11.810 -0.3350  0.6671 -2.2889
 5895TIP3   OH241879   0.277   2.511  10.851 -0.0921 -0.2495 -0.5477
 5895TIP3    H141880   0.196   2.524  10.802  0.0607  0.1843 -0.6870
 5895TIP3    H241881   0.249   2.483  10.938 -0.5280  2.9449  0.4521
 5896TIP3   OH241882   1.557   1.222  12.866 -0.1394  0.0226 -0.2381
 5896TIP3    H141883   1.529   1.152  12.807 -0.5101  0.5619 -0.7012
 5896TIP3    H241884   1.653   1.216  12.866 -0.0459  0.9079 -2.0107
 5897TIP3   OH241885   2.320   7.626  11.833  0.2160  0.2410  0.7101
 5897TIP3    H141886   2.240   7.665  11.870  0.6226  0.7560  1.0679
 5897TIP3    H241887   2.304   7.532  11.837 -0.8507  0.3544 -0.3147
 5898TIP3   OH241888   3.026   2.608  10.861  0.3056 -0.0584  0.0854
 5898TIP3    H141889   2.987   2.691  10.833  0.7437  0.3811  0.7455
 5898TIP3    H241890   2.952   2.548  10.870  0.1052 -0.0817 -1.5202
 5899TIP3   OH241891   5.219   2.120  11.587  0.4704  0.3080  0.1528
 5899TIP3    H141892   5.223   2.068  11.506 -1.8684  0.2339  0.0149
 5899TIP3    H241893   5.170   2.199  11.562 -0.2785  0.2879  1.4882
 5900TIP3   OH241894   0.959   3.856  11.538  0.5968  0.3353 -0.0586
 5900TIP3    H141895   0.897   3.856  11.465  0.2988  0.4939  0.1949
 5900TIP3    H241896   0.986   3.765  11.547 -0.2456  0.1226  0.3784
 5901TIP3   OH241897   6.867   1.866  10.951  0.3820  0.4953  0.2550
 5901TIP3    H141898   6.938   1.900  11.006 -1.2556  0.3225  2.6641
 5901TIP3    H241899   6.808   1.941  10.939  0.7552  0.5441 -1.3921
 5902TIP3   OH241900   5.125   0.441  11.225 -0.2233 -0.4801  0.2889
 5902TIP3    H141901   5.149   0.483  11.143 -0.6236  0.0908  0.4585
 5902TIP3    H241902   5.152   0.350  11.214  2.4862  0.1894  0.6532
 5903TIP3   OH241903   0.341   2.078  13.423 -0.3462  0.6128  0.0620
 5903TIP3    H141904   0.306   2.148  13.479  0.4140  0.3705  0.8649
 5903TIP3    H241905   0.292   2.000  13.450  0.7406  0.2760  1.1777
 5904TIP3   OH241906   0.923   4.803  12.075  0.0866  0.0910 -0.6084
 5904TIP3    H141907   0.974   4.785  12.154 -1.8041  0.0814  0.6727
 5904TIP3    H241908   0.942   4.728  12.018  1.2120 -0.0821 -0.0541
 5905TIP3   OH241909   5.437   6.503  11.106  0.0424 -0.2870 -0.0567
 5905TIP3    H141910   5.355   6.487  11.151 -0.9821 -1.0498 -2.0404
 5905TIP3    H241911   5.502   6.509  11.175 -1.2653 -2.3090  1.4805
 5906TIP3   OH241912   2.428   3.339  11.755  0.1179 -0.1930 -0.1353
 5906TIP3    H141913   2.373   3.324  11.678 -1.6084  0.3402  0.9243
 5906TIP3    H241914   2.516   3.352  11.720 -0.5992 -0.0596 -2.0039
 5907TIP3   OH241915   6.674   5.045  13.517 -0.1819  0.4078  0.2400
 5907TIP3    H141916   6.751   5.099  13.499 -0.8034  1.2103 -0.0970
 5907TIP3    H241917   6.693   4.961  13.476  0.7026  0.4424  0.5584
 5908TIP3   OH241918   3.648   6.208  12.382 -0.0919  0.2395  0.0474
 5908TIP3    H141919   3.676   6.279  12.439  0.3561 -0.0764  0.2203
 5908TIP3    H241920   3.579   6.247  12.327  0.4583  0.9250 -0.1651
 5909TIP3   OH241921   0.215   7.273  11.935  0.4037  0.0877  0.2727
 5909TIP3    H141922   0.167   7.228  12.005  0.2457 -0.5556 -0.2384
 5909TIP3    H241923   0.307   7.258  11.956  0.3509 -1.0026 -0.2108
 5910TIP3   OH241924   4.292   6.946  10.558  0.3776  0.3140 -0.2819
 5910TIP3    H141925   4.349   6.870  10.548  0.3365  0.1218  0.8581
 5910TIP3    H241926   4.300   6.971  10.650 -0.6019  0.8951 -0.3392
 5911TIP3   OH241927   1.598   1.410  10.999  0.5429  0.3333  0.3570
 5911TIP3    H141928   1.663   1.473  11.028 -1.4145  3.5623 -1.5766
 5911TIP3    H241929   1.514   1.448  11.025 -0.7586 -1.9611 -0.1345
 5912TIP3   OH241930   1.283   6.194  10.718 -0.2240  0.7002  0.1675
 5912TIP3    H141931   1.234   6.123  10.761  1.0498 -0.3569 -0.0700
 5912TIP3    H241932   1.275   6.175  10.625 -1.5207  2.0136 -0.0190
 5913TIP3   OH241933   4.738   4.756  12.111  0.8026  0.1311 -0.1228
 5913TIP3    H141934   4.730   4.675  12.161 -0.9101  0.4949  0.2728
 5913TIP3    H241935   4.679   4.744  12.036  1.0550  0.7451 -0.4300
 5914TIP3   OH241936   2.912   6.164  10.426 -0.3083 -0.1750 -0.4474
 5914TIP3    H141937   2.957   6.080  10.416 -0.6970 -0.4081 -0.2286
 5914TIP3    H241938   2.826   6.142  10.461 -0.2482  0.3513  0.0533
 5915TIP3   OH241939   5.028   6.985  11.229  0.8481 -0.6030  0.8157
 5915TIP3    H141940   5.098   6.996  11.165 -1.1719 -0.3395 -1.4612
 5915TIP3    H241941   5.073   6.955  11.308  3.5623 -0.0180 -0.3915
 5916TIP3   OH241942   6.787   2.816  11.494 -0.0416 -1.0023  0.5954
 5916TIP3    H141943   6.693   2.834  11.499  0.0882  1.4855 -2.4860
 5916TIP3    H241944   6.798   2.774  11.409  1.5787 -1.8999  1.2268
 5917TIP3   OH241945   7.085   5.857  10.668  0.0881 -0.2960  0.1222
 5917TIP3    H141946   7.028   5.786  10.637  2.4735 -1.7787 -1.1678
 5917TIP3    H241947   7.068   5.861  10.762 -1.2560 -1.4968 -0.0276
 5918TIP3   OH241948   6.715   6.899  13.296  0.8792  0.1535 -0.5811
 5918TIP3    H141949   6.738   6.818  13.342 -0.7311 -0.9762 -1.6418
 5918TIP3    H241950   6.799   6.941  13.277  1.6643 -0.2702  1.6790
 5919TIP3   OH241951   6.678   0.000  10.851 -0.0496  0.0448  0.6126
 5919TIP3    H141952   6.616  -0.050  10.799 -1.0033  1.5225  0.2594
 5919TIP3    H241953   6.662  -0.027  10.941  0.8253 -1.6961  0.2978
 5920TIP3   OH241954   1.838   0.977  13.095  0.2660 -0.2581 -0.7744
 5920TIP3    H141955   1.812   1.062  13.131  1.1449  0.8682 -2.6094
 5920TIP3    H241956   1.823   0.986  13.000  0.4312 -2.1387 -1.0167
 5921TIP3   OH241957   7.229   5.377  12.270 -0.3612  0.2043  0.0512
 5921TIP3    H141958   7.169   5.306  12.289 -0.4859  0.0297 -0.9250
 5921TIP3    H241959   7.300   5.336  12.220  0.0921  0.5773  0.3763
 5922TIP3   OH241960   7.203   4.020  11.599 -0.3584 -0.2898  0.1938
 5922TIP3    H141961   7.239   4.095  11.646 -1.2637 -0.7008  1.5836
 5922TIP3    H241962   7.248   3.945  11.635 -0.6153 -0.5632 -0.0473
 5923TIP3   OH241963   4.357   5.775  11.766  0.2025 -0.1266  0.6194
 5923TIP3    H141964   4.389   5.693  11.728 -1.4045  0.0890 -1.4427
 5923TIP3    H241965   4.425   5.839  11.747  0.5470 -0.5709  0.3469
 5924TIP3   OH241966   6.812   5.974  11.809 -0.0129  0.3079 -0.4445
 5924TIP3    H141967   6.854   6.005  11.889 -0.9392  1.6295 -0.4409
 5924TIP3    H241968   6.737   5.922  11.840 -0.1587  0.5141 -0.4498
 5925TIP3   OH241969   7.245   1.797  11.791  0.1413 -0.6683  0.0175
 5925TIP3    H141970   7.214   1.833  11.708  1.9590  2.7050  0.6393
 5925TIP3    H241971   7.187   1.723  11.808 -3.4900  1.4862 -1.7895
 5926TIP3   OH241972   2.012   1.765  12.535  0.5249  0.0167 -0.1585
 5926TIP3    H141973   1.997   1.749  12.442 -0.8629 -0.2167  0.0766
 5926TIP3    H241974   2.061   1.688  12.565 -1.0528 -1.0806 -0.2469
 5927TIP3   OH241975   3.752   5.956  11.635  0.0927  0.3849 -0.2852
 5927TIP3    H141976   3.816   6.027  11.635  0.4886  0.0559 -2.1203
 5927TIP3    H241977   3.805   5.876  11.640 -0.1859  0.1325 -1.1821
 5928TIP3   OH241978   2.308   4.888  12.670  0.3031  0.0066  0.2800
 5928TIP3    H141979   2.387   4.839  12.648  0.3687 -0.1999  0.9539
 5928TIP3    H241980   2.327   4.978  12.644 -0.1091 -0.4428 -1.7021
 5929TIP3   OH241981   5.531   1.176  11.256  0.1668  0.4026  0.7597
 5929TIP3    H141982   5.577   1.256  11.279  1.2350 -0.0769  0.3344
 5929TIP3    H241983   5.593   1.105  11.274 -0.7237 -0.3336  1.0532
 5930TIP3   OH241984   1.615   3.042  12.904 -0.2725  0.2283  0.4332
 5930TIP3    H141985   1.642   2.975  12.841  0.6597  0.5309  0.4876
 5930TIP3    H241986   1.619   3.124  12.855 -0.6605  0.3359  0.5786
 5931TIP3   OH241987   6.064   0.728  12.539  0.2863 -0.2424  0.2903
 5931TIP3    H141988   6.135   0.788  12.516  0.5593 -1.2646 -1.7465
 5931TIP3    H241989   6.067   0.723  12.635  0.8195  2.2609  0.4940
 5932TIP3   OH241990   3.370   1.411  12.952  0.0826 -0.3055 -0.3692
 5932TIP3    H141991   3.452   1.362  12.962  1.0184  0.7905 -2.0915
 5932TIP3    H241992   3.306   1.362  13.004  1.4643 -2.0722 -0.2239
 5933TIP3   OH241993   4.209   2.719  13.203  0.2870  0.3812 -0.0043
 5933TIP3    H141994   4.136   2.659  13.219  0.2355  0.6752  0.9338
 5933TIP3    H241995   4.176   2.781  13.139  0.5166 -0.8947 -1.4086
 5934TIP3   OH241996   6.329   2.002  10.617  0.1054 -0.7319  0.1643
 5934TIP3    H141997   6.305   2.072  10.678 -2.8030 -0.2106 -1.4298
 5934TIP3    H241998   6.384   2.045  10.551  2.3791 -1.0835  1.7091
 5935TIP3   OH241999   2.416   0.840  10.903  0.5254 -0.4176 -0.2563
 5935TIP3    H142000   2.417   0.799  10.990 -0.5487 -0.2291 -0.1348
 5935TIP3    H242001   2.323   0.846  10.881  0.6611  1.5224 -0.4788
 5936TIP3   OH242002   3.879   0.392  13.008  0.0830  0.3025 -0.7650
 5936TIP3    H142003   3.850   0.356  12.924 -0.7262 -1.3178  0.1606
 5936TIP3    H242004   3.798   0.414  13.054  0.4305 -0.5538  0.2985
 5937TIP3   OH242005   1.970   7.073  10.675 -0.0914 -0.7871 -0.1140
 5937TIP3    H142006   2.004   6.991  10.639 -0.7741 -1.0100 -0.2604
 5937TIP3    H242007   2.039   7.103  10.734  0.1785 -1.4596 -0.0732
 5938TIP3   OH242008   0.876   2.139  13.042  0.3182 -0.3899  0.4042
 5938TIP3    H142009   0.798   2.084  13.032 -0.3742  0.5277  0.6383
 5938TIP3    H242010   0.863   2.184  13.126  1.3210 -0.5646  0.6686
 5939TIP3   OH242011   0.201   0.483  13.058  0.5144 -0.0460  0.4191
 5939TIP3    H142012   0.266   0.413  13.057  0.1976 -0.3405 -0.8671
 5939TIP3    H242013   0.122   0.443  13.022  0.5425  1.1541 -1.0556
 5940TIP3   OH242014   2.722   3.799  10.780 -0.3475 -0.0211  0.0518
 5940TIP3    H142015   2.671   3.732  10.825  0.7856 -1.1296 -0.2532
 5940TIP3    H242016   2.714   3.777  10.687  1.9226 -1.2061  0.0696
 5941TIP3   OH242017   0.803   4.020  12.441  0.0340 -0.3536 -0.2474
 5941TIP3    H142018   0.891   4.053  12.463  0.5154 -1.4684 -0.4500
 5941TIP3    H242019   0.808   3.926  12.459 -0.9132 -0.5421 -0.9311
 5942TIP3   OH242020   4.683   6.794  11.689 -0.4541  0.4898 -0.2561
 5942TIP3    H142021   4.600   6.753  11.663 -0.7569  0.1842  1.0986
 5942TIP3    H242022   4.750   6.737  11.654 -0.8701 -1.6440  2.1671
 5943TIP3   OH242023   5.071   4.265  10.619 -0.3301 -0.0957  0.1282
 5943TIP3    H142024   5.012   4.339  10.631  0.0348  0.1529  0.4147
 5943TIP3    H242025   5.027   4.209  10.555 -0.1779  0.8392 -0.8210
 5944TIP3   OH242026   4.094   3.526  11.581 -0.6373  0.2179 -0.2313
 5944TIP3    H142027   4.138   3.452  11.623  1.0976  0.6978 -1.0693
 5944TIP3    H242028   4.015   3.541  11.633 -0.1506 -1.1427  0.9526
 5945TIP3   OH242029   6.761   5.916  13.162  0.3811  0.4246  0.1422
 5945TIP3    H142030   6.781   5.825  13.183  0.2316  0.5019  0.6443
 5945TIP3    H242031   6.683   5.911  13.106  1.3113  0.1692 -1.1727
 5946TIP3   OH242032   5.706   0.604  10.839 -0.2304 -0.4266 -0.1495
 5946TIP3    H142033   5.685   0.568  10.752  0.1537 -0.4625 -0.2327
 5946TIP3    H242034   5.680   0.696  10.833 -1.1228 -0.6607  0.0294
 5947TIP3   OH242035   0.714   4.643  11.295 -0.2261  0.5453  0.0340
 5947TIP3    H142036   0.740   4.553  11.311 -0.8181 -0.1353 -2.4528
 5947TIP3    H242037   0.761   4.668  11.216 -2.0308  1.5116 -0.7957
 5948TIP3   OH242038   3.440   6.176  11.400 -0.5729  0.3554 -0.3136
 5948TIP3    H142039   3.376   6.166  11.470 -0.3308 -0.8894 -0.2526
 5948TIP3    H242040   3.501   6.242  11.433 -3.2122  3.6596 -1.4402
 5949TIP3   OH242041   4.070   6.299  10.756 -0.1879  0.6668 -0.2955
 5949TIP3    H142042   3.981   6.314  10.724 -0.2373  0.0261 -0.4725
 5949TIP3    H242043   4.058   6.275  10.848 -0.2481  0.0446 -0.4600
 5950TIP3   OH242044   1.745   4.204  13.288 -0.4355 -0.6430  0.2754
 5950TIP3    H142045   1.672   4.154  13.325 -0.0217 -1.8541 -0.4547
 5950TIP3    H242046   1.703   4.266  13.228 -0.8678 -3.1834 -2.3119
 5951TIP3   OH242047   3.365   5.625  11.364  0.2193 -0.4894  0.1008
 5951TIP3    H142048   3.305   5.694  11.334  0.7663  0.0767  0.3032
 5951TIP3    H242049   3.355   5.625  11.460  1.1003  0.1320  0.2020
 5952TIP3   OH242050   7.147   7.406  12.553 -0.0285  0.0486 -0.4989
 5952TIP3    H142051   7.153   7.433  12.461  1.0478  1.3183 -0.0785
 5952TIP3    H242052   7.185   7.478  12.602  0.0057 -0.8879  0.9160
 5953TIP3   OH242053   6.427   0.713  11.774  0.8152 -0.0497  0.0677
 5953TIP3    H142054   6.493   0.653  11.740  1.5236  1.5138 -1.4891
 5953TIP3    H242055   6.351   0.700  11.718 -0.3349 -1.9149  1.9181
 5954TIP3   OH242056   4.730   5.903  12.150  0.7600  0.4929 -0.1491
 5954TIP3    H142057   4.665   5.834  12.133 -0.3075  1.4634 -0.0781
 5954TIP3    H242058   4.706   5.937  12.236 -0.9538  3.3136 -1.6038
 5955TIP3   OH242059   6.197   6.735  11.294 -0.2004 -0.2176 -0.2425
 5955TIP3    H142060   6.252   6.660  11.318  0.1572 -0.3253 -1.3283
 5955TIP3    H242061   6.251   6.811  11.313  0.1063 -0.3028 -0.7602
 5956TIP3   OH242062   3.511   5.435  19.242  0.2302  0.2419  0.0840
 5956TIP3    H142063   3.420   5.463  19.231  0.1385 -0.6956 -1.9505
 5956TIP3    H242064   3.507   5.368  19.310 -0.6203  0.1370 -0.0522
 5957TIP3   OH242065   4.976   1.137  11.693 -0.5013 -0.6344 -0.3022
 5957TIP3    H142066   4.902   1.158  11.751 -1.0814 -0.8351 -0.9526
 5957TIP3    H242067   5.012   1.221  11.668 -0.1120 -0.5465  0.5066
 5958TIP3   OH242068   1.916   1.512  11.806  0.4577 -0.4927  0.1082
 5958TIP3    H142069   1.915   1.608  11.799 -1.2100 -0.4055  0.9791
 5958TIP3    H242070   1.831   1.484  11.771  0.6899 -1.6069  0.3927
 5959TIP3   OH242071   4.830   0.312  12.194  0.0121  0.4562  0.2616
 5959TIP3    H142072   4.765   0.295  12.125 -0.8148  0.5252  1.0094
 5959TIP3    H242073   4.908   0.340  12.146 -0.1922 -0.5376 -0.7198
 5960TIP3   OH242074   6.749   5.434  12.647 -0.3282  0.4416  0.1356
 5960TIP3    H142075   6.817   5.499  12.664  0.4929 -0.3266 -0.0688
 5960TIP3    H242076   6.796   5.363  12.602 -0.7131 -1.2427  2.2286
 5961TIP3   OH242077   5.670   6.533  10.555  0.4259  0.0867  0.5905
 5961TIP3    H142078   5.588   6.502  10.592 -0.1980  0.5991 -0.3198
 5961TIP3    H242079   5.675   6.625  10.581  0.2356  0.3102 -0.1486
 5962TIP3   OH242080   1.331   3.754  11.831  0.2173  0.2308 -0.2766
 5962TIP3    H142081   1.379   3.758  11.748  1.6181  0.0931  0.4961
 5962TIP3    H242082   1.385   3.699  11.888 -1.3371 -0.7273  0.3565
 5963TIP3   OH242083   4.409   2.957  10.717  0.3802 -0.8086  0.3312
 5963TIP3    H142084   4.429   2.871  10.753  1.6466 -0.3343  0.8387
 5963TIP3    H242085   4.495   2.994  10.695 -0.2187 -0.1653 -1.0362
 5964TIP3   OH242086   6.199   0.803  11.137  0.1249 -0.4386 -0.2337
 5964TIP3    H142087   6.189   0.750  11.058  0.2365  0.1123 -0.6226
 5964TIP3    H242088   6.188   0.893  11.107  2.9654  0.0281 -0.1437
 5965TIP3   OH242089   5.855   0.323  11.672 -0.2492  0.0061 -0.3073
 5965TIP3    H142090   5.918   0.348  11.604  0.9119  2.2349  1.4733
 5965TIP3    H242091   5.909   0.296  11.746 -1.4118  0.5688  0.7756
 5966TIP3   OH242092   2.375   5.982  12.688 -0.2217 -0.4963 -0.4134
 5966TIP3    H142093   2.283   5.955  12.693 -0.0857 -1.0379 -0.8299
 5966TIP3    H242094   2.391   6.024  12.773 -0.5128 -1.4863  0.1449
 5967TIP3   OH242095   7.210   6.773  11.117 -0.1322  0.0248  0.2506
 5967TIP3    H142096   7.202   6.864  11.088  0.2227  0.5709  1.7886
 5967TIP3    H242097   7.266   6.732  11.051 -0.7663  0.7666 -0.7728
 5968TIP3   OH242098   0.536   7.281  13.183 -0.3644  0.1080 -0.0749
 5968TIP3    H142099   0.475   7.253  13.115 -1.9465  0.3789  1.1825
 5968TIP3    H242100   0.490   7.264  13.265  1.0137  0.9063  0.9037
 5969TIP3   OH242101   1.212   6.586  12.692  0.2404 -1.2081 -0.3002
 5969TIP3    H142102   1.180   6.582  12.602  2.7134 -1.1132 -1.2616
 5969TIP3    H242103   1.206   6.496  12.724 -2.7534 -0.8924  0.3270
 5970TIP3   OH242104   0.200   5.197  10.674 -0.1073 -0.0631  0.4054
 5970TIP3    H142105   0.152   5.244  10.742 -0.0363  0.2562  0.2394
 5970TIP3    H242106   0.179   5.105  10.688 -1.4809  0.1342 -0.2217
 5971TIP3   OH242107   6.751   1.291  11.490  0.0557  0.1766 -0.0897
 5971TIP3    H142108   6.845   1.290  11.473  0.3951  2.4083  1.2923
 5971TIP3    H242109   6.740   1.238  11.569  0.2423  0.3024  0.0223
 5972TIP3   OH242110   0.134   2.040  11.591 -0.2300  0.1694 -0.0353
 5972TIP3    H142111   0.172   2.031  11.504  0.2601  0.3839  0.1562
 5972TIP3    H242112   0.207   2.065  11.647 -0.7022  0.8841  0.2799
 5973TIP3   OH242113   3.446   2.469  10.456  0.6730 -0.2144 -0.7363
 5973TIP3    H142114   3.409   2.427  10.535  1.3280  1.8858  0.7820
 5973TIP3    H242115   3.371   2.513  10.415  0.8497  1.5853  0.7194
 5974TIP3   OH242116   7.632   6.754  13.426 -0.0727 -0.2989 -0.4355
 5974TIP3    H142117   7.618   6.704  13.346 -1.1142 -0.7169 -0.0221
 5974TIP3    H242118   7.555   6.733  13.480 -0.0210  0.9635  0.1576
 5975TIP3   OH242119   5.326   6.866  12.063  0.7463  0.1525  0.2631
 5975TIP3    H142120   5.399   6.901  12.114 -0.0590  1.8081  0.3605
 5975TIP3    H242121   5.250   6.915  12.094 -0.1523 -0.4817 -0.8678
 5976TIP3   OH242122   0.718   5.916  12.535  0.1703 -0.3219 -0.2960
 5976TIP3    H142123   0.735   5.824  12.513  1.1320  0.1731 -1.8055
 5976TIP3    H242124   0.631   5.916  12.574 -0.7326 -1.6417 -2.1454
 5977TIP3   OH242125   1.424   3.799  11.588 -0.2246 -0.3268  0.3178
 5977TIP3    H142126   1.415   3.864  11.518  0.5435 -0.1097  0.4090
 5977TIP3    H242127   1.458   3.721  11.544  0.8295  0.0008  0.5381
 5978TIP3   OH242128   2.126   4.469  11.716  0.1723  0.1750  0.5227
 5978TIP3    H142129   2.177   4.408  11.662 -0.2972 -1.2600  1.6503
 5978TIP3    H242130   2.142   4.554  11.676 -0.0236 -0.8011 -1.7873
 5979TIP3   OH242131   4.419   7.074  11.648  0.4085  0.5534  0.1038
 5979TIP3    H142132   4.326   7.073  11.626 -0.4041 -4.0919  2.3273
 5979TIP3    H242133   4.460   7.019  11.581  1.8953  3.3186 -1.4101
 5980TIP3   OH242134   5.819   6.462  11.796 -0.4540 -0.5172  0.6895
 5980TIP3    H142135   5.756   6.518  11.752 -0.6790  0.5709  2.2956
 5980TIP3    H242136   5.802   6.475  11.890  1.6910 -0.6939  1.1646
 5981TIP3   OH242137   7.415   5.427  11.411 -0.2370  0.2673 -0.0350
 5981TIP3    H142138   7.510   5.442  11.417 -0.4949  1.9879  0.4431
 5981TIP3    H242139   7.393   5.449  11.321 -0.0516 -1.1957 -0.4649
 5982TIP3   OH242140   3.868   7.357  11.634 -0.2637  0.2043  0.0121
 5982TIP3    H142141   3.826   7.303  11.568  0.7803 -1.2274  0.4737
 5982TIP3    H242142   3.808   7.430  11.647 -1.8974 -1.0185 -0.3686
 5983TIP3   OH242143   3.175   1.154  11.466  0.6867  0.4512  0.3070
 5983TIP3    H142144   3.180   1.210  11.544 -0.8172  2.4819 -0.9459
 5983TIP3    H242145   3.170   1.216  11.393 -0.5975 -1.3369 -1.2095
 5984TIP3   OH242146   0.368   2.066  12.452  0.0411 -0.2210 -0.0570
 5984TIP3    H142147   0.399   1.979  12.425 -1.1666 -0.0340 -2.2806
 5984TIP3    H242148   0.277   2.070  12.421  0.1768  1.9490 -0.3296
 5985TIP3   OH242149   4.916   6.999  12.561  0.0642 -0.0293 -0.5592
 5985TIP3    H142150   4.955   7.058  12.625 -0.3933 -0.2558 -0.0596
 5985TIP3    H242151   4.887   6.923  12.612  1.2066 -0.9907 -1.2628
 5986TIP3   OH242152   0.117   6.490  12.976  0.1125  0.4252 -0.1575
 5986TIP3    H142153   0.054   6.559  12.957  0.2949  1.3651  2.2509
 5986TIP3    H242154   0.179   6.494  12.904 -0.5756  1.9680 -0.7185
 5987TIP3   OH242155   1.805   7.432  10.913 -0.5300  0.0429  0.3765
 5987TIP3    H142156   1.736   7.497  10.899 -0.3237  0.5583  1.6065
 5987TIP3    H242157   1.804   7.379  10.833 -2.9945 -0.5821  0.7159
 5988TIP3   OH242158   0.548   0.321  12.762  0.0110  0.5978 -0.4214
 5988TIP3    H142159   0.615   0.265  12.722 -0.5019 -1.4128  1.3563
 5988TIP3    H242160   0.483   0.333  12.692  0.0501 -1.2325 -0.8387
 5989TIP3   OH242161   7.675   1.041  10.810 -0.4259 -0.7540  0.0408
 5989TIP3    H142162   7.651   0.974  10.875  1.0299 -0.0629  1.3759
 5989TIP3    H242163   7.756   1.008  10.771 -0.0392 -0.0868  0.2635
 5990TIP3   OH242164   4.961   3.858  11.735  0.1724  0.4832 -0.3147
 5990TIP3    H142165   4.910   3.920  11.683  0.8850  0.2230 -1.3545
 5990TIP3    H242166   4.949   3.888  11.826  0.4770  2.1415 -0.7762
 5991TIP3   OH242167   5.221   5.475  12.170  0.5211 -0.0614  0.3049
 5991TIP3    H142168   5.237   5.524  12.251  0.7207  0.5684 -0.1129
 5991TIP3    H242169   5.161   5.405  12.196  0.1987  0.4282  0.8983
 5992TIP3   OH242170   2.266   7.378  11.749  0.4505  0.1986 -0.5631
 5992TIP3    H142171   2.346   7.326  11.756  0.6015  0.5035  0.1473
 5992TIP3    H242172   2.195   7.314  11.759  0.6375  0.2190  1.4845
 5993TIP3   OH242173   5.454   1.597  12.093  0.5610  0.4223  0.0367
 5993TIP3    H142174   5.489   1.514  12.062  0.3166  0.2914  0.1057
 5993TIP3    H242175   5.361   1.594  12.070  0.2124  0.0141  1.4107
 5994TIP3   OH242176   1.830   7.486  12.092 -0.3146 -0.8864 -0.5576
 5994TIP3    H142177   1.746   7.514  12.129  0.5686 -0.8008  1.5225
 5994TIP3    H242178   1.839   7.538  12.012 -0.4218  2.2756  1.2865
 5995TIP3   OH242179   0.954   7.247  10.489 -0.2554  0.1944  0.7025
 5995TIP3    H142180   1.039   7.209  10.512  0.0310  0.1660 -0.3745
 5995TIP3    H242181   0.925   7.196  10.413 -0.6415  1.0439  0.2711
 5996TIP3   OH242182   1.152   5.447  11.748  0.2808  0.1762  0.2027
 5996TIP3    H142183   1.078   5.397  11.783  1.7779 -2.3554  0.0507
 5996TIP3    H242184   1.116   5.497  11.675 -1.6375  0.6044  1.3825
 5997TIP3   OH242185   3.123   5.288  12.013  0.1600 -0.1491  0.3387
 5997TIP3    H142186   3.143   5.335  11.931  0.3835 -0.3267  0.2943
 5997TIP3    H242187   3.193   5.312  12.073  1.4375 -2.0563 -0.3241
 5998TIP3   OH242188   0.964   5.006  11.728  0.4656  0.2960  0.5381
 5998TIP3    H142189   0.899   5.031  11.663 -0.2298 -2.8608 -0.1320
 5998TIP3    H242190   1.042   4.984  11.677  1.3645  1.8626  1.1668
 5999TIP3   OH242191   5.032   2.849  11.274  0.3810 -0.0600  0.1538
 5999TIP3    H142192   4.985   2.892  11.346 -1.4948 -0.7741 -0.5646
 5999TIP3    H242193   5.121   2.885  11.278  0.1276  0.4557  2.3521
 6000TIP3   OH242194   5.910   4.088  11.817 -0.4377  0.0670  0.1069
 6000TIP3    H142195   5.932   4.008  11.769  0.5030  0.5973 -0.3992
 6000TIP3    H242196   5.994   4.120  11.849 -1.0978 -0.5672  2.6600
 6001TIP3   OH242197   5.864   2.025  11.916 -0.1788 -0.0287  0.4770
 6001TIP3    H142198   5.948   2.067  11.931 -0.1073  0.6685 -1.5486
 6001TIP3    H242199   5.876   1.935  11.947  0.9905  0.3052  1.0588
 6002TIP3   OH242200   1.183   5.037  11.574  0.1147 -0.4694  0.3062
 6002TIP3    H142201   1.259   5.038  11.516  1.0710 -0.2201  1.5403
 6002TIP3    H242202   1.125   5.105  11.539 -0.1111 -1.4519 -1.3440
 6003TIP3   OH242203   0.317   4.341  13.085 -0.2740  0.0089 -0.4119
 6003TIP3    H142204   0.367   4.268  13.048  0.6231  0.0494  0.6640
 6003TIP3    H242205   0.243   4.299  13.129  0.5532 -0.3101  0.6939
 6004TIP3   OH242206   3.264   5.937  11.512 -0.0933 -0.8579  0.6566
 6004TIP3    H142207   3.345   5.917  11.557 -0.0459 -0.5089  0.7289
 6004TIP3    H242208   3.285   5.929  11.419  0.3685  0.4924  0.6296
 6005TIP3   OH242209   1.613   6.986  13.757  0.1809  0.0099  0.2069
 6005TIP3    H142210   1.611   6.897  13.722  0.3385 -0.8698  2.2835
 6005TIP3    H242211   1.658   7.037  13.689 -0.2482 -1.3873 -1.1963
 6006TIP3   OH242212   6.182   5.054  12.548  0.0017  0.6325 -0.4812
 6006TIP3    H142213   6.103   5.006  12.525 -0.0217  0.2204  0.4044
 6006TIP3    H242214   6.158   5.103  12.627  0.8331 -0.0815  0.2331
 6007TIP3   OH242215   3.674   4.427  12.893 -0.0405  0.4160 -0.3111
 6007TIP3    H142216   3.679   4.331  12.899  1.2522  0.5136  0.6215
 6007TIP3    H242217   3.592   4.450  12.935 -1.5977 -0.4096 -2.6892
 6008TIP3   OH242218   3.668   5.645  10.852 -0.3103 -0.3571 -0.4066
 6008TIP3    H142219   3.759   5.658  10.827 -0.3196 -0.5667 -0.5480
 6008TIP3    H242220   3.622   5.720  10.813 -0.1456 -0.0540 -0.0288
 6009TIP3   OH242221   1.036   0.886  10.586  0.0581  0.0555 -0.2011
 6009TIP3    H142222   1.027   0.913  10.678 -0.3548  0.4194 -0.3436
 6009TIP3    H242223   0.991   0.955  10.537 -1.7336 -1.2779 -0.5340
 6010TIP3   OH242224   3.815   6.813  12.854  0.0569 -0.7894  1.1656
 6010TIP3    H142225   3.871   6.881  12.816  0.4427 -1.5363  0.3698
 6010TIP3    H242226   3.768   6.858  12.925  1.0926  0.0370  1.3597
 6011TIP3   OH242227   0.323   6.617  13.618  0.1273 -0.0476 -0.0549
 6011TIP3    H142228   0.368   6.546  13.665  0.1880 -2.2734 -3.1313
 6011TIP3    H242229   0.286   6.574  13.541 -2.8996  2.6971 -0.3198
 6012TIP3   OH242230   2.064   1.761  11.230  0.4166  0.3521 -0.3024
 6012TIP3    H142231   2.052   1.786  11.321  1.1808  0.7040 -0.2935
 6012TIP3    H242232   1.987   1.797  11.185 -0.2195 -0.2685  0.2787
 6013TIP3   OH242233   4.805   7.646  10.715  0.2258 -0.1853  0.1457
 6013TIP3    H142234   4.861   7.586  10.666 -1.4772 -1.1915 -0.6706
 6013TIP3    H242235   4.787   7.717  10.654 -0.9458 -0.8542 -0.3212
 6014TIP3   OH242236   4.473   4.592  10.762 -0.7890 -0.2202  0.6742
 6014TIP3    H142237   4.394   4.588  10.708 -1.1405  0.4425  1.1435
 6014TIP3    H242238   4.522   4.513  10.736 -1.7411 -0.8159  0.6135
 6015TIP3   OH242239   6.987   1.398  11.689 -0.1177  0.0326  0.5961
 6015TIP3    H142240   7.062   1.344  11.664 -1.0430 -0.9479 -0.1421
 6015TIP3    H242241   6.922   1.336  11.721 -1.2614  0.6790 -0.4142
 6016TIP3   OH242242   0.597   4.847  12.245  0.5051 -0.0803 -0.1007
 6016TIP3    H142243   0.502   4.842  12.250  0.2224  2.6387 -1.2473
 6016TIP3    H242244   0.621   4.921  12.300  2.0591 -1.0705  0.6480
 6017TIP3   OH242245   0.185   5.686  13.444 -0.6250 -0.6046  0.1587
 6017TIP3    H142246   0.185   5.694  13.349  0.7714  0.4947  0.2266
 6017TIP3    H242247   0.101   5.724  13.471 -1.1080 -1.0702 -0.6165
 6018TIP3   OH242248   3.536   0.548  10.510 -0.1750 -0.0924  0.0646
 6018TIP3    H142249   3.595   0.493  10.460  0.2720  0.6155 -0.2108
 6018TIP3    H242250   3.449   0.512  10.494  0.1908 -1.2319  0.5988
 6019TIP3   OH242251   7.040   2.721  11.829 -0.3696 -0.2900 -0.4269
 6019TIP3    H142252   6.975   2.744  11.896 -1.0280 -1.7564 -0.5075
 6019TIP3    H242253   6.987   2.696  11.753  0.3680  1.1606 -1.4485
 6020TIP3   OH242254   5.707   3.951  11.502 -0.6918  0.6863  0.6093
 6020TIP3    H142255   5.630   3.976  11.452 -0.2118  1.5807  0.2851
 6020TIP3    H242256   5.689   3.984  11.591 -1.6355 -1.0894  1.1191
 6021TIP3   OH242257   4.111   6.293  11.076 -0.0156  0.2152  0.2510
 6021TIP3    H142258   4.176   6.233  11.040 -0.1299  0.4310 -0.3263
 6021TIP3    H242259   4.063   6.242  11.141 -1.0252 -0.7437 -1.1849
 6022TIP3   OH242260   0.201   1.232  12.114 -0.1687  0.7541 -0.0326
 6022TIP3    H142261   0.252   1.244  12.194 -0.4102  3.3615 -0.1716
 6022TIP3    H242262   0.168   1.319  12.093 -2.7220 -0.3875 -1.2826
 6023TIP3   OH242263   7.055   5.900  11.401 -0.1528 -0.0779 -0.7481
 6023TIP3    H142264   7.101   5.837  11.457  1.8993 -0.1303 -2.3878
 6023TIP3    H242265   7.070   5.985  11.443  1.1321 -0.1437 -1.0569
 6024TIP3   OH242266   0.793   0.761  12.653 -0.7271 -0.1328 -0.3992
 6024TIP3    H142267   0.791   0.818  12.730 -1.8884 -0.1003 -0.4294
 6024TIP3    H242268   0.716   0.704  12.664  0.6246 -1.9899 -0.1571
 6025TIP3   OH242269   0.439   2.930  11.529 -0.3898 -0.3405 -0.4941
 6025TIP3    H142270   0.450   3.008  11.474  0.1661 -0.3398 -0.3898
 6025TIP3    H242271   0.523   2.921  11.574 -0.9102 -0.2105  0.5281
 6026TIP3   OH242272   4.684   6.608  12.017 -0.2672  0.3249  0.2216
 6026TIP3    H142273   4.754   6.542  12.016 -0.3830  0.1785 -1.2648
 6026TIP3    H242274   4.730   6.692  12.018  0.0369  0.2623 -1.9671
 6027TIP3   OH242275   6.579   5.863  11.902  0.0062  0.0542 -0.0738
 6027TIP3    H142276   6.563   5.815  11.822  0.7211  2.5573 -1.8551
 6027TIP3    H242277   6.524   5.941  11.895  0.1724  0.3984  1.8258
 6028TIP3   OH242278   6.869   6.844  11.348  0.5243 -0.0203  0.7103
 6028TIP3    H142279   6.903   6.928  11.316 -1.4692  0.5930  0.0709
 6028TIP3    H242280   6.879   6.784  11.273  1.0361 -0.0986  0.8380
 6029TIP3   OH242281   0.385   4.795  11.569 -0.5031 -0.1482 -0.3035
 6029TIP3    H142282   0.389   4.883  11.606 -0.6289  0.5666 -1.9146
 6029TIP3    H242283   0.379   4.737  11.645 -2.0682  1.3092  0.7506
 6030TIP3   OH242284   5.263   7.436  10.535 -0.5703 -0.4803  0.7666
 6030TIP3    H142285   5.173   7.438  10.505  0.2231  1.0057 -1.7300
 6030TIP3    H242286   5.287   7.344  10.532 -1.5418 -0.7215  0.0180
 6031TIP3   OH242287   6.937   2.526  12.216 -0.4882  0.1541 -0.3923
 6031TIP3    H142288   6.985   2.443  12.219  0.1816  0.5575  1.0128
 6031TIP3    H242289   6.952   2.565  12.302 -1.5972  1.2891 -0.6905
 6032TIP3   OH242290   7.498   0.126  11.729  0.8859  0.2283 -0.0325
 6032TIP3    H142291   7.404   0.139  11.712  1.1445  0.5977 -1.3714
 6032TIP3    H242292   7.537   0.212  11.710  1.4764  0.1133  0.6497
 6033TIP3   OH242293   3.604   3.953  10.842  0.9242  0.3628  0.2710
 6033TIP3    H142294   3.548   3.967  10.918 -0.6120  1.0222 -0.9112
 6033TIP3    H242295   3.686   3.919  10.877  0.6344  1.6081  2.2865
 6034TIP3   OH242296   4.130   1.453  12.698 -0.6907 -0.1932  0.3392
 6034TIP3    H142297   4.075   1.508  12.753 -0.1507 -0.0960  0.7936
 6034TIP3    H242298   4.219   1.486  12.712 -0.3224 -1.3301  0.8006
 6035TIP3   OH242299   1.852   0.744  11.087 -0.3218  0.3861  0.0621
 6035TIP3    H142300   1.799   0.769  11.162 -0.0513  0.9069  0.0882
 6035TIP3    H242301   1.838   0.813  11.023 -2.0857 -1.0341 -1.1725
 6036TIP3   OH242302   1.746   1.472  12.040  0.2725 -0.0482  0.5574
 6036TIP3    H142303   1.815   1.505  11.982  0.7189  1.2065  1.7494
 6036TIP3    H242304   1.789   1.407  12.094 -0.2248 -1.4715 -0.6930
 6037TIP3   OH242305   1.994   0.084  10.693  0.2936  0.1633 -0.2178
 6037TIP3    H142306   1.978   0.134  10.613  0.1167  1.2049  0.4538
 6037TIP3    H242307   2.035   0.147  10.752 -0.1696 -0.4146  0.7321
 6038TIP3   OH242308   2.052   3.640  12.207  0.0141 -0.2639  0.4345
 6038TIP3    H142309   2.084   3.711  12.262 -1.8117  0.9268  0.0463
 6038TIP3    H242310   2.075   3.560  12.254  1.8574  0.5721  1.0188
 6039TIP3   OH242311   2.924   0.567  10.643 -0.1428  0.9829 -0.3390
 6039TIP3    H142312   2.978   0.624  10.588 -0.6431  2.7389  0.8975
 6039TIP3    H242313   2.850   0.621  10.670 -1.3958 -0.6985 -0.2096
 6040TIP3   OH242314   1.253   1.864  12.797  0.6313 -0.0790  0.0133
 6040TIP3    H142315   1.271   1.955  12.819  0.6228 -0.3464  1.2053
 6040TIP3    H242316   1.323   1.815  12.841 -0.3959 -0.7795  0.9318
 6041TIP3   OH242317   6.180   1.791  10.975 -0.4929 -0.2661  0.3008
 6041TIP3    H142318   6.219   1.758  11.056 -0.0777  0.5864  0.4548
 6041TIP3    H242319   6.179   1.886  10.986 -2.6189 -0.2539  0.3006
 6042TIP3   OH242320   7.091   2.938  12.305  0.2814  0.3777 -0.1186
 6042TIP3    H142321   7.120   3.029  12.303  0.8477  0.2076  0.0912
 6042TIP3    H242322   7.054   2.926  12.393 -1.3901  0.8740 -0.7210
 6043TIP3   OH242323   7.037   6.690  11.543 -0.7753 -0.0062  0.2468
 6043TIP3    H142324   6.967   6.740  11.500 -2.0216 -0.3873  1.7208
 6043TIP3    H242325   7.114   6.747  11.538 -0.7935 -0.0966 -2.5557
 6044TIP3   OH242326   6.493   5.823  11.171 -0.2038 -0.1059  0.4136
 6044TIP3    H142327   6.556   5.871  11.225  1.2071 -0.7594 -0.6040
 6044TIP3    H242328   6.418   5.883  11.164 -0.4873 -0.0425  3.1291
 6045TIP3   OH242329   3.542   7.371  11.537  0.2776 -0.0817 -0.5395
 6045TIP3    H142330   3.575   7.315  11.466  1.2267 -0.5622  0.2432
 6045TIP3    H242331   3.596   7.450  11.532  0.7798 -0.3801  0.0213
 6046TIP3   OH242332   2.619   6.043  11.608 -0.1695 -0.3690  0.5826
 6046TIP3    H142333   2.713   6.031  11.592 -0.4469 -1.3115 -0.4574
 6046TIP3    H242334   2.576   5.982  11.548 -1.4888  0.7440  0.3286
 6047TIP3   OH242335   4.418   3.979  12.201  0.3406  0.4785 -0.0397
 6047TIP3    H142336   4.404   3.977  12.106  1.0394 -2.0021 -0.1772
 6047TIP3    H242337   4.330   3.990  12.238 -0.0542  0.5597 -0.9837
 6048TIP3   OH242338   6.328   0.371  12.847  0.4597 -0.6319 -0.0178
 6048TIP3    H142339   6.289   0.392  12.761  0.1664  2.8574  0.8228
 6048TIP3    H242340   6.253   0.366  12.906  0.8531  0.0962  0.5580
 6049TIP3   OH242341   2.434   4.117  12.253 -0.0854 -0.7117 -0.0910
 6049TIP3    H142342   2.397   4.165  12.327 -0.3284  1.5919 -1.5904
 6049TIP3    H242343   2.510   4.071  12.289 -1.3367 -1.2880  1.9525
 6050TIP3   OH242344   3.157   1.769  11.862  0.4093 -0.7307  0.1934
 6050TIP3    H142345   3.198   1.847  11.823 -2.6283  0.8069 -0.1847
 6050TIP3    H242346   3.170   1.701  11.796  2.4250 -0.4162  0.1809
 6051TIP3   OH242347   5.784   1.229  12.837  0.4361  0.0571 -0.2792
 6051TIP3    H142348   5.852   1.280  12.794  1.9577 -1.9546 -0.4309
 6051TIP3    H242349   5.784   1.145  12.791  1.7857 -2.0228  3.0977
 6052TIP3   OH242350   7.090   6.199  12.824  0.0407  0.0047  0.3559
 6052TIP3    H142351   7.085   6.130  12.757 -0.6346 -0.4858  0.8944
 6052TIP3    H242352   7.082   6.152  12.907  0.6683  0.6326  0.7792
 6053TIP3   OH242353   5.660   1.203  13.376 -0.2039 -0.2824 -0.5197
 6053TIP3    H142354   5.678   1.264  13.305  1.5187  0.4317  0.4451
 6053TIP3    H242355   5.668   1.116  13.337  1.7041  0.0843 -1.0396
 6054TIP3   OH242356   6.128   2.794  12.321  0.3051 -1.3300 -0.6051
 6054TIP3    H142357   6.139   2.887  12.340 -0.4964 -1.7131  2.1437
 6054TIP3    H242358   6.046   2.790  12.271  0.4165 -0.5586 -0.8714
 6055TIP3   OH242359   7.569   3.087  10.687 -0.4649 -0.0352 -0.2078
 6055TIP3    H142360   7.504   3.123  10.748 -0.7087 -1.0911  0.1762
 6055TIP3    H242361   7.537   3.000  10.666  0.1545 -0.0737 -1.0607
 6056TIP3   OH242362   0.362   7.256  13.391 -0.0560 -0.3137  0.4187
 6056TIP3    H142363   0.329   7.325  13.448  0.9255  1.4571 -1.0557
 6056TIP3    H242364   0.389   7.186  13.451 -1.6277  0.3121  1.9209
 6057TIP3   OH242365   5.310   0.499  13.329  0.3925 -0.2367  0.4025
 6057TIP3    H142366   5.289   0.582  13.286  2.0313 -0.2740 -0.5292
 6057TIP3    H242367   5.271   0.508  13.416 -2.1105  0.2447 -0.6792
 6058TIP3   OH242368   2.729   6.772  12.082  0.0572  0.0490  0.4966
 6058TIP3    H142369   2.696   6.812  12.002  0.0746 -0.7596  0.0782
 6058TIP3    H242370   2.818   6.805  12.090 -0.2192  0.7861  0.6398
 6059TIP3   OH242371   7.622   5.430  12.470  0.1779  0.5857  0.4841
 6059TIP3    H142372   7.529   5.451  12.482 -0.3116 -1.1587  0.0842
 6059TIP3    H242373   7.656   5.420  12.558 -1.1640 -3.1466  0.7527
 6060TIP3   OH242374   4.029   6.753  10.959  0.0142  0.0597 -0.2025
 6060TIP3    H142375   3.952   6.729  10.908 -0.7566  2.2589 -0.1700
 6060TIP3    H242376   4.090   6.788  10.893 -0.1478  0.9247  0.0926
 6061TIP3   OH242377   1.584   7.578  10.919  0.0004 -0.2586  0.2812
 6061TIP3    H142378   1.561   7.493  10.956 -1.3276  0.0512  0.2073
 6061TIP3    H242379   1.603   7.633  10.995  0.9088 -0.6156  0.3276
 6062TIP3   OH242380   3.760   6.385  11.288 -0.0300  0.2367  1.5322
 6062TIP3    H142381   3.732   6.336  11.366  1.7954 -0.4293  1.8345
 6062TIP3    H242382   3.831   6.332  11.252  0.4178  1.5017  0.4874
 6063TIP3   OH242383   5.671   2.902  13.174  0.6681  0.2706  0.8778
 6063TIP3    H142384   5.682   2.927  13.082 -1.3059 -0.9702  0.2520
 6063TIP3    H242385   5.713   2.816  13.181 -0.5601 -0.3633  0.7066
 6064TIP3   OH242386   1.587   4.304  12.299  0.1941  0.2799 -0.2918
 6064TIP3    H142387   1.529   4.375  12.328 -0.5788 -0.8109  0.9770
 6064TIP3    H242388   1.530   4.247  12.247 -0.4285 -1.6477  2.2678
 6065TIP3   OH242389   3.932   5.598  12.659 -0.1369  0.3613 -0.0914
 6065TIP3    H142390   3.986   5.675  12.677  0.1931  0.0912  0.1067
 6065TIP3    H242391   3.933   5.549  12.742  1.0385 -0.6825 -0.6745
 6066TIP3   OH242392   2.054   3.957  10.475 -0.9518  0.2848  0.2384
 6066TIP3    H142393   1.960   3.943  10.492 -1.5859  0.3709 -2.6576
 6066TIP3    H242394   2.067   3.925  10.386  1.7998  0.3506  0.5378
 6067TIP3   OH242395   6.492   2.646  11.431 -0.2089  0.0363  0.4702
 6067TIP3    H142396   6.445   2.726  11.456 -0.6557  0.3558 -1.2566
 6067TIP3    H242397   6.439   2.576  11.469 -0.1260  0.5133  1.5215
 6068TIP3   OH242398   4.553   6.236  10.971 -0.4382  0.0014  0.0178
 6068TIP3    H142399   4.532   6.144  10.956  2.2382 -0.4445 -1.5958
 6068TIP3    H242400   4.496   6.283  10.910 -0.5909 -0.7365 -0.4250
 6069TIP3   OH242401   7.204   0.315  13.407  0.0334  0.1544  0.0276
 6069TIP3    H142402   7.299   0.320  13.413  0.0409 -0.4838  0.4970
 6069TIP3    H242403   7.173   0.394  13.452  0.3468  0.6735 -0.6462
 6070TIP3   OH242404   4.927   1.752  13.329  0.0719 -0.1948 -0.0049
 6070TIP3    H142405   5.012   1.751  13.373 -0.4263 -0.2561  0.9908
 6070TIP3    H242406   4.873   1.692  13.381 -0.1671 -1.3480 -1.4960
 6071TIP3   OH242407   3.901   7.195  11.863  0.0697  0.3775 -0.3466
 6071TIP3    H142408   3.877   7.231  11.778  0.9383 -0.1847 -0.8476
 6071TIP3    H242409   3.948   7.114  11.842  1.9292  1.1662  0.5797
 6072TIP3   OH242410   4.493   2.000  12.873 -0.4716 -0.8860  0.2049
 6072TIP3    H142411   4.449   2.001  12.958 -1.5819 -1.8115 -0.3392
 6072TIP3    H242412   4.584   1.979  12.894 -0.8273 -1.5596  1.1337
 6073TIP3   OH242413   0.096   3.296  13.223 -0.4872 -0.6586  0.0055
 6073TIP3    H142414   0.095   3.388  13.196  0.9951 -0.5866  0.1043
 6073TIP3    H242415   0.019   3.258  13.181 -0.9216  0.5464 -0.3348
 6074TIP3   OH242416   7.387   4.870  12.549  0.4936 -0.0783  0.1850
 6074TIP3    H142417   7.437   4.906  12.623  1.5877 -0.2018 -0.4694
 6074TIP3    H242418   7.301   4.911  12.556  0.8016  0.4403  1.1263
 6075TIP3   OH242419   2.083   4.430  12.752 -0.1390 -0.3008 -0.1367
 6075TIP3    H142420   2.152   4.364  12.759  0.2908  0.2276  1.0054
 6075TIP3    H242421   2.115   4.491  12.686 -0.0172 -0.6496 -0.4014
 6076TIP3   OH242422   6.837   4.603  11.990  0.4994 -0.1328 -0.3001
 6076TIP3    H142423   6.828   4.631  12.081 -0.9970  0.9377 -0.7359
 6076TIP3    H242424   6.790   4.520  11.985 -0.1527  0.2246 -0.2567
 6077TIP3   OH242425   2.733   5.727  11.279 -0.3384  0.0432  0.1915
 6077TIP3    H142426   2.784   5.774  11.345  1.4434  1.4271 -2.0126
 6077TIP3    H242427   2.756   5.769  11.196 -4.0701 -0.1737 -1.1681
 6078TIP3   OH242428   4.602   0.180  12.520  0.2175  0.2154 -0.0918
 6078TIP3    H142429   4.517   0.188  12.476  0.2236  1.6671  0.1114
 6078TIP3    H242430   4.599   0.094  12.562  0.5526 -1.6839 -3.5850
 6079TIP3   OH242431   2.897   7.143  10.689  0.1755 -0.2485  0.2806
 6079TIP3    H142432   2.888   7.120  10.597 -0.1638  1.5017 -0.1566
 6079TIP3    H242433   2.812   7.124  10.728 -0.4392  1.1521 -0.3043
 6080TIP3   OH242434   0.992   0.599  11.314 -0.3917 -0.1490 -0.5000
 6080TIP3    H142435   0.938   0.523  11.294  0.1315 -0.8670  0.7037
 6080TIP3    H242436   1.056   0.602  11.243 -1.5074  0.2689 -1.5343
 6081TIP3   OH242437   4.491   7.209  11.350  0.8131  0.0468  0.8462
 6081TIP3    H142438   4.455   7.246  11.430 -1.6967 -0.0425 -0.1688
 6081TIP3    H242439   4.490   7.115  11.365 -0.3153 -0.0098  0.4753
 6082TIP3   OH242440   3.609   7.623  12.585  0.6089 -0.0253 -0.2123
 6082TIP3    H142441   3.549   7.555  12.553  0.6375 -0.2721  0.2569
 6082TIP3    H242442   3.634   7.594  12.672  1.7559 -0.1452 -0.5682
 6083TIP3   OH242443   4.737   2.951  12.493 -0.1875 -0.1436  0.1773
 6083TIP3    H142444   4.728   2.858  12.471 -0.9925 -0.7513  2.7393
 6083TIP3    H242445   4.661   2.969  12.548  0.6244  1.7221  0.7307
 6084TIP3   OH242446   4.054   3.096  10.701 -0.2202 -0.0099  0.2046
 6084TIP3    H142447   4.128   3.077  10.760 -1.2912  0.4033  1.7525
 6084TIP3    H242448   4.045   3.191  10.704 -1.5152 -0.1358  0.9567
 6085TIP3   OH242449   5.802   3.917  12.046 -0.1039  0.2737 -0.0328
 6085TIP3    H142450   5.795   3.960  12.132  0.5415  1.2177 -0.4295
 6085TIP3    H242451   5.821   3.989  11.986 -0.6696 -0.3676 -0.9889
 6086TIP3   OH242452   1.961   6.926  11.180  0.4643 -0.8616  0.0548
 6086TIP3    H142453   1.958   7.015  11.143  1.7156  1.7677  5.2940
 6086TIP3    H242454   1.884   6.921  11.236  1.1105 -2.5905  0.8559
 6087TIP3   OH242455   6.242   5.093  12.059  0.2608 -0.3169  0.3083
 6087TIP3    H142456   6.263   5.041  12.136  1.8905  0.0194  0.1298
 6087TIP3    H242457   6.288   5.050  11.987  0.9369  0.8387  0.0125
 6088TIP3   OH242458   0.687   4.375  10.792 -0.4714 -0.0247  0.0127
 6088TIP3    H142459   0.740   4.394  10.869 -1.0312 -0.7670  0.5864
 6088TIP3    H242460   0.748   4.335  10.730 -0.4688 -1.3714  0.8717
 6089TIP3   OH242461   3.398   3.897  11.078  0.4244  0.5268  0.3500
 6089TIP3    H142462   3.380   3.861  11.165  0.0152 -0.1042  0.0195
 6089TIP3    H242463   3.350   3.980  11.076  0.2407  0.4304  0.6441
 6090TIP3   OH242464   7.250   4.810  10.846  0.2690 -0.6365  0.0911
 6090TIP3    H142465   7.187   4.878  10.872  0.2604  0.3274 -2.2347
 6090TIP3    H242466   7.250   4.812  10.751  3.3064 -1.0823 -0.0269
 6091TIP3   OH242467   7.185   7.169  10.833  0.1702 -0.2721 -0.2686
 6091TIP3    H142468   7.114   7.190  10.774  1.3103  2.1101 -0.9312
 6091TIP3    H242469   7.205   7.251  10.877  2.0961 -1.0083  0.3529
 6092TIP3   OH242470   4.360   0.580  12.916  0.2404 -0.3763  0.2699
 6092TIP3    H142471   4.417   0.504  12.930 -1.2845 -1.8968 -1.3023
 6092TIP3    H242472   4.391   0.618  12.834 -1.3632 -1.6348 -0.9720
 6093TIP3   OH242473   6.801   5.308  10.893 -0.2951  0.3777  0.1821
 6093TIP3    H142474   6.733   5.332  10.956  0.2039 -0.2593  0.9811
 6093TIP3    H242475   6.860   5.383  10.893  0.8836 -0.4634  2.1480
 6094TIP3   OH242476   2.532   3.659  10.921 -0.2107  0.4800  0.1676
 6094TIP3    H142477   2.445   3.687  10.893  0.3293 -0.5964 -2.8886
 6094TIP3    H242478   2.539   3.568  10.895  2.3189  0.9176 -1.0029
 6095TIP3   OH242479   6.085   3.350  11.602  0.5937 -0.0073 -0.2580
 6095TIP3    H142480   6.119   3.261  11.610 -0.4396 -0.4382 -0.5479
 6095TIP3    H242481   6.033   3.363  11.682  0.5222  0.2445 -0.3459
 6096TIP3   OH242482   6.283   0.077  10.814 -0.2341  0.0669 -0.4450
 6096TIP3    H142483   6.306   0.075  10.907 -0.8849 -1.5013 -0.2781
 6096TIP3    H242484   6.203   0.024  10.808 -0.7214  0.9034 -1.7775
 6097TIP3   OH242485   0.906   0.871  12.435  0.4271 -0.3807 -0.2617
 6097TIP3    H142486   0.860   0.838  12.512 -0.4043  1.7745  0.2566
 6097TIP3    H242487   0.997   0.878  12.462  0.4860 -1.4433 -0.1402
 6098TIP3   OH242488   7.244   6.422  12.780 -0.3793  1.0435  0.1141
 6098TIP3    H142489   7.272   6.440  12.870 -1.8107  1.8339  0.4414
 6098TIP3    H242490   7.175   6.356  12.790  0.7202 -0.2441 -0.5808
 6099TIP3   OH242491   1.776   6.543  12.843  0.0985  0.6395 -0.5587
 6099TIP3    H142492   1.707   6.553  12.777  1.3539 -1.0131 -2.2088
 6099TIP3    H242493   1.792   6.449  12.848  0.7522  0.8066  1.4128
 6100TIP3   OH242494   1.052   0.808  11.496  0.3385  0.0399 -0.2645
 6100TIP3    H142495   1.023   0.740  11.435  1.1917 -0.7148  0.1597
 6100TIP3    H242496   1.053   0.765  11.581 -0.5275  0.9979  0.2442
 6101TIP3   OH242497   2.609   0.713  12.280  0.0753  0.1580 -0.4542
 6101TIP3    H142498   2.635   0.627  12.248 -2.1547 -0.9251  0.4869
 6101TIP3    H242499   2.533   0.737  12.227 -2.0931 -0.5325  2.1329
 6102TIP3   OH242500   2.991   4.788  12.564 -0.0548  0.6723 -0.3297
 6102TIP3    H142501   3.073   4.740  12.565 -0.3497  0.1717  0.7140
 6102TIP3    H242502   2.988   4.829  12.478  0.4996 -0.6653 -1.0109
 6103TIP3   OH242503   0.291   7.019  12.706  0.1055 -0.7011  0.1015
 6103TIP3    H142504   0.240   7.094  12.738 -0.8991 -0.7449 -1.2806
 6103TIP3    H242505   0.226   6.950  12.692  0.6969 -1.1103 -0.7053
 6104TIP3   OH242506   2.872   5.157  12.416 -0.0523  0.0977 -0.2711
 6104TIP3    H142507   2.942   5.190  12.359 -0.2409  1.5861  0.3098
 6104TIP3    H242508   2.910   5.160  12.504 -0.3584 -0.5110 -0.1128
 6105TIP3   OH242509   6.434   3.300  11.808  0.3814 -0.4064 -0.4452
 6105TIP3    H142510   6.478   3.231  11.858 -0.6436 -1.0130 -0.3503
 6105TIP3    H242511   6.506   3.354  11.773  1.1467 -0.0726  1.4966
 6106TIP3   OH242512   0.199   5.660  10.709  0.0763  0.1246  0.2308
 6106TIP3    H142513   0.261   5.732  10.691 -0.4651  0.3148 -0.9920
 6106TIP3    H242514   0.230   5.588  10.653 -0.8793  0.2792 -0.5243
 6107TIP3   OH242515   1.420   0.749  12.291 -0.2411 -0.3472  0.1416
 6107TIP3    H142516   1.337   0.779  12.255 -0.1484 -0.0068  0.2118
 6107TIP3    H242517   1.487   0.785  12.233 -0.1441 -0.6892  0.0369
 6108TIP3   OH242518   3.331   7.245  11.606 -0.1020  0.2659 -0.1107
 6108TIP3    H142519   3.414   7.291  11.590  0.4196 -0.5403  0.2227
 6108TIP3    H242520   3.264   7.308  11.578  0.6613 -0.2942 -3.8063
 6109TIP3   OH242521   6.780   0.904  11.235 -0.0983 -0.0884  0.3357
 6109TIP3    H142522   6.746   0.959  11.165  1.9973  1.7175  0.6163
 6109TIP3    H242523   6.711   0.905  11.302 -0.5840  1.2829 -0.1476
 6110TIP3   OH242524   5.967   4.896  12.454 -0.0496  0.1725 -0.0904
 6110TIP3    H142525   5.878   4.916  12.482 -0.8814 -2.1798 -0.8312
 6110TIP3    H242526   5.961   4.885  12.359  1.4286  1.6885 -0.4100
 6111TIP3   OH242527   1.918   2.301  12.181 -0.0238  0.2870  0.0130
 6111TIP3    H142528   1.824   2.281  12.182  0.2906 -1.3056  0.2537
 6111TIP3    H242529   1.960   2.218  12.204  1.5002  0.6832 -1.2072
 6112TIP3   OH242530   0.139   5.980  11.154 -0.1999  0.0550  0.7120
 6112TIP3    H142531   0.112   5.933  11.075  0.1227  0.8951  0.0870
 6112TIP3    H242532   0.153   6.070  11.124 -1.8704  0.8309  2.0996
 6113TIP3   OH242533   0.455   4.890  11.912 -0.3845  0.0200  0.2555
 6113TIP3    H142534   0.461   4.905  11.818 -0.4433 -3.7928 -0.5429
 6113TIP3    H242535   0.536   4.843  11.933 -0.2988  0.9531  2.1646
 6114TIP3   OH242536   6.479   6.873  11.675 -0.3693 -0.1062  0.5309
 6114TIP3    H142537   6.512   6.909  11.592  0.2780 -1.7167  0.0638
 6114TIP3    H242538   6.558   6.852  11.726 -0.6957 -1.3904  0.5424
 6115TIP3   OH242539   6.703   6.811  11.789  0.9415  0.3097 -0.3347
 6115TIP3    H142540   6.787   6.857  11.799  0.5354  0.9884 -0.0098
 6115TIP3    H242541   6.675   6.793  11.879  1.3288 -1.0247 -0.4541
 6116TIP3   OH242542   5.831   7.070  12.398  0.2196  0.6013  0.0528
 6116TIP3    H142543   5.823   7.036  12.487  0.3910 -2.3923 -0.9549
 6116TIP3    H242544   5.923   7.096  12.391  1.0060 -2.0054 -0.0887
 6117TIP3   OH242545   5.197   1.479  12.136  0.0050  0.5006 -0.0103
 6117TIP3    H142546   5.199   1.531  12.056  0.9135  1.7306  0.7573
 6117TIP3    H242547   5.149   1.534  12.199 -1.5060 -0.8372  0.0625
 6118TIP3   OH242548   3.991   1.958  11.167  0.0139 -0.5000  0.3336
 6118TIP3    H142549   3.912   1.943  11.218 -1.1808  1.7619 -0.7176
 6118TIP3    H242550   4.046   1.882  11.186 -1.0181 -0.6040  3.6483
 6119TIP3   OH242551   3.748   6.891  10.620  0.1199  0.4566 -0.1437
 6119TIP3    H142552   3.802   6.824  10.579 -1.2313  0.1056 -1.4685
 6119TIP3    H242553   3.658   6.858  10.612 -0.5575  2.2469 -0.5583
 6120TIP3   OH242554   1.032   5.566  11.524  0.1192  0.1172 -0.2115
 6120TIP3    H142555   0.995   5.640  11.478  1.7063  0.9864 -0.1749
 6120TIP3    H242556   0.978   5.491  11.498 -0.2052  0.9147 -1.9516
 6121TIP3   OH242557   6.664   7.648  11.136 -0.2449 -0.1237  0.3946
 6121TIP3    H142558   6.751   7.614  11.159  0.2814  0.1934 -1.0025
 6121TIP3    H242559   6.603   7.580  11.165  0.4230 -0.1584  1.7854
 6122TIP3   OH242560   5.651   6.085  12.124  0.0838  0.1575 -0.0037
 6122TIP3    H142561   5.716   6.014  12.125 -3.1640 -3.1163  0.8315
 6122TIP3    H242562   5.651   6.118  12.214  1.4073  1.1407 -0.3256
 6123TIP3   OH242563   4.142   5.372  12.593  0.8473 -0.1702 -0.0666
 6123TIP3    H142564   4.212   5.438  12.589  1.0632 -0.3818  0.1709
 6123TIP3    H242565   4.102   5.385  12.679  0.5447 -0.0003 -0.2333
 6124TIP3   OH242566   3.597   2.864  11.492 -0.0249  0.3364  0.5114
 6124TIP3    H142567   3.569   2.773  11.493 -0.2517  0.3913 -0.4647
 6124TIP3    H242568   3.534   2.909  11.436  0.4876  0.9563  0.4148
 6125TIP3   OH242569   5.119   7.373  10.847 -0.0873 -0.1564  0.3579
 6125TIP3    H142570   5.030   7.376  10.884  0.0061 -0.4236  0.6135
 6125TIP3    H242571   5.108   7.325  10.764 -0.5344  1.6815 -0.6945
 6126TIP3   OH242572   2.353   0.883  11.246 -0.0276  0.2786  0.2202
 6126TIP3    H142573   2.285   0.916  11.306 -1.2071  1.3320 -1.6026
 6126TIP3    H242574   2.413   0.957  11.235  0.4328 -0.0583  0.4335
 6127TIP3   OH242575   6.588   1.448  12.408  0.0025 -0.1591  0.6691
 6127TIP3    H142576   6.567   1.374  12.351 -0.0878  0.5064 -0.1807
 6127TIP3    H242577   6.667   1.487  12.369 -1.2191  1.5402 -0.2412
 6128TIP3   OH242578   2.336   0.061  12.356 -0.6190  0.0208 -0.0367
 6128TIP3    H142579   2.322   0.087  12.265  1.3510  0.3801 -0.2944
 6128TIP3    H242580   2.292   0.128  12.407  0.8257  1.5933 -0.7442
 6129TIP3   OH242581   3.932   1.036  12.470  0.3612 -0.6660 -0.2023
 6129TIP3    H142582   4.002   1.012  12.532 -0.2658 -1.3302  0.2700
 6129TIP3    H242583   3.964   1.005  12.385  0.5957 -1.0681  0.0281
 6130TIP3   OH242584   3.839   6.652  10.518 -0.0118 -0.0317  0.0722
 6130TIP3    H142585   3.891   6.577  10.489  0.1669 -0.0279  0.3818
 6130TIP3    H242586   3.782   6.616  10.586 -0.7243 -0.1328 -0.5658
 6131TIP3   OH242587   7.180   4.492  13.254  0.0526  0.2646  0.1007
 6131TIP3    H142588   7.186   4.554  13.182 -0.5836  0.7992  0.5066
 6131TIP3    H242589   7.249   4.428  13.235  1.0690  1.3687 -0.0418
 6132TIP3   OH242590   0.138   4.292  10.776 -0.2739 -0.1042  0.1117
 6132TIP3    H142591   0.105   4.347  10.846 -2.8342  1.5221 -2.1714
 6132TIP3    H242592   0.224   4.329  10.754 -0.6404  1.0541  0.5904
 6133TIP3   OH242593   0.518   6.609  13.861 -0.3877 -0.1021 -0.3346
 6133TIP3    H142594   0.613   6.619  13.869 -0.2971 -0.2014 -1.1334
 6133TIP3    H242595   0.481   6.679  13.914  0.0788 -1.5129  1.9562
 6134TIP3   OH242596   2.114   5.440  12.489 -0.2085  0.3598  0.0639
 6134TIP3    H142597   2.130   5.402  12.403 -1.2061 -0.2295  0.1211
 6134TIP3    H242598   2.021   5.461  12.489 -0.3132 -0.0473  1.1440
 6135TIP3   OH242599   1.307   6.735  10.740 -0.1158 -0.0968 -0.8582
 6135TIP3    H142600   1.378   6.783  10.782 -0.3949 -0.7708  0.4133
 6135TIP3    H242601   1.348   6.654  10.709 -0.6179 -1.2659  1.3604
 6136TIP3   OH242602   6.456   5.546  11.168  0.1006 -0.1186  0.1967
 6136TIP3    H142603   6.485   5.636  11.156 -1.1352  0.3163  0.3385
 6136TIP3    H242604   6.361   5.551  11.166 -0.0022 -1.3143  0.9799
 6137TIP3   OH242605   0.384   4.989  12.903  0.1300 -0.3590 -0.1638
 6137TIP3    H142606   0.420   4.993  12.814  0.2881  1.2470 -0.0510
 6137TIP3    H242607   0.441   5.045  12.955 -1.4544  0.7970  0.3952
 6138TIP3   OH242608   0.320   3.224  11.864 -0.3571  0.1116  0.0577
 6138TIP3    H142609   0.281   3.211  11.777 -0.8776  1.1630  0.1126
 6138TIP3    H242610   0.251   3.201  11.925 -0.4034  0.5337  0.1701
 6139TIP3   OH242611   5.764   7.485  12.352  0.2215  0.5126 -0.2289
 6139TIP3    H142612   5.789   7.442  12.270  2.1099  1.3093 -0.1181
 6139TIP3    H242613   5.712   7.419  12.398  0.6629 -0.6201 -1.2876
 6140TIP3   OH242614   1.328   1.508  11.059 -0.0916 -0.1180  0.3821
 6140TIP3    H142615   1.361   1.594  11.032 -0.1972 -0.0787  0.3775
 6140TIP3    H242616   1.273   1.527  11.136 -1.2796  0.0024 -0.4646
 6141TIP3   OH242617   0.415   5.523  10.485  0.1741  0.1731 -0.0830
 6141TIP3    H142618   0.472   5.524  10.408 -0.6305  0.7040 -0.6948
 6141TIP3    H242619   0.461   5.468  10.548 -0.6323 -3.1019 -2.0812
 6142TIP3   OH242620   3.231   0.518  12.573 -0.1692 -0.2743  0.6188
 6142TIP3    H142621   3.164   0.562  12.521  0.7972 -0.6773 -1.0443
 6142TIP3    H242622   3.197   0.430  12.586 -0.8069  0.0832  1.4570
 6143TIP3   OH242623   3.610   5.045  10.728 -0.2081  0.0777 -0.1397
 6143TIP3    H142624   3.607   5.126  10.677  1.5386  0.0278 -0.3504
 6143TIP3    H242625   3.697   5.043  10.766 -0.0554 -1.9179 -0.4798
 6144TIP3   OH242626   0.051   2.722  10.858  0.4228  0.2566 -0.1523
 6144TIP3    H142627   0.121   2.780  10.829  0.8806 -0.3209 -0.2313
 6144TIP3    H242628   0.067   2.710  10.952  0.5501 -0.0342 -0.2103
 6145TIP3   OH242629   2.552   4.314  13.018 -0.2409 -0.1694 -0.0846
 6145TIP3    H142630   2.551   4.388  13.078 -0.3691 -0.6930  0.5757
 6145TIP3    H242631   2.465   4.275  13.026 -0.6881  0.4636 -1.5341
 6146TIP3   OH242632   0.514   6.291  12.878 -0.1161  0.2838  0.1497
 6146TIP3    H142633   0.472   6.240  12.947 -1.8017  1.6831  0.2061
 6146TIP3    H242634   0.564   6.359  12.924 -1.0747  1.0912  0.0318
 6147TIP3   OH242635   2.582   6.503  11.950 -0.5650 -0.5037 -0.0433
 6147TIP3    H142636   2.673   6.531  11.963 -0.8471  0.1077  0.7012
 6147TIP3    H242637   2.574   6.423  12.001 -0.6464 -0.1435  0.5159
 6148TIP3   OH242638   2.144   5.124  11.742  0.2323  0.4921  0.3707
 6148TIP3    H142639   2.194   5.170  11.809  0.6303 -0.3832  0.6830
 6148TIP3    H242640   2.060   5.104  11.783  0.7500 -0.7072  0.8817
 6149TIP3   OH242641   6.128   5.283  11.070  0.1369  0.5962 -0.1119
 6149TIP3    H142642   6.148   5.347  11.002 -0.6054  0.9214 -0.0308
 6149TIP3    H242643   6.083   5.333  11.138 -1.4788 -0.2066 -0.5440
 6150TIP3   OH242644   6.824   5.003  10.996  0.1264 -0.0523 -0.2061
 6150TIP3    H142645   6.890   5.052  10.948  1.3436 -0.1043  1.3191
 6150TIP3    H242646   6.870   4.926  11.029 -0.7318 -0.2042  0.6985
 6151TIP3   OH242647   3.851   3.889  10.933 -0.7419 -0.5788  0.7172
 6151TIP3    H142648   3.863   3.822  11.000 -1.1414 -0.9630  0.4036
 6151TIP3    H242649   3.940   3.910  10.903 -0.7115 -3.3716 -1.5528
 6152TIP3   OH242650   2.577   6.571  10.559 -0.3958 -0.3991  0.2610
 6152TIP3    H142651   2.530   6.639  10.607  1.1729  0.9663 -0.0623
 6152TIP3    H242652   2.509   6.507  10.536 -2.2549  1.8117 -0.8496
 6153TIP3   OH242653   4.523   6.278  12.466 -0.1513  0.3316  0.0448
 6153TIP3    H142654   4.437   6.282  12.508 -0.9486  0.0085 -1.4878
 6153TIP3    H242655   4.584   6.260  12.538 -1.6266 -1.6977  0.8979
 6154TIP3   OH242656   2.695   0.950  11.173  0.3139  0.2707 -0.0218
 6154TIP3    H142657   2.742   1.022  11.132 -1.2795  1.1477 -0.4139
 6154TIP3    H242658   2.630   0.993  11.229  0.0674 -0.8771  0.5995
 6155TIP3   OH242659   0.880   7.505  12.921  0.5238  0.1191  0.0578
 6155TIP3    H142660   0.904   7.597  12.911  1.6317 -0.2374 -0.7795
 6155TIP3    H242661   0.801   7.507  12.976  1.6443  1.4439  1.7225
 6156TIP3   OH242662   3.758   6.944  10.948  0.5699  0.7986 -0.2655
 6156TIP3    H142663   3.781   6.937  10.855 -0.0433  0.2480 -0.3774
 6156TIP3    H242664   3.700   6.870  10.964  1.2775  0.4463  0.7481
 6157TIP3   OH242665   6.124   7.018  11.911  0.2573  0.0550  0.2885
 6157TIP3    H142666   6.142   6.926  11.929 -1.4951 -0.5233 -0.6729
 6157TIP3    H242667   6.065   7.046  11.981  1.4314  0.6981  1.0381
 6158TIP3   OH242668   2.745   1.873  11.484 -0.5776 -0.5012  0.1489
 6158TIP3    H142669   2.772   1.832  11.566 -0.5254 -0.4769  0.1440
 6158TIP3    H242670   2.721   1.962  11.509  0.0269 -0.3041  0.0416
 6159TIP3   OH242671   7.246   6.298  12.392 -0.1969 -0.1055 -0.3582
 6159TIP3    H142672   7.234   6.390  12.370  0.6962  0.3490  0.9680
 6159TIP3    H242673   7.170   6.276  12.447  0.2503  0.1990  0.3839
 6160TIP3   OH242674   1.145   3.424  10.922  0.2473  0.1660 -0.2596
 6160TIP3    H142675   1.057   3.395  10.946 -0.1191  0.8651 -0.7175
 6160TIP3    H242676   1.197   3.343  10.917 -0.3167 -0.2317  0.2098
 6161TIP3   OH242677   3.119   4.656  11.542  0.2659  0.1942  0.2292
 6161TIP3    H142678   3.128   4.741  11.499 -0.1556  0.3848  0.5133
 6161TIP3    H242679   3.203   4.642  11.586  0.7459 -0.0586 -0.7425
 6162TIP3   OH242680   1.855   5.324  12.349 -0.0009  0.2507  0.5301
 6162TIP3    H142681   1.820   5.290  12.266 -2.3158  1.8607  0.7529
 6162TIP3    H242682   1.825   5.262  12.415  2.3229 -1.3538  0.2349
 6163TIP3   OH242683   4.080   1.230  13.621  0.0110 -0.4507  0.1066
 6163TIP3    H142684   4.127   1.159  13.579  0.3910 -1.1416  1.6186
 6163TIP3    H242685   3.989   1.200  13.624  0.1018 -0.7054  0.3810
 6164TIP3   OH242686   1.920   2.662  12.720 -0.0328  0.5191  0.1298
 6164TIP3    H142687   1.997   2.700  12.761  0.6504 -0.2313 -0.4315
 6164TIP3    H242688   1.909   2.577  12.764 -0.2762  0.4314 -0.0934
 6165TIP3   OH242689   5.456   1.990  11.651 -0.3916 -0.6348  0.2734
 6165TIP3    H142690   5.378   2.046  11.652  0.4156  0.6064 -1.5062
 6165TIP3    H242691   5.431   1.915  11.597 -0.0406  0.3448 -1.3204
 6166TIP3   OH242692   1.162   7.655  11.050  0.1598 -0.2230  0.2370
 6166TIP3    H142693   1.230   7.656  10.984 -0.6351 -2.0721 -0.6828
 6166TIP3    H242694   1.170   7.740  11.095  1.5121  0.5556 -1.3833
 6167TIP3   OH242695   1.999   1.135  10.878 -0.0226  0.2173  0.4075
 6167TIP3    H142696   1.991   1.193  10.954 -2.6983  1.5142 -0.6811
 6167TIP3    H242697   2.029   1.193  10.808  1.0893 -0.6545  0.1416
 6168TIP3   OH242698   4.907   2.685  10.882  0.0545  0.0998 -0.2843
 6168TIP3    H142699   4.829   2.739  10.869 -0.1879 -0.2981 -0.4933
 6168TIP3    H242700   4.980   2.747  10.872 -0.1651  0.1142 -2.1773
 6169TIP3   OH242701   4.238   7.125  18.984  0.0733 -0.2242  0.5024
 6169TIP3    H142702   4.147   7.098  19.001  0.1904  0.2348  2.0115
 6169TIP3    H242703   4.290   7.049  19.009  0.0847 -0.9671 -1.5760
 6170TIP3   OH242704   7.117   3.956  12.823 -0.0005  0.2677  0.1338
 6170TIP3    H142705   7.112   4.051  12.831 -0.7117  0.1349  1.5627
 6170TIP3    H242706   7.187   3.931  12.883 -0.4734 -0.1790  0.5096
 6171TIP3   OH242707   2.862   6.100  12.708 -0.9362 -0.1832  0.1885
 6171TIP3    H142708   2.891   6.058  12.790 -0.4338 -0.8929 -0.3386
 6171TIP3    H242709   2.940   6.142  12.673 -1.3176  0.7455  0.4316
 6172TIP3   OH242710   2.532   5.147  12.809 -0.0036 -0.1012 -0.2584
 6172TIP3    H142711   2.465   5.154  12.876  1.0605  0.5992  0.7625
 6172TIP3    H242712   2.574   5.063  12.825  0.1610  0.0043 -0.1374
 6173TIP3   OH242713   0.534   7.219  11.281  0.1513 -0.1208 -0.3567
 6173TIP3    H142714   0.478   7.207  11.357 -0.0455  0.1498 -0.4584
 6173TIP3    H242715   0.621   7.193  11.311  0.1172  0.1898  0.0246
 6174TIP3   OH242716   6.904   1.992  12.258 -0.1325 -0.9330 -0.5138
 6174TIP3    H142717   6.951   1.956  12.183 -1.1575 -1.7468 -0.7988
 6174TIP3    H242718   6.841   1.923  12.281  0.8469 -1.1380  1.7640
 6175TIP3   OH242719   0.348   6.923  11.600  0.4713 -0.0803 -0.7190
 6175TIP3    H142720   0.392   6.853  11.552  0.6663  0.0891 -0.7872
 6175TIP3    H242721   0.307   6.878  11.674  2.1795 -0.0258  0.3211
 6176TIP3   OH242722   1.497   4.863  11.569 -0.5031  0.1097  0.0174
 6176TIP3    H142723   1.411   4.827  11.588 -0.5342  1.0883  1.9640
 6176TIP3    H242724   1.485   4.912  11.488 -0.8774 -2.6059 -1.7151
 6177TIP3   OH242725   4.089   0.777  10.721  0.3182  0.1365  0.7103
 6177TIP3    H142726   4.077   0.740  10.809 -0.9110  0.5468  0.7364
 6177TIP3    H242727   4.110   0.702  10.666 -1.1147 -0.4885  0.9593
 6178TIP3   OH242728   3.651   3.711  11.698  0.6814 -0.1158 -0.0657
 6178TIP3    H142729   3.629   3.715  11.605 -0.8771  0.0441  0.2870
 6178TIP3    H242730   3.620   3.794  11.734  0.3294 -0.6044  0.7867
 6179TIP3   OH242731   3.111   5.116  12.263  0.4228  0.4138  0.2253
 6179TIP3    H142732   3.149   5.144  12.180 -0.1144 -0.7024 -0.4125
 6179TIP3    H242733   3.188   5.095  12.317  0.7717 -0.4734 -0.5761
 6180TIP3   OH242734   0.295   3.087  12.462 -0.1442  0.1788 -0.2263
 6180TIP3    H142735   0.269   2.999  12.434 -0.9449  0.8754 -1.7556
 6180TIP3    H242736   0.218   3.122  12.507  0.0885  0.2050  0.1583
 6181TIP3   OH242737   4.644   0.980  11.004 -0.2168 -0.2747  0.6204
 6181TIP3    H142738   4.727   0.999  10.960  0.2807 -0.9123  1.2644
 6181TIP3    H242739   4.582   0.965  10.932 -0.2389  1.9483  0.0954
 6182TIP3   OH242740   2.298   3.522  11.183  0.2114  0.0737  0.0004
 6182TIP3    H142741   2.355   3.592  11.216 -2.2948  1.1478  2.4303
 6182TIP3    H242742   2.257   3.559  11.105  1.7646 -0.2151 -0.9925
 6183TIP3   OH242743   0.432   6.090  12.413  0.1894  0.0476  0.1532
 6183TIP3    H142744   0.397   6.018  12.361 -0.1287  0.1104  0.2796
 6183TIP3    H242745   0.455   6.051  12.497 -0.2590  0.1464  0.3272
 6184TIP3   OH242746   1.359   6.368  12.529 -0.1153 -0.4833  0.7506
 6184TIP3    H142747   1.338   6.353  12.437  0.8504 -2.9197  0.8422
 6184TIP3    H242748   1.274   6.371  12.572 -0.5473 -0.7217 -0.0526
 6185TIP3   OH242749   5.267   6.658  10.264 -0.1288  0.2353 -0.1061
 6185TIP3    H142750   5.221   6.730  10.309 -0.7910 -0.2403  0.0013
 6185TIP3    H242751   5.341   6.700  10.221  1.7781  0.4724  3.0906
 6186TIP3   OH242752   4.291   6.046  12.208 -0.7792  0.5096 -0.0132
 6186TIP3    H142753   4.324   5.990  12.139  1.3159 -0.0318  1.3465
 6186TIP3    H242754   4.358   6.114  12.219 -1.0745  0.6115  1.4426
 6187TIP3   OH242755   3.507   2.240  11.058 -0.7320  0.1626  0.1243
 6187TIP3    H142756   3.504   2.330  11.026  0.7521  0.5245  0.9117
 6187TIP3    H242757   3.486   2.186  10.981  0.1195  1.0999 -0.7897
 6188TIP3   OH242758   4.623   6.068  10.617 -0.1395 -0.4227 -0.1955
 6188TIP3    H142759   4.654   6.029  10.536 -0.1091 -0.4346 -0.1785
 6188TIP3    H242760   4.555   6.130  10.590  1.3082  1.1252 -0.4164
 6189TIP3   OH242761   5.443   7.654  10.548  0.2919 -0.4467  0.2684
 6189TIP3    H142762   5.373   7.591  10.531 -0.2491  0.2026  0.0513
 6189TIP3    H242763   5.500   7.647  10.472  0.1704 -0.5849  0.1885
 6190TIP3   OH242764   6.826   6.055  12.811  0.9351 -0.5099  0.2736
 6190TIP3    H142765   6.896   6.080  12.751  1.5391 -2.9238 -0.1261
 6190TIP3    H242766   6.852   5.969  12.844 -0.9637 -0.6590  1.5335
 6191TIP3   OH242767   1.560   3.574  12.363 -0.2899 -0.3193 -0.1180
 6191TIP3    H142768   1.517   3.510  12.420 -0.8197 -0.4807 -0.6858
 6191TIP3    H242769   1.640   3.598  12.409 -0.9725 -0.0284  0.9572
 6192TIP3   OH242770   4.118   5.376  12.235 -0.1726 -0.8950  0.0177
 6192TIP3    H142771   4.115   5.393  12.141  0.2376 -0.4250  0.0862
 6192TIP3    H242772   4.211   5.372  12.257 -0.1762  1.6200  0.8403
 6193TIP3   OH242773   2.819   5.610  10.988 -0.0127  0.7285  0.4728
 6193TIP3    H142774   2.753   5.664  11.030 -0.0164  0.7807  0.4010
 6193TIP3    H242775   2.902   5.646  11.020 -0.0304  0.0477  1.3214
 6194TIP3   OH242776   1.532   5.248  12.005 -0.3460 -0.4354 -0.4481
 6194TIP3    H142777   1.491   5.161  12.006  0.4103 -0.8011 -0.1355
 6194TIP3    H242778   1.482   5.299  12.068 -1.3414 -0.3748 -1.2614
 6195TIP3   OH242779   2.517   1.226  12.932  0.2163 -0.1238 -0.1007
 6195TIP3    H142780   2.442   1.276  12.964  0.5397 -0.4465  1.1817
 6195TIP3    H242781   2.593   1.272  12.966  0.5150 -1.9006  1.8451
 6196TIP3   OH242782   0.241   6.484  13.393  0.2677 -0.5270 -0.0539
 6196TIP3    H142783   0.288   6.480  13.310  1.0040  1.4544  0.2071
 6196TIP3    H242784   0.175   6.415  13.387 -0.5710  0.3686 -2.8265
 6197TIP3   OH242785   0.163   3.378  12.856  0.0662  0.0963 -0.1621
 6197TIP3    H142786   0.135   3.416  12.939  1.0570 -0.2547  0.3547
 6197TIP3    H242787   0.082   3.355  12.811 -0.4997 -1.8576  1.7030
 6198TIP3   OH242788   0.667   5.211  12.057  0.0417  0.1034  0.3504
 6198TIP3    H142789   0.599   5.144  12.052 -1.2886  1.4869 -1.4819
 6198TIP3    H242790   0.746   5.167  12.024 -0.0890 -1.3234  1.8495
 6199TIP3   OH242791   1.337   2.106  12.894  0.2249  0.1868 -0.9828
 6199TIP3    H142792   1.374   2.107  12.982 -2.4623  1.6092  0.2641
 6199TIP3    H242793   1.363   2.190  12.856 -0.2277  0.4260 -0.7731
 6200TIP3   OH242794   6.649   4.941  10.787  0.3893 -0.4412  0.0860
 6200TIP3    H142795   6.705   4.880  10.739 -0.3204 -0.5456 -0.6271
 6200TIP3    H242796   6.705   4.974  10.858  0.5579 -2.5257  0.9871
 6201TIP3   OH242797   1.577   7.058  11.063 -0.5700 -0.1505  0.1329
 6201TIP3    H142798   1.527   7.135  11.090  1.8055  0.8466  1.9995
 6201TIP3    H242799   1.637   7.090  10.996  0.0870 -0.4552  0.5612
 6202TIP3   OH242800   2.083   5.123  11.269 -0.2286  0.1271 -0.0413
 6202TIP3    H142801   2.143   5.112  11.343 -1.4683 -0.0672  0.9769
 6202TIP3    H242802   2.088   5.040  11.222  0.6946  0.3087 -0.2849
 6203TIP3   OH242803   6.465   3.348  11.221  0.0804 -0.2865 -0.2501
 6203TIP3    H142804   6.393   3.297  11.258 -1.1182  0.4730 -1.4392
 6203TIP3    H242805   6.503   3.291  11.154 -1.3423  0.3589 -1.6706
 6204TIP3   OH242806   7.179   3.630  12.874 -0.1495 -0.0131  0.4878
 6204TIP3    H142807   7.176   3.609  12.781  2.3131 -1.5220  0.6736
 6204TIP3    H242808   7.168   3.546  12.918 -0.2754  0.5365  1.5357
 6205TIP3   OH242809   2.649   4.402  10.912  0.2180  0.2674  0.0704
 6205TIP3    H142810   2.634   4.489  10.951  0.6573  0.9681 -1.2851
 6205TIP3    H242811   2.626   4.412  10.820  1.8975 -0.5928 -0.4809
 6206TIP3   OH242812   6.085   3.085  12.741  0.0061  0.2882 -0.0021
 6206TIP3    H142813   6.108   3.143  12.813 -2.3820  1.9676 -0.4414
 6206TIP3    H242814   6.031   3.017  12.780 -1.0938  1.0683 -0.0967
 6207TIP3   OH242815   2.565   1.243  11.773 -0.3566  0.1968  0.1381
 6207TIP3    H142816   2.653   1.278  11.788 -0.5725  1.0556 -0.4886
 6207TIP3    H242817   2.534   1.219  11.860  0.5922 -0.3715  0.3328
 6208TIP3   OH242818   2.052   4.897  12.018  0.3781 -0.5559  0.3939
 6208TIP3    H142819   2.090   4.881  12.104 -0.0021 -1.2466  0.4391
 6208TIP3    H242820   1.994   4.822  12.003  1.0175 -0.8487 -0.7840
 6209TIP3   OH242821   6.270   6.023  11.113  0.3522  0.1177  0.0489
 6209TIP3    H142822   6.233   6.093  11.059  2.2377  0.3695 -0.9971
 6209TIP3    H242823   6.282   6.064  11.199 -0.4060  0.4721 -0.0098
 6210TIP3   OH242824   0.246   3.776  10.546 -0.1922  0.2265  0.1813
 6210TIP3    H142825   0.176   3.837  10.566  0.1024  1.0311 -1.1077
 6210TIP3    H242826   0.204   3.707  10.494  0.0024  0.8997 -0.9103
 6211TIP3   OH242827   2.934   7.505  10.657  0.3282 -0.2080 -0.0705
 6211TIP3    H142828   2.872   7.460  10.714  1.9733  0.2474  2.2098
 6211TIP3    H242829   2.880   7.541  10.586 -1.5835 -2.1520  0.3096
 6212TIP3   OH242830   6.039   4.791  10.319 -0.3038  0.5006 -0.4437
 6212TIP3    H142831   6.109   4.746  10.367  0.3186  1.4813 -0.4087
 6212TIP3    H242832   6.028   4.739  10.240  1.5708  1.1861 -1.2103
 6213TIP3   OH242833   1.231   3.581  13.292  0.1048  0.1531 -0.3131
 6213TIP3    H142834   1.253   3.663  13.247 -1.3707 -0.1920 -1.7562
 6213TIP3    H242835   1.284   3.514  13.249  0.7061  0.2223  0.3144
 6214TIP3   OH242836   2.902   5.265  10.559  0.0248  0.9194 -0.2441
 6214TIP3    H142837   2.875   5.258  10.650 -1.4372 -0.1846 -0.7241
 6214TIP3    H242838   2.938   5.353  10.551  1.4686  0.5558  1.6988
 6215TIP3   OH242839   6.191   1.030  13.202 -0.2130  0.3662  0.8520
 6215TIP3    H142840   6.212   1.123  13.210 -1.1915  0.6073  0.8130
 6215TIP3    H242841   6.113   1.028  13.146  1.9646 -0.7370 -2.4604
 6216TIP3   OH242842   0.080   0.889  11.628 -0.4268  0.2830  0.3148
 6216TIP3    H142843   0.137   0.922  11.558 -0.1404 -0.9707 -0.0639
 6216TIP3    H242844   0.140   0.871  11.701 -0.7098  1.4722  0.8696
 6217TIP3   OH242845   2.815   6.839  10.798 -0.6415  0.8385  0.8867
 6217TIP3    H142846   2.834   6.843  10.891  0.4614 -0.8576  0.7771
 6217TIP3    H242847   2.788   6.928  10.774  0.2344  1.5744  2.5537
 6218TIP3   OH242848   5.080   4.560  12.022  0.1533 -0.4528 -0.1617
 6218TIP3    H142849   5.133   4.482  12.002  0.2446 -0.6582  0.8460
 6218TIP3    H242850   5.134   4.633  11.992  0.0434 -0.7682 -1.1711
 6219TIP3   OH242851   2.769   7.276  12.213 -0.3972 -0.2741 -0.4095
 6219TIP3    H142852   2.808   7.362  12.227  0.2282 -0.6515  0.2119
 6219TIP3    H242853   2.709   7.289  12.139  1.7924  0.0624 -2.2371
 6220TIP3   OH242854   2.102   2.113  11.729 -0.2229 -0.3116  0.5934
 6220TIP3    H142855   2.012   2.086  11.746  0.0900 -0.5144  2.0584
 6220TIP3    H242856   2.106   2.203  11.762  0.4252 -0.7340  1.7076
 6221TIP3   OH242857   3.719   3.022  11.171 -0.0651  0.2074  0.2488
 6221TIP3    H142858   3.792   2.987  11.121  0.1006 -0.7574  1.1210
 6221TIP3    H242859   3.724   2.977  11.256 -0.3342  1.7704  1.1428
 6222TIP3   OH242860   4.011   3.798  11.828 -0.3251  0.4373 -0.4535
 6222TIP3    H142861   3.930   3.842  11.855  1.2899  1.7423  2.8356
 6222TIP3    H242862   4.000   3.708  11.857 -0.2342  0.8691  0.9956
 6223TIP3   OH242863   5.541   3.551  12.605  0.3268 -0.7050  0.3291
 6223TIP3    H142864   5.634   3.565  12.624  0.8653 -0.5447 -2.1015
 6223TIP3    H242865   5.532   3.456  12.599  0.8825 -0.6902 -1.5348
 6224TIP3   OH242866   6.826   2.399  11.722  0.3560  0.3080  0.0048
 6224TIP3    H142867   6.768   2.458  11.770  0.5033 -0.0137  0.5830
 6224TIP3    H242868   6.766   2.346  11.669  0.0974 -0.1383  0.7247
 6225TIP3   OH242869   7.490   2.036  11.497 -0.3653 -0.6633  0.3534
 6225TIP3    H142870   7.483   2.091  11.575 -1.1998 -0.2446 -0.0027
 6225TIP3    H242871   7.434   1.961  11.516  0.7249 -1.3850  0.8147
 6226TIP3   OH242872   7.039   1.969  11.139  0.3143  0.3041  0.2124
 6226TIP3    H142873   7.132   1.962  11.117  0.2266 -2.5192  0.3393
 6226TIP3    H242874   7.036   1.968  11.234  0.2051  2.1079  0.2457
 6227TIP3   OH242875   1.550   5.835  11.033 -0.2206 -0.4226 -1.0830
 6227TIP3    H142876   1.549   5.924  11.067 -0.9957  0.1711 -2.5305
 6227TIP3    H242877   1.562   5.779  11.110  0.9896  0.9473 -0.2348
 6228TIP3   OH242878   6.818   1.629  11.829  0.9410  0.5395 -0.7587
 6228TIP3    H142879   6.824   1.688  11.904 -1.5707  0.7653 -0.6380
 6228TIP3    H242880   6.865   1.550  11.857  1.2706  1.1561  0.5030
 6229TIP3   OH242881   6.221   6.178  10.877  0.1389 -0.4479 -0.2695
 6229TIP3    H142882   6.292   6.214  10.824 -1.1205  0.2971 -1.5354
 6229TIP3    H242883   6.141   6.213  10.836 -0.9821 -1.7347  0.7371
 6230TIP3   OH242884   1.191   4.069  11.735  0.2832 -0.5203  0.2703
 6230TIP3    H142885   1.275   4.025  11.721  0.5861  0.6933 -2.3151
 6230TIP3    H242886   1.213   4.163  11.733 -0.7722 -0.1700  2.4750
 6231TIP3   OH242887   3.901   7.169  12.146 -0.6040  0.0757  0.1912
 6231TIP3    H142888   3.904   7.191  12.053  0.7829 -0.0731  0.1699
 6231TIP3    H242889   3.825   7.112  12.155 -0.1655 -0.7589 -1.0705
 6232TIP3   OH242890   2.053   3.582  11.301  0.1525  0.1013  0.0107
 6232TIP3    H142891   2.107   3.569  11.379  0.2018 -0.4999 -0.1117
 6232TIP3    H242892   2.108   3.551  11.229  0.0612  0.5425 -0.2456
 6233TIP3   OH242893   5.243   6.846  12.567 -0.1970 -0.0628 -0.2770
 6233TIP3    H142894   5.294   6.789  12.625 -0.0450  1.2787  0.9712
 6233TIP3    H242895   5.246   6.802  12.482  3.0612 -0.0977 -0.2850
 6234TIP3   OH242896   6.114   0.687  13.152 -0.5206  0.0068  0.5162
 6234TIP3    H142897   6.068   0.603  13.156 -1.2393  0.3871  0.4568
 6234TIP3    H242898   6.063   0.738  13.089  1.0104 -0.1599 -0.9158
 6235TIP3   OH242899   1.621   4.793  10.684  0.4699  0.0673 -0.5428
 6235TIP3    H142900   1.547   4.854  10.691  1.3601  1.3662 -1.9552
 6235TIP3    H242901   1.695   4.847  10.657  1.9854 -1.2015  0.8485
 6236TIP3   OH242902   6.414   4.251  10.709  0.0666 -0.7040 -0.0620
 6236TIP3    H142903   6.397   4.275  10.618  1.3343  1.1560  0.1348
 6236TIP3    H242904   6.336   4.280  10.757  0.7334  1.4005 -0.1345
 6237TIP3   OH242905   4.322   7.381  12.755  0.1212 -0.0078 -0.9415
 6237TIP3    H142906   4.327   7.361  12.661 -1.4551 -0.6655 -0.9131
 6237TIP3    H242907   4.244   7.336  12.785 -0.8935  2.3197  0.1653
 6238TIP3   OH242908   7.183   1.563  12.624  0.3152  0.5665 -0.1664
 6238TIP3    H142909   7.272   1.585  12.652 -0.4809  1.1353  2.1930
 6238TIP3    H242910   7.168   1.475  12.659 -0.0321  0.4594 -0.5894
 6239TIP3   OH242911   2.554   6.316  12.216  0.2980  0.4176  0.1374
 6239TIP3    H142912   2.621   6.384  12.218  1.9691 -1.1630  0.9512
 6239TIP3    H242913   2.602   6.236  12.194 -1.5163 -0.6000 -0.3462
 6240TIP3   OH242914   1.211   0.245  10.798  0.5448 -0.0457 -0.3537
 6240TIP3    H142915   1.191   0.292  10.717  1.3926  2.5162  0.7830
 6240TIP3    H242916   1.147   0.174  10.802  0.2297 -0.0052 -3.0296
 6241TIP3   OH242917   0.916   2.298  10.837 -0.5432  0.0870  0.4401
 6241TIP3    H142918   0.918   2.215  10.789  0.8611  0.6858 -0.5940
 6241TIP3    H242919   1.003   2.306  10.875 -0.1905  1.7306 -0.6209
 6242TIP3   OH242920   1.722   6.960  13.325 -0.1693  0.3651 -0.8938
 6242TIP3    H142921   1.798   6.932  13.274  1.5861  1.1069  1.1575
 6242TIP3    H242922   1.728   7.056  13.325  0.8082  0.3873  1.8509
 6243TIP3   OH242923   6.235   5.584  13.105 -0.0212  0.8072 -0.1665
 6243TIP3    H142924   6.262   5.523  13.037 -1.3203  1.2300 -1.1020
 6243TIP3    H242925   6.281   5.666  13.085  1.5370  0.2532  0.9522
 6244TIP3   OH242926   7.006   2.662  10.839 -0.6713 -0.5941  0.1093
 6244TIP3    H142927   7.064   2.670  10.762 -1.9967  0.6506 -0.8188
 6244TIP3    H242928   7.055   2.606  10.900  1.7716  0.8532 -0.3660
 6245TIP3   OH242929   1.830   4.932  12.976  0.3548  0.1948  0.5042
 6245TIP3    H142930   1.778   4.852  12.966 -1.0019  0.8406  2.0127
 6245TIP3    H242931   1.896   4.926  12.907  0.7639 -2.5775  1.0301
 6246TIP3   OH242932   3.785   0.642  12.491 -0.3180 -0.0757  0.5553
 6246TIP3    H142933   3.757   0.563  12.537  0.4578  0.3287  1.7665
 6246TIP3    H242934   3.725   0.710  12.520  0.0152  0.1282  0.7713
 6247TIP3   OH242935   2.299   4.271  12.732 -0.0296  0.2722 -0.5356
 6247TIP3    H142936   2.311   4.211  12.806 -0.1077  0.0259 -0.7204
 6247TIP3    H242937   2.388   4.294  12.706 -0.0048  0.7614 -0.0473
 6248TIP3   OH242938   7.242   4.793  11.184  0.3330  0.0960  0.2790
 6248TIP3    H142939   7.305   4.864  11.197  0.7397 -0.1378 -0.3883
 6248TIP3    H242940   7.206   4.808  11.097  0.0873 -0.2553  0.3177
 6249TIP3   OH242941   7.661   1.870  12.367 -0.3902 -0.4838 -0.3694
 6249TIP3    H142942   7.747   1.876  12.325 -0.1451  2.2634  0.3099
 6249TIP3    H242943   7.599   1.884  12.296 -0.1654 -0.3888 -0.5497
 6250TIP3   OH242944   1.854   0.922  11.357  0.0864 -0.7184  0.0506
 6250TIP3    H142945   1.856   0.912  11.452  1.5319  1.9517  0.4123
 6250TIP3    H242946   1.766   0.897  11.332 -1.6154  2.0389  2.6252
 6251TIP3   OH242947   4.310   6.442  10.342  0.0946 -0.7890  1.2153
 6251TIP3    H142948   4.249   6.488  10.401  0.8056  0.2166  1.1801
 6251TIP3    H242949   4.301   6.350  10.367 -0.4526 -0.5072  2.1333
 6252TIP3   OH242950   2.223   0.312  12.542  0.4188 -0.0877 -0.1583
 6252TIP3    H142951   2.132   0.310  12.512  0.1117  3.1115  0.1951
 6252TIP3    H242952   2.218   0.302  12.637 -0.0158  3.1777  0.2878
 6253TIP3   OH242953   6.804   7.074  13.005  0.2317  0.0929 -0.4563
 6253TIP3    H142954   6.805   7.158  12.959  0.2936  0.2534 -0.1611
 6253TIP3    H242955   6.841   7.093  13.091 -0.3631 -0.1002 -0.1526
 6254TIP3   OH242956   0.949   5.920  11.184 -0.3755  0.1894 -0.1221
 6254TIP3    H142957   0.862   5.940  11.148 -0.5305  1.0268  0.6767
 6254TIP3    H242958   0.982   6.005  11.214  1.6155  0.2655 -2.2635
 6255TIP3   OH242959   0.147   3.110  11.231 -0.3207  0.1740  0.0658
 6255TIP3    H142960   0.220   3.078  11.177  1.0336  1.8079  0.7976
 6255TIP3    H242961   0.186   3.182  11.282 -1.7085 -0.8216  2.7069
 6256TIP3   OH242962   3.667   1.670  12.651 -0.4648  0.2725  0.3017
 6256TIP3    H142963   3.653   1.636  12.739  0.6160 -0.9932  0.0218
 6256TIP3    H242964   3.758   1.701  12.652 -0.3844  0.0912 -0.3967
 6257TIP3   OH242965   0.538   4.954  12.636 -0.2630  0.4641  0.0573
 6257TIP3    H142966   0.591   4.980  12.560 -1.6025  1.5798 -0.5426
 6257TIP3    H242967   0.523   4.861  12.624  2.6984 -0.2325  1.0020
 6258TIP3   OH242968   0.331   0.158  10.627  0.3254 -0.1911 -0.2116
 6258TIP3    H142969   0.278   0.121  10.697 -2.8014  1.0196 -1.7191
 6258TIP3    H242970   0.341   0.086  10.564 -1.6241  0.0861 -0.9361
 6259TIP3   OH242971   4.821   1.513  11.087  0.3470 -0.7044  0.1121
 6259TIP3    H142972   4.775   1.512  11.003  1.4097 -1.2396 -0.4793
 6259TIP3    H242973   4.765   1.463  11.146  1.0898 -3.1320 -1.1174
 6260TIP3   OH242974   2.622   0.026  10.897  0.2232 -0.2539 -0.1123
 6260TIP3    H142975   2.540   0.011  10.945  0.0175  0.5546 -0.1920
 6260TIP3    H242976   2.606   0.107  10.848  0.3770 -1.1413 -1.6735
 6261TIP3   OH242977   6.404   2.012  11.265  0.6497 -0.0897 -0.1427
 6261TIP3    H142978   6.448   2.096  11.276  1.3335 -0.3187 -1.0240
 6261TIP3    H242979   6.467   1.957  11.219  0.2672 -1.1436  0.5507
 6262TIP3   OH242980   6.481   2.359  12.574  0.1808 -0.1599 -0.2321
 6262TIP3    H142981   6.467   2.452  12.557 -1.7317 -0.0885  1.3646
 6262TIP3    H242982   6.575   2.352  12.592  0.4340  1.3730 -0.8439
 6263TIP3   OH242983   5.575   7.505  10.883  0.2140  0.2110  0.1082
 6263TIP3    H142984   5.522   7.484  10.960  0.1888 -0.4287 -0.0791
 6263TIP3    H242985   5.563   7.599  10.871 -1.0022  0.0600 -0.0077
 6264TIP3   OH242986   2.485   4.306  10.567  0.0447  0.1958 -0.2353
 6264TIP3    H142987   2.483   4.291  10.473  0.1319  2.7813 -0.7482
 6264TIP3    H242988   2.546   4.380  10.578  0.3257 -0.2858  1.8976
 6265TIP3   OH242989   0.502   3.177  11.383 -0.2181 -0.0317  0.0751
 6265TIP3    H142990   0.549   3.188  11.300 -0.3010 -1.2020 -0.1375
 6265TIP3    H242991   0.571   3.181  11.449 -0.0763  0.2744 -0.0845
 6266TIP3   OH242992   4.285   0.603  10.886  0.4358  0.6266  0.5664
 6266TIP3    H142993   4.301   0.516  10.849  0.0578  1.0974 -0.7440
 6266TIP3    H242994   4.193   0.602  10.912  0.7601  0.2172  1.7564
 6267TIP3   OH242995   1.772   6.532  10.970  0.6002 -0.1246 -0.1408
 6267TIP3    H142996   1.688   6.528  11.016  1.6274  1.0922  2.0126
 6267TIP3    H242997   1.813   6.447  10.986  1.8165  0.9221  3.2113
 6268TIP3   OH242998   0.741   0.100  12.233  0.1636  0.4108 -0.2492
 6268TIP3    H142999   0.669   0.037  12.228  0.6057 -0.3883  2.1522
 6268TIP3    H243000   0.820   0.046  12.245  0.6610  1.3734  1.0345
 6269TIP3   OH243001   4.788   7.569  12.345  0.1119  0.0634 -0.6436
 6269TIP3    H143002   4.844   7.561  12.267 -1.2958  1.4925 -1.8705
 6269TIP3    H243003   4.817   7.649  12.388  2.1911 -1.7048  1.4983
 6270TIP3   OH243004   1.190   5.371  11.124 -0.4045  0.3594  0.0663
 6270TIP3    H143005   1.260   5.413  11.175 -0.5361 -0.7118  1.1967
 6270TIP3    H243006   1.166   5.436  11.058  0.2212  1.5632  0.9725
 6271TIP3   OH243007   6.841   6.193  13.160  0.2605  0.6149  1.0643
 6271TIP3    H143008   6.761   6.229  13.124  1.1755  0.1685 -1.7079
 6271TIP3    H243009   6.820   6.102  13.179 -0.5236  1.1161  2.7760
 6272TIP3   OH243010   1.841   1.929  11.149 -0.3382 -0.1173  0.1992
 6272TIP3    H143011   1.761   1.982  11.143 -1.5488 -1.6381  1.7782
 6272TIP3    H243012   1.912   1.993  11.145 -1.6924  1.5497  1.1848
 6273TIP3   OH243013   0.778   2.889  11.265 -0.0880 -0.3860 -0.3517
 6273TIP3    H143014   0.814   2.912  11.351  1.0029  0.7661 -1.0730
 6273TIP3    H243015   0.739   2.970  11.234  1.6229 -0.0947 -1.9084
 6274TIP3   OH243016   3.535   1.372  11.005  0.3337 -0.2580  0.2575
 6274TIP3    H143017   3.467   1.305  11.010  1.1496 -1.1396 -0.1302
 6274TIP3    H243018   3.512   1.424  10.929  0.0618 -0.5168  0.1587
 6275TIP3   OH243019   4.953   4.347  13.318  0.1898 -0.7053  0.5282
 6275TIP3    H143020   4.886   4.346  13.250 -0.0751  0.7503  0.7487
 6275TIP3    H243021   5.013   4.276  13.293  0.2940  0.0161 -1.4120
 6276TIP3   OH243022   5.175   7.029  10.535  0.3919  0.0719 -0.0877
 6276TIP3    H143023   5.241   7.095  10.514  0.4296 -0.0906 -0.4857
 6276TIP3    H243024   5.224   6.948  10.545  0.2190 -0.1159 -0.7151
 6277TIP3   OH243025   3.157   0.756  10.651  0.2254 -0.1583  0.0096
 6277TIP3    H143026   3.176   0.666  10.623  0.6693  0.1339 -0.6492
 6277TIP3    H243027   3.166   0.753  10.746  1.1914 -0.5957 -0.0845
 6278TIP3   OH243028   3.512   3.409  12.654 -0.2889  0.5594 -0.3400
 6278TIP3    H143029   3.596   3.374  12.622 -0.2235 -0.0946  0.5092
 6278TIP3    H243030   3.508   3.381  12.745  0.4047  3.9343  0.8659
 6279TIP3   OH243031   5.202   4.336  11.472  0.0158 -0.4561  0.1660
 6279TIP3    H143032   5.137   4.273  11.503  1.2043 -1.0083  1.6487
 6279TIP3    H243033   5.230   4.301  11.387  0.0321 -1.4752  0.5723
 6280TIP3   OH243034   0.247   0.735  10.433 -0.2701 -0.6888 -0.0679
 6280TIP3    H143035   0.335   0.731  10.472 -0.9563 -2.5286  1.4580
 6280TIP3    H243036   0.262   0.736  10.339  1.3927 -1.1320  0.1607
 6281TIP3   OH243037   6.630   6.502  11.901  0.1166 -0.5429 -0.8069
 6281TIP3    H143038   6.684   6.436  11.945  2.3068  1.3271 -0.5197
 6281TIP3    H243039   6.603   6.460  11.819  2.1506 -1.5614 -1.0230
 6282TIP3   OH243040   1.379   0.564  11.610  0.7499 -0.5536  0.4895
 6282TIP3    H143041   1.284   0.575  11.602  0.8947  0.9615  0.5781
 6282TIP3    H243042   1.392   0.532  11.699  0.3661 -0.1375  0.6981
 6283TIP3   OH243043   5.437   0.570  12.540 -0.5820 -0.3227  0.2833
 6283TIP3    H143044   5.441   0.476  12.553  0.3571 -0.3424 -0.0552
 6283TIP3    H243045   5.368   0.600  12.599  0.8161 -0.9076  2.3589
 6284TIP3   OH243046   7.173   4.718  13.100  0.2255 -0.2953  0.4828
 6284TIP3    H143047   7.127   4.668  13.032 -1.0245  3.1538 -1.4536
 6284TIP3    H243048   7.250   4.753  13.057  1.2281 -0.6970  1.8656
 6285TIP3   OH243049   4.421   2.337  11.814 -0.1359  0.8358  0.1112
 6285TIP3    H143050   4.410   2.242  11.820  0.4931  0.7150 -0.4120
 6285TIP3    H243051   4.332   2.372  11.815 -0.3427  0.3344  1.4940
 6286TIP3   OH243052   5.256   6.064  10.394  0.0914  0.2973 -0.1626
 6286TIP3    H143053   5.263   6.087  10.486 -2.5782  1.3533 -0.1446
 6286TIP3    H243054   5.298   6.137  10.348  0.7503  0.1314  0.1574
 6287TIP3   OH243055   3.133   7.274  10.728  1.2449 -0.0635 -0.2997
 6287TIP3    H143056   3.087   7.358  10.726  1.7582  0.3734  2.2831
 6287TIP3    H243057   3.063   7.209  10.722  0.7079  0.5474 -0.9128
 6288TIP3   OH243058   3.412   5.527  10.515  0.1258  0.6119 -0.4035
 6288TIP3    H143059   3.345   5.506  10.580  1.0570 -0.0600  0.3684
 6288TIP3    H243060   3.397   5.619  10.494 -0.9112  0.5229 -0.1033
 6289TIP3   OH243061   0.773   0.982  10.922 -0.4618  0.2435  0.2315
 6289TIP3    H143062   0.706   1.041  10.957 -1.7650 -2.0346  1.8822
 6289TIP3    H243063   0.782   0.914  10.989  3.2324  0.1752 -0.1386
 6290TIP3   OH243064   3.271   4.067  11.846 -0.1548  0.2460  0.6129
 6290TIP3    H143065   3.329   4.105  11.780 -1.6068  0.3167 -0.6639
 6290TIP3    H243066   3.273   3.973  11.827 -1.3919  0.3692 -0.2632
 6291TIP3   OH243067   6.817   0.009  12.913  0.1316 -0.3197 -0.7266
 6291TIP3    H143068   6.767  -0.044  12.852  1.0483  0.3254 -2.0913
 6291TIP3    H243069   6.754   0.070  12.950 -0.2663 -0.0336 -1.8330
 6292TIP3   OH243070   7.562   0.955  12.098 -0.5386  0.0501 -0.2215
 6292TIP3    H143071   7.589   1.001  12.018  0.8282  0.6808  0.5767
 6292TIP3    H243072   7.503   1.016  12.142  0.7159  0.7663  0.4892
 6293TIP3   OH243073   6.816   7.324  12.886  0.1989 -0.7191 -0.1429
 6293TIP3    H143074   6.888   7.379  12.855  1.1524 -1.2397  1.0923
 6293TIP3    H243075   6.739   7.380  12.878  0.4689 -0.6394 -2.8357
 6294TIP3   OH243076   6.028   4.896  11.195  0.4804  0.7121  0.0913
 6294TIP3    H143077   6.073   4.923  11.275 -0.8170 -0.4789  1.2908
 6294TIP3    H243078   5.978   4.973  11.168  1.9838  1.5513 -0.3810
 6295TIP3   OH243079   2.402   6.199  10.792  0.2076 -0.3284 -0.0889
 6295TIP3    H143080   2.349   6.253  10.734  0.9754  1.2173  0.5850
 6295TIP3    H243081   2.438   6.261  10.855 -0.6224 -1.9473  2.0771
 6296TIP3   OH243082   7.414   1.574  13.437 -0.4775  0.3883 -0.0186
 6296TIP3    H143083   7.331   1.619  13.421 -0.6651 -0.1102 -0.4813
 6296TIP3    H243084   7.389   1.482  13.445 -0.0895  0.3534  0.8338
 6297TIP3   OH243085   1.720   3.977  10.896  0.6795  0.3794  0.1220
 6297TIP3    H143086   1.710   4.038  10.969  0.9187  0.0894  0.4019
 6297TIP3    H243087   1.776   4.022  10.834  0.6149  0.5598  0.1936
 6298TIP3   OH243088   3.969   0.765  11.195  0.1555 -0.0128  0.1682
 6298TIP3    H143089   3.938   0.756  11.285  0.4041 -1.8817  0.0945
 6298TIP3    H243090   3.921   0.841  11.161 -0.8723 -0.0436  1.4755
 6299TIP3   OH243091   6.267   3.973  10.798 -0.3520  0.1547  0.5745
 6299TIP3    H143092   6.288   4.066  10.789 -0.8808  0.1754 -0.6297
 6299TIP3    H243093   6.305   3.947  10.882  2.9111  0.6215 -0.6348
 6300TIP3   OH243094   6.309   6.536  13.099 -0.7162 -0.1135 -0.2654
 6300TIP3    H143095   6.231   6.500  13.141 -0.7565  0.6786  0.3666
 6300TIP3    H243096   6.377   6.529  13.166 -0.6838  0.7951 -0.1899
 6301TIP3   OH243097   6.092   7.452  12.476 -0.6340 -0.4719 -0.0653
 6301TIP3    H143098   6.172   7.494  12.508 -0.7911 -0.3072  0.1128
 6301TIP3    H243099   6.027   7.522  12.476 -0.5449 -0.3839 -1.1040
 6302TIP3   OH243100   3.488   5.745  12.494  0.3444  0.1111  0.4481
 6302TIP3    H143101   3.541   5.822  12.475 -0.4731  0.5015 -0.3463
 6302TIP3    H243102   3.547   5.686  12.542  0.5286  1.8628  2.5030
 6303TIP3   OH243103   5.414   6.472  12.549 -0.2075  0.2410  0.2710
 6303TIP3    H143104   5.496   6.473  12.498 -0.5663  1.2166 -0.3003
 6303TIP3    H243105   5.422   6.546  12.608 -1.1180  0.9706 -0.5027
 6304TIP3   OH243106   0.347   1.034  11.901  0.2410  0.7881  0.1234
 6304TIP3    H143107   0.338   0.939  11.898  1.2380  0.6346  1.2076
 6304TIP3    H243108   0.440   1.049  11.918  0.4623  2.0227 -1.8290
 6305TIP3   OH243109   3.036   5.979  10.683  0.1682  0.1644 -0.4289
 6305TIP3    H143110   2.982   6.005  10.757  0.3571 -1.8497  0.4936
 6305TIP3    H243111   2.972   5.953  10.616 -0.0015  0.7529 -0.4986
 6306TIP3   OH243112   7.337   1.576  11.206 -0.4645 -0.3481 -0.4983
 6306TIP3    H143113   7.301   1.509  11.148  0.4541 -2.2811  1.0228
 6306TIP3    H243114   7.390   1.632  11.150 -1.9591 -0.3260 -1.9661
 6307TIP3   OH243115   6.345   6.802  11.909  0.6299  0.2090 -0.4012
 6307TIP3    H143116   6.434   6.786  11.943  0.2322 -2.4601 -0.3497
 6307TIP3    H243117   6.357   6.811  11.815  0.9271 -1.0026 -0.5020
 6308TIP3   OH243118   7.397   0.452  12.070 -0.7095  0.2743  0.5809
 6308TIP3    H143119   7.475   0.397  12.081 -0.5624 -0.2531 -2.3238
 6308TIP3    H243120   7.431   0.541  12.064 -0.7914  0.5952  3.4504
 6309TIP3   OH243121   7.364   0.299  12.950  0.8672 -0.3165 -0.4385
 6309TIP3    H143122   7.333   0.328  12.865 -1.1831 -0.9619  0.0259
 6309TIP3    H243123   7.374   0.379  13.001 -1.9627 -0.1235 -0.0461
 6310TIP3   OH243124   4.388   1.737  10.639 -0.0851 -0.6672  0.4037
 6310TIP3    H143125   4.467   1.791  10.651 -0.4148 -0.0893  0.0404
 6310TIP3    H243126   4.315   1.797  10.657 -0.5003 -0.6349 -1.2253
 6311TIP3   OH243127   1.101   0.277  13.498 -0.2026 -0.0393 -0.6769
 6311TIP3    H143128   1.012   0.265  13.466 -0.3578 -0.4936 -0.0812
 6311TIP3    H243129   1.155   0.271  13.419 -0.5061 -2.1022 -0.7868
 6312TIP3   OH243130   5.799   5.580  12.360 -0.1770  0.1318  0.4685
 6312TIP3    H143131   5.805   5.572  12.264 -2.1138 -0.0050  0.3129
 6312TIP3    H243132   5.795   5.674  12.375  1.9006  0.2413  0.5989
 6313TIP3   OH243133   0.857   6.532  13.295 -0.0477  0.3771 -0.5011
 6313TIP3    H143134   0.948   6.537  13.268 -0.0800 -1.3338 -1.0958
 6313TIP3    H243135   0.856   6.564  13.385  0.8403  1.9167 -1.0050
 6314TIP3   OH243136   2.245   2.460  12.448  0.1694  0.1940  0.4535
 6314TIP3    H143137   2.246   2.545  12.493 -0.9191 -1.3715  3.8121
 6314TIP3    H243138   2.153   2.444  12.430  0.2433 -0.7232  0.8459
 6315TIP3   OH243139   7.538   3.203  13.101  0.0859  0.4931  0.3059
 6315TIP3    H143140   7.460   3.259  13.102 -0.8937 -0.7637 -0.9338
 6315TIP3    H243141   7.504   3.114  13.107  1.4873 -0.0543  0.5515
 6316TIP3   OH243142   1.240   5.201  11.851  0.5465  0.8725 -0.3476
 6316TIP3    H143143   1.216   5.293  11.837  0.6554  1.0171  0.4136
 6316TIP3    H243144   1.214   5.158  11.769  1.0509  1.6827 -0.9561
 6317TIP3   OH243145   5.318   6.799  10.516  0.2941 -1.0511  0.0987
 6317TIP3    H143146   5.276   6.714  10.524 -0.3980 -0.8393 -1.0324
 6317TIP3    H243147   5.410   6.782  10.536  0.1829 -2.0805 -0.1972
 6318TIP3   OH243148   0.816   0.171  10.724  0.2665 -0.3262  0.4209
 6318TIP3    H143149   0.807   0.184  10.818  1.0446 -0.4083  0.5157
 6318TIP3    H243150   0.905   0.136  10.713  0.1989 -0.2803 -0.3459
 6319TIP3   OH243151   6.901   3.150  12.204 -0.3681 -0.3168  0.0713
 6319TIP3    H143152   6.837   3.207  12.246 -1.8402 -0.5012 -1.7715
 6319TIP3    H243153   6.852   3.070  12.183  0.6083 -0.6860 -0.9082
 6320TIP3   OH243154   3.956   2.841  10.723  0.0719  0.3958  0.0264
 6320TIP3    H143155   3.965   2.932  10.692  2.0476  0.3113  0.2341
 6320TIP3    H243156   4.029   2.795  10.682 -1.7182 -1.4907 -1.2436
 6321TIP3   OH243157   5.411   3.118  11.636  0.1242  0.4691  0.8171
 6321TIP3    H143158   5.385   3.154  11.552 -0.4173 -0.7904  0.4188
 6321TIP3    H243159   5.427   3.195  11.691  0.2728  1.3050 -0.3541
 6322TIP3   OH243160   4.643   5.495  11.836  0.1757  0.0875 -0.9297
 6322TIP3    H143161   4.704   5.548  11.887  0.5983 -0.1650 -1.1700
 6322TIP3    H243162   4.586   5.454  11.902  0.7876 -0.3244 -0.6443
 6323TIP3   OH243163   4.120   7.624  10.950  0.6334  0.1600  0.2794
 6323TIP3    H143164   4.058   7.551  10.952 -0.1806  0.8225  2.3684
 6323TIP3    H243165   4.187   7.601  11.015  2.3674 -0.3086 -1.5808
 6324TIP3   OH243166   1.164   6.313  10.371  0.5298 -0.3227  0.2283
 6324TIP3    H143167   1.118   6.358  10.442  0.1687  1.4982 -1.0689
 6324TIP3    H243168   1.127   6.350  10.291 -0.6201 -3.8394 -1.0565
 6325TIP3   OH243169   6.775   0.158  11.626 -0.0531  0.7497  0.3082
 6325TIP3    H143170   6.741   0.073  11.656  0.7000  0.9721  1.8482
 6325TIP3    H243171   6.710   0.221  11.656  1.2317  1.0937  2.5978
 6326TIP3   OH243172   2.068   7.635  12.135  0.0892 -0.3545  0.3639
 6326TIP3    H143173   2.015   7.571  12.088  1.2784  0.9161 -2.9343
 6326TIP3    H243174   2.145   7.586  12.164 -0.1969 -0.9573  0.1194
 6327TIP3   OH243175   0.761   5.450  11.417 -0.2771 -0.1320 -0.1642
 6327TIP3    H143176   0.838   5.450  11.360  0.4461  0.8247  0.7785
 6327TIP3    H243177   0.716   5.531  11.396 -1.3675 -0.9514 -1.1142
 6328TIP3   OH243178   4.246   2.138  11.237 -0.1691  0.5894 -0.1383
 6328TIP3    H143179   4.281   2.205  11.295 -0.8816  1.5102 -0.7400
 6328TIP3    H243180   4.157   2.167  11.217 -0.1611 -0.0292 -1.1889
 6329TIP3   OH243181   1.958   4.158  12.109  0.7632 -0.1237  0.6109
 6329TIP3    H143182   1.987   4.250  12.105  0.8804 -0.1135  1.5431
 6329TIP3    H243183   2.037   4.110  12.132  0.6694 -0.4529  0.2555
 6330TIP3   OH243184   3.240   6.963  11.400 -0.3681 -0.3270  0.4895
 6330TIP3    H143185   3.233   6.868  11.410  1.3045 -0.2822  2.9785
 6330TIP3    H243186   3.331   6.983  11.419 -0.7163  1.8223  0.1923
 6331TIP3   OH243187   1.828   6.781  10.931  0.6000  0.2638 -0.1233
 6331TIP3    H143188   1.804   6.694  10.963  0.1899  0.8758  1.3166
 6331TIP3    H243189   1.872   6.823  11.005 -1.9104  2.3670  0.3179
 6332TIP3   OH243190   1.627   0.212  13.276  0.2863 -0.4452 -0.1971
 6332TIP3    H143191   1.702   0.196  13.333  1.1230  0.5922 -0.9588
 6332TIP3    H243192   1.629   0.140  13.213 -0.1149 -1.1067  0.5333
 6333TIP3   OH243193   2.463   3.267  12.582  0.0416 -0.7620 -0.2907
 6333TIP3    H143194   2.550   3.302  12.602  0.3920 -1.5747 -0.3090
 6333TIP3    H243195   2.418   3.266  12.667 -0.4579  0.9542 -0.5160
 6334TIP3   OH243196   2.553   5.429  10.688  0.5002  0.0690  0.8263
 6334TIP3    H143197   2.569   5.403  10.598 -0.3949 -0.7576  0.8893
 6334TIP3    H243198   2.512   5.515  10.681 -2.9546 -1.4738  0.1792
 6335TIP3   OH243199   6.001   1.622  11.333  0.2679 -0.2375  0.5973
 6335TIP3    H143200   5.952   1.704  11.341  0.9615  0.2271  0.1393
 6335TIP3    H243201   5.966   1.567  11.402 -0.6676  0.2093  0.4973
 6336TIP3   OH243202   0.203   0.202  12.600 -0.4082  0.4155 -0.0929
 6336TIP3    H143203   0.244   0.147  12.666  0.4381  0.7897 -0.2880
 6336TIP3    H243204   0.193   0.287  12.642 -0.6395  0.4265 -0.1694
 6337TIP3   OH243205   6.441   7.352  12.184  0.3413 -0.0768  0.2874
 6337TIP3    H143206   6.520   7.319  12.226 -0.0007 -1.5559 -0.1647
 6337TIP3    H243207   6.464   7.360  12.091 -0.0710 -0.6912  0.1221
 6338TIP3   OH243208   2.664   3.241  11.323 -0.0934 -0.4481 -0.0916
 6338TIP3    H143209   2.575   3.222  11.352 -0.5290  1.3022 -0.1483
 6338TIP3    H243210   2.693   3.313  11.380 -0.3819  2.0308 -2.8395
 6339TIP3   OH243211   5.076   1.374  11.579  0.1007  0.0507  0.0101
 6339TIP3    H143212   5.038   1.417  11.503  1.2413  1.7540  0.3454
 6339TIP3    H243213   5.166   1.353  11.553 -0.6131 -2.9608 -0.4084
 6340TIP3   OH243214   3.102   6.203  12.640  0.4992  0.3600 -0.2540
 6340TIP3    H143215   3.148   6.190  12.557 -0.2610 -0.8064 -0.5150
 6340TIP3    H243216   3.172   6.210  12.705  1.0931 -1.7045 -0.5921
 6341TIP3   OH243217   0.934   0.324  12.759  0.1375  0.7008  0.0038
 6341TIP3    H143218   1.029   0.310  12.761  0.0401  0.0304  1.3447
 6341TIP3    H243219   0.911   0.339  12.851 -0.9010  2.0469 -0.4492
 6342TIP3   OH243220   4.371   2.062  11.891  0.0862  0.0110 -0.4485
 6342TIP3    H143221   4.314   2.021  11.956  0.3424 -0.0450 -0.2579
 6342TIP3    H243222   4.457   2.064  11.932 -0.6184  4.5718  1.3226
 6343TIP3   OH243223   1.611   6.800  13.521  0.0987  0.3490  0.2656
 6343TIP3    H143224   1.660   6.854  13.459  0.4778  1.6895  1.6617
 6343TIP3    H243225   1.658   6.717  13.522 -0.1379  0.1480 -1.4775
 6344TIP3   OH243226   1.350   5.010  13.520  0.4533 -0.3569  0.1698
 6344TIP3    H143227   1.418   5.078  13.525 -0.5594  0.5867  2.0714
 6344TIP3    H243228   1.390   4.933  13.561  0.3630  0.2257  1.3871
 6345TIP3   OH243229   0.931   3.384  11.396 -0.0495 -0.2345 -0.1521
 6345TIP3    H143230   1.023   3.361  11.390 -0.2576 -1.4911  0.9163
 6345TIP3    H243231   0.887   3.301  11.414 -1.3385  0.4053 -0.2180
 6346TIP3   OH243232   5.309   7.540  11.016 -0.0090  0.2140 -0.0669
 6346TIP3    H143233   5.240   7.484  11.050 -1.5652  0.6665 -2.2885
 6346TIP3    H243234   5.322   7.606  11.084 -0.7759 -0.6691  0.9703
 6347TIP3   OH243235   2.106   3.229  11.576  0.0556 -0.1889  0.1394
 6347TIP3    H143236   2.184   3.174  11.568 -0.5480 -0.9834 -0.3901
 6347TIP3    H243237   2.051   3.184  11.641  0.3590  0.7690  1.0834
 6348TIP3   OH243238   1.507   7.186  12.104 -0.2535 -0.4232  0.9221
 6348TIP3    H143239   1.439   7.234  12.152 -1.1779  0.6508 -1.3095
 6348TIP3    H243240   1.512   7.231  12.020  0.9273 -2.5154 -0.1891
 6349TIP3   OH243241   6.716   5.500  12.195  0.0150 -0.5369  0.3357
 6349TIP3    H143242   6.679   5.475  12.111 -2.9666  1.0189  1.0678
 6349TIP3    H243243   6.766   5.580  12.177 -2.5246  1.1452  0.2994
 6350TIP3   OH243244   3.663   5.923  12.433  0.1107  0.3793  0.1332
 6350TIP3    H143245   3.668   6.019  12.441 -0.5281  0.5080 -0.8539
 6350TIP3    H243246   3.701   5.904  12.347  0.4412 -0.2869  0.4168
 6351TIP3   OH243247   5.908   2.712  11.545 -0.0007  0.0295 -0.2464
 6351TIP3    H143248   5.873   2.698  11.457  1.5208 -1.0260 -0.7116
 6351TIP3    H243249   5.896   2.806  11.560  0.2538  0.3460 -1.8343
 6352TIP3   OH243250   1.323   4.292  11.736  0.4071  0.1964  0.0510
 6352TIP3    H143251   1.397   4.236  11.714  1.2797  1.1951  0.3231
 6352TIP3    H243252   1.361   4.380  11.744 -0.5847  0.5436  1.3997
 6353TIP3   OH243253   1.462   6.296  10.885  0.2091  0.1109 -0.1953
 6353TIP3    H143254   1.475   6.244  10.964 -2.6116  0.5757  0.7010
 6353TIP3    H243255   1.385   6.257  10.842  1.0590  0.4949 -2.1901
 6354TIP3   OH243256   4.968   3.557  10.762 -0.4140 -0.0801 -0.0886
 6354TIP3    H143257   5.054   3.569  10.803  0.2669 -1.4682 -1.0182
 6354TIP3    H243258   4.986   3.502  10.685 -1.9701  0.5681 -0.9627
 6355TIP3   OH243259   0.091   6.112  11.403  0.1106 -0.0809  0.1533
 6355TIP3    H143260   0.112   6.204  11.382 -0.7497  0.3199  0.9725
 6355TIP3    H243261   0.099   6.066  11.320 -0.3428  0.9192 -0.4690
 6356TIP3   OH243262   5.935   0.441  13.143  0.5268  0.2206  0.5117
 6356TIP3    H143263   5.888   0.472  13.067  0.7774  2.0592  1.0594
 6356TIP3    H243264   5.869   0.438  13.213  0.0732 -2.3694  0.0801
 6357TIP3   OH243265   2.190   6.813  10.517  0.2253 -0.0990 -0.4869
 6357TIP3    H143266   2.155   6.753  10.583 -2.1721 -0.1438 -1.6819
 6357TIP3    H243267   2.243   6.758  10.460  1.3190 -0.2846  0.6719
 6358TIP3   OH243268   3.707   3.933  11.954  0.1614 -0.5563 -0.2766
 6358TIP3    H143269   3.751   4.016  11.973  0.8331 -0.8916 -0.3251
 6358TIP3    H243270   3.649   3.952  11.880 -0.4761  0.1182  0.3764
 6359TIP3   OH243271   2.868   2.373  12.431  0.6434  0.8350  0.1391
 6359TIP3    H143272   2.831   2.451  12.473  0.0599  0.7441 -0.1971
 6359TIP3    H243273   2.916   2.407  12.355  0.7080  0.9004  0.2093
 6360TIP3   OH243274   0.947   6.704  12.461  0.3209 -0.6779  0.0611
 6360TIP3    H143275   0.876   6.639  12.470 -1.1028  0.5719 -1.4282
 6360TIP3    H243276   0.984   6.685  12.375  0.3748  0.0096 -0.0679
 6361TIP3   OH243277   1.529   0.810  10.737  0.1909 -0.0432 -0.7915
 6361TIP3    H143278   1.447   0.805  10.688 -0.7465  1.6633  0.4848
 6361TIP3    H243279   1.567   0.722  10.729 -2.4708 -1.3692 -0.2467
 6362TIP3   OH243280   3.479   0.707  10.946 -0.3186 -0.1002  0.2720
 6362TIP3    H143281   3.505   0.760  11.021  0.3763 -0.0358 -0.0050
 6362TIP3    H243282   3.499   0.761  10.870 -0.9734 -0.1841  0.0346
 6363TIP3   OH243283   4.841   3.320  12.027  0.3484  0.3307  0.5331
 6363TIP3    H143284   4.770   3.260  12.050  2.3480 -1.7930  1.6253
 6363TIP3    H243285   4.830   3.395  12.085 -1.2763  0.3150  0.2899
 6364TIP3   OH243286   3.315   5.761  13.054 -0.3661 -0.2099  0.7518
 6364TIP3    H143287   3.295   5.805  13.136  1.0617  0.7606  0.6117
 6364TIP3    H243288   3.382   5.696  13.078  1.2777  1.1936  0.1183
 6365TIP3   OH243289   6.089   4.044  12.134 -0.1287 -0.1920 -0.5978
 6365TIP3    H143290   6.008   4.040  12.185  0.8726 -1.8144  0.9767
 6365TIP3    H243291   6.111   3.953  12.117  2.3892  0.0735  0.7570
 6366TIP3   OH243292   4.079   1.662  10.503 -0.0941  0.4737 -0.2767
 6366TIP3    H143293   4.139   1.589  10.490  1.0904  1.3129  0.2264
 6366TIP3    H243294   4.136   1.740  10.505 -0.8978  1.1176  2.3348
 6367TIP3   OH243295   5.329   7.413  13.121 -0.1732  0.6508 -0.6143
 6367TIP3    H143296   5.350   7.371  13.038  0.4020 -2.6550  1.0518
 6367TIP3    H243297   5.233   7.411  13.126 -0.2469  1.4421 -1.4046
 6368TIP3   OH243298   5.707   7.502  13.183 -0.3146 -0.5129 -0.5133
 6368TIP3    H143299   5.651   7.572  13.149  0.3311  0.0118 -0.5193
 6368TIP3    H243300   5.717   7.442  13.110  1.0961  0.6266 -1.3040
 6369TIP3   OH243301   0.178   4.077  10.294  0.0877  0.3171 -0.0719
 6369TIP3    H143302   0.246   4.025  10.251  1.2343  1.5837  0.1501
 6369TIP3    H243303   0.220   4.160  10.315 -1.0940  0.5774  1.4756
 6370TIP3   OH243304   0.570   2.990  12.154 -0.5830 -0.1672 -0.0120
 6370TIP3    H143305   0.530   3.070  12.187 -0.9654  0.0637 -0.9929
 6370TIP3    H243306   0.664   3.011  12.147 -0.6453  0.1065 -0.0239
 6371TIP3   OH243307   4.019   6.169  11.320  0.0740 -0.0855  0.2071
 6371TIP3    H143308   4.067   6.088  11.339 -0.1204 -0.1242  0.5387
 6371TIP3    H243309   4.082   6.239  11.334  0.5363 -0.2259 -1.0526
 6372TIP3   OH243310   3.791   3.369  10.709 -0.2060 -0.7053  0.1036
 6372TIP3    H143311   3.797   3.461  10.681  0.8888 -0.7279  0.2335
 6372TIP3    H243312   3.862   3.325  10.663  0.5325 -1.0955  1.5533
 6373TIP3   OH243313   2.746   3.801  11.655  0.4993 -0.8958  0.1742
 6373TIP3    H143314   2.829   3.797  11.608  0.2965 -1.6303 -0.1494
 6373TIP3    H243315   2.689   3.854  11.599  0.5132 -1.0623  0.0002
 6374TIP3   OH243316   2.633   4.520  10.643  0.5583  0.0518 -0.2943
 6374TIP3    H143317   2.599   4.584  10.705  1.4226  1.3871 -1.1418
 6374TIP3    H243318   2.727   4.537  10.639  1.1027 -2.3659  0.6465
 6375TIP3   OH243319   5.265   6.119  10.686  0.0184 -0.0761  0.1788
 6375TIP3    H143320   5.284   6.153  10.773 -0.4951  1.0961 -0.1388
 6375TIP3    H243321   5.316   6.038  10.679  0.9793  0.4269  1.1313
 6376TIP3   OH243322   1.128   4.860  11.248 -0.4020 -0.3156  0.3185
 6376TIP3    H143323   1.114   4.826  11.337 -0.5347  0.1340  0.4700
 6376TIP3    H243324   1.064   4.930  11.239  0.2705  0.2963  0.2216
 6377TIP3   OH243325   3.527   6.937  11.419  0.0637  0.3889 -0.3944
 6377TIP3    H143326   3.552   6.974  11.503 -0.4690  2.0113 -0.9192
 6377TIP3    H243327   3.568   6.850  11.418  2.8287  1.5808  0.1792
 6378TIP3   OH243328   4.608   3.311  11.034  0.7707  0.0559 -0.1997
 6378TIP3    H143329   4.682   3.264  10.997  2.0983 -0.0466  2.3739
 6378TIP3    H243330   4.645   3.362  11.106 -1.4694  1.0138  0.3589
 6379TIP3   OH243331   0.504   1.576  11.506 -0.1027  0.4068 -0.0314
 6379TIP3    H143332   0.412   1.576  11.477 -0.7032 -0.6740  1.6693
 6379TIP3    H243333   0.542   1.655  11.468 -1.3021  0.0684 -2.0811
 6380TIP3   OH243334   5.240   6.367  12.770 -0.4659 -0.9306 -0.2391
 6380TIP3    H143335   5.195   6.451  12.763 -2.0036 -1.7603 -1.0644
 6380TIP3    H243336   5.310   6.371  12.705 -0.8438 -0.4664 -0.6189
 6381TIP3   OH243337   2.145   4.870  11.334  0.6752  0.3217 -0.3374
 6381TIP3    H143338   2.070   4.826  11.294  0.6619  0.4836 -0.4924
 6381TIP3    H243339   2.117   4.891  11.423 -0.6018  3.1310 -1.2916
 6382TIP3   OH243340   5.823   2.163  12.264 -0.6101  0.4919  0.9041
 6382TIP3    H143341   5.898   2.196  12.214 -2.3791  3.1472 -0.1779
 6382TIP3    H243342   5.768   2.119  12.198 -1.4067  1.1566  1.1189
 6383TIP3   OH243343   0.186   1.702  11.676  0.0980  0.0854 -0.6640
 6383TIP3    H143344   0.235   1.771  11.630 -0.4653  0.1585 -1.1671
 6383TIP3    H243345   0.181   1.733  11.767 -0.8279  1.1056 -1.0428
 6384TIP3   OH243346   3.121   7.513  11.925  0.1632  0.0053  0.2243
 6384TIP3    H143347   3.143   7.523  12.018 -0.6170 -0.0060  0.4148
 6384TIP3    H243348   3.042   7.565  11.913 -0.3139 -0.7984 -0.2018
 6385TIP3   OH243349   3.231   3.468  12.344 -0.5468  0.2703  0.4622
 6385TIP3    H143350   3.149   3.516  12.353 -0.2046  0.9609 -0.0610
 6385TIP3    H243351   3.287   3.502  12.414 -1.2565 -1.4172  1.9410
 6386TIP3   OH243352   2.762   7.446  13.366 -0.2765 -0.4661  0.0699
 6386TIP3    H143353   2.719   7.401  13.293 -3.3544  0.5407  1.1341
 6386TIP3    H243354   2.716   7.416  13.444  0.5488  1.1597  1.2460
 6387TIP3   OH243355   1.490   5.820  11.647 -0.0123  0.0931  0.0799
 6387TIP3    H143356   1.437   5.893  11.680  1.7121  0.6363  1.8501
 6387TIP3    H243357   1.442   5.742  11.672 -1.6128  0.5782 -1.3434
 6388TIP3   OH243358   1.597   0.506  11.154  0.5997 -0.3249  0.1816
 6388TIP3    H143359   1.683   0.490  11.114  0.9142 -1.0357  1.1036
 6388TIP3    H243360   1.612   0.494  11.248 -0.3363  0.3458  0.4271
 6389TIP3   OH243361   0.048   1.155  11.248  0.0986  0.2693 -0.2760
 6389TIP3    H143362  -0.039   1.157  11.209  0.7912  0.9537 -1.8652
 6389TIP3    H243363   0.085   1.241  11.229  1.7924 -0.6200 -1.2973
 6390TIP3   OH243364   0.700   1.057  12.260  0.3916 -0.4370 -0.6506
 6390TIP3    H143365   0.639   1.108  12.207 -0.2957 -1.6374 -1.0386
 6390TIP3    H243366   0.649   0.982  12.291  1.4042 -0.9507 -0.1714
 6391TIP3   OH243367   2.419   2.264  12.409  0.6321  0.3144  0.4632
 6391TIP3    H143368   2.344   2.322  12.396  0.8982  0.5828  0.0923
 6391TIP3    H243369   2.381   2.177  12.417  0.3432  0.3032 -0.8328
 6392TIP3   OH243370   4.662   0.507  12.256  0.0129  0.3512  0.2527
 6392TIP3    H143371   4.705   0.421  12.253 -1.3122 -0.3064 -0.4263
 6392TIP3    H243372   4.714   0.562  12.198  0.3036 -0.2538 -0.0644
 6393TIP3   OH243373   4.200   4.628  10.627  0.0833 -0.2810  0.2395
 6393TIP3    H143374   4.191   4.543  10.584  1.1281 -0.7862  0.9867
 6393TIP3    H243375   4.113   4.668  10.619 -0.8459 -1.9936  1.0756
 6394TIP3   OH243376   0.067   7.161  12.776  0.6381  0.0019  0.3640
 6394TIP3    H143377   0.080   7.255  12.765  0.2966  0.0756  0.5807
 6394TIP3    H243378   0.092   7.144  12.867 -0.1604  0.0376  0.5931
 6395TIP3   OH243379   6.355   3.598  11.764  0.7307 -0.3079 -0.2004
 6395TIP3    H143380   6.332   3.558  11.680 -0.3920  1.0888 -0.5843
 6395TIP3    H243381   6.446   3.571  11.779  1.6844  1.0228 -2.8718
 6396TIP3   OH243382   3.985   2.419  16.772 -0.1664 -0.8416 -0.1825
 6396TIP3    H143383   4.000   2.372  16.854  0.4853 -0.4662 -0.0822
 6396TIP3    H243384   3.932   2.494  16.798  0.4619 -0.4521 -0.0237
 6397TIP3   OH243385   2.705   4.733  12.239  0.0634 -0.3624  0.6631
 6397TIP3    H143386   2.714   4.826  12.262 -0.8554 -0.4331  1.3822
 6397TIP3    H243387   2.711   4.731  12.144 -0.0542  0.4610  0.6276
 6398TIP3   OH243388   0.262   6.999  11.140  0.1497  0.5184  0.2372
 6398TIP3    H143389   0.239   7.070  11.079 -0.6146 -0.4988 -0.7085
 6398TIP3    H243390   0.210   7.017  11.218 -0.1425  0.9320 -0.0445
 6399TIP3   OH243391   5.686   6.405  12.686 -0.3371  0.0835 -0.4868
 6399TIP3    H143392   5.671   6.473  12.753  1.8624  0.0427  0.1302
 6399TIP3    H243393   5.628   6.333  12.712  0.5824 -0.0104  1.5727
 6400TIP3   OH243394   5.947   1.725  10.832  0.0156 -0.7377  0.1194
 6400TIP3    H143395   6.031   1.760  10.863 -1.1559  2.0448  0.5161
 6400TIP3    H243396   5.934   1.766  10.746 -1.1439 -0.6470  0.3101
 6401TIP3   OH243397   0.449   3.378  12.892 -0.5834 -0.4459  0.3270
 6401TIP3    H143398   0.412   3.344  12.973  0.9204 -1.3206  0.6984
 6401TIP3    H243399   0.405   3.328  12.823 -2.3464  0.7622  0.5153
 6402TIP3   OH243400   2.366   3.682  11.512  0.0489  0.1910  0.2880
 6402TIP3    H143401   2.279   3.656  11.543  0.8488 -1.3221  1.3665
 6402TIP3    H243402   2.384   3.765  11.557 -0.1608 -0.3448  1.3919
 6403TIP3   OH243403   2.574   4.690  10.879 -0.2391 -0.6420 -0.4201
 6403TIP3    H143404   2.573   4.785  10.888 -0.9120 -0.6468 -0.3764
 6403TIP3    H243405   2.484   4.663  10.899 -0.1426 -1.2544 -0.7735
 6404TIP3   OH243406   4.668   0.688  12.933  0.2759  0.2657  0.5027
 6404TIP3    H143407   4.605   0.679  13.004 -1.8673 -0.7402 -1.4020
 6404TIP3    H243408   4.751   0.707  12.977 -0.7382 -1.2122  3.3153
 6405TIP3   OH243409   2.619   6.206  12.851  0.5747  0.7287  0.4032
 6405TIP3    H143410   2.613   6.165  12.765 -1.6610  0.4994  0.5932
 6405TIP3    H243411   2.531   6.242  12.866  1.0785  1.2677  2.3442
 6406TIP3   OH243412   2.365   6.401  11.160 -0.4474  0.0166 -0.2876
 6406TIP3    H143413   2.344   6.309  11.173  0.1486 -0.0043  0.6631
 6406TIP3    H243414   2.352   6.441  11.247 -1.5798  1.0218 -0.8780
 6407TIP3   OH243415   3.619   4.439  10.495  0.3769  0.0715 -0.5741
 6407TIP3    H143416   3.698   4.462  10.544  0.2336 -0.0515 -0.2825
 6407TIP3    H243417   3.650   4.419  10.407  0.6012  0.5954 -0.6174
 6408TIP3   OH243418   5.265   4.722  10.975  0.0335 -0.2071 -0.5909
 6408TIP3    H143419   5.346   4.768  10.954  0.7039 -0.7852  0.6115
 6408TIP3    H243420   5.253   4.661  10.903  0.7903 -0.2704 -0.6692
 6409TIP3   OH243421   4.907   2.403  11.229 -0.4998 -0.1873 -0.0822
 6409TIP3    H143422   4.827   2.358  11.202 -0.7651 -0.3353  0.9010
 6409TIP3    H243423   4.900   2.490  11.190 -2.0327  0.4399  1.4555
 6410TIP3   OH243424   4.955   6.130  10.607 -0.7414 -0.6683 -0.7061
 6410TIP3    H143425   5.042   6.092  10.593  1.0636  2.6152  0.3686
 6410TIP3    H243426   4.927   6.094  10.691  1.4143  0.9863  0.8542
 6411TIP3   OH243427   6.971   0.555  12.390 -0.1592 -0.0618  0.0725
 6411TIP3    H143428   6.881   0.529  12.408 -0.1608  0.5315  0.9971
 6411TIP3    H243429   7.000   0.496  12.320 -1.0555 -0.6722  0.2031
 6412TIP3   OH243430   2.922   1.796  12.045 -0.4571 -0.7732 -0.2265
 6412TIP3    H143431   2.968   1.777  12.127  0.3730  1.1457 -0.1861
 6412TIP3    H243432   2.989   1.785  11.978 -0.1713  0.9421 -0.2765
 6413TIP3   OH243433   4.968   4.790  11.746 -0.2606 -0.0749  0.0245
 6413TIP3    H143434   4.947   4.876  11.711 -1.1622 -0.9772 -1.8202
 6413TIP3    H243435   5.049   4.765  11.701  0.4197  0.0872  1.1186
 6414TIP3   OH243436   3.727   4.435  11.085 -0.6627 -0.2973 -0.0167
 6414TIP3    H143437   3.669   4.494  11.131 -1.2550  0.7761 -2.0161
 6414TIP3    H243438   3.682   4.416  11.002  0.4937 -1.8363 -0.3499
 6415TIP3   OH243439   0.377   5.946  12.001  0.5861  0.1244  0.4603
 6415TIP3    H143440   0.346   6.018  11.945 -1.7271 -0.8599  0.3265
 6415TIP3    H243441   0.409   5.880  11.939  2.4525  0.8767  0.5717
 6416TIP3   OH243442   0.607   1.008  11.977 -0.6198  0.2347  0.2237
 6416TIP3    H143443   0.677   1.065  12.008  0.8410 -0.3882 -1.7002
 6416TIP3    H243444   0.646   0.920  11.978 -1.8052 -0.2995  0.2972
 6417TIP3   OH243445   0.261   3.328  11.369  0.3503 -0.1484 -0.1023
 6417TIP3    H143446   0.278   3.416  11.336  0.4771  0.1959  0.8666
 6417TIP3    H243447   0.348   3.291  11.385  0.2787  0.3284  1.4998
 6418TIP3   OH243448   0.437   5.046  11.661 -0.2059  0.0020  0.1084
 6418TIP3    H143449   0.440   5.072  11.569 -1.2396  0.2451  0.1321
 6418TIP3    H243450   0.376   5.106  11.701 -1.2516 -1.2981  0.5472
 6419TIP3   OH243451   7.161   0.951  11.391  0.1608 -0.3600 -0.4735
 6419TIP3    H143452   7.111   0.875  11.362  2.2893 -2.3494  0.6491
 6419TIP3    H243453   7.157   1.012  11.318 -2.2050 -1.2083 -1.1554
 6420TIP3   OH243454   0.849   2.451  11.100 -0.4904  0.3623 -0.0324
 6420TIP3    H143455   0.935   2.422  11.067 -0.9985 -0.4576 -0.6811
 6420TIP3    H243456   0.866   2.537  11.137  0.6058  0.2486 -0.2190
 6421TIP3   OH243457   3.694   1.941  11.855  0.6141  0.4286 -0.2195
 6421TIP3    H143458   3.608   1.940  11.813  0.0199 -3.7508  0.6464
 6421TIP3    H243459   3.756   1.951  11.783 -0.5205 -1.8729 -1.6548
 6422TIP3   OH243460   6.189   6.355  12.582  0.0035  0.7993  0.0256
 6422TIP3    H143461   6.232   6.377  12.664  1.4643  0.0876 -0.5092
 6422TIP3    H243462   6.261   6.329  12.523 -1.2135 -1.6535 -0.5415
 6423TIP3   OH243463   0.965   0.398  11.960  0.3782  0.2420  0.2717
 6423TIP3    H143464   1.058   0.417  11.947  0.8515 -2.5631 -1.3300
 6423TIP3    H243465   0.951   0.316  11.912 -1.9868 -1.6448  3.7857
 6424TIP3   OH243466   4.705   3.658  10.827 -0.0329  0.1677  0.0756
 6424TIP3    H143467   4.792   3.630  10.798  0.2121  0.0002  0.9301
 6424TIP3    H243468   4.648   3.639  10.753  0.7785  1.0101 -0.8099
 6425TIP3   OH243469   0.626   5.630  13.075 -0.0802  0.2068 -0.2417
 6425TIP3    H143470   0.598   5.658  13.163  0.9849 -1.7430  0.7925
 6425TIP3    H243471   0.589   5.543  13.065  1.4513 -0.4087 -0.8666
 6426TIP3   OH243472   6.484   1.229  12.679 -0.3827  0.0971  0.5825
 6426TIP3    H143473   6.572   1.244  12.713  1.0386 -2.5219 -1.5165
 6426TIP3    H243474   6.435   1.192  12.753 -0.1876  2.6327  2.1021
 6427TIP3   OH243475   1.402   7.446  10.666  0.5990  0.2360 -0.4285
 6427TIP3    H143476   1.472   7.381  10.657 -1.4451 -2.3538  0.8022
 6427TIP3    H243477   1.394   7.459  10.761 -2.3442 -1.8264 -0.2505
 6428TIP3   OH243478   6.215   2.465  11.645 -0.0341 -0.0810  0.5165
 6428TIP3    H143479   6.132   2.471  11.598  0.1620  2.3689  0.3503
 6428TIP3    H243480   6.198   2.508  11.729  1.1195  0.8509  0.3099
 6429TIP3   OH243481   6.899   3.002  11.683  0.0312  0.1150 -0.7184
 6429TIP3    H143482   6.866   2.944  11.614  1.3530  1.1164 -2.2651
 6429TIP3    H243483   6.855   3.085  11.668  0.9068  0.5621 -0.8340
 6430TIP3   OH243484   4.621   1.896  10.684  0.2391  0.8650 -0.4894
 6430TIP3    H143485   4.608   1.978  10.733 -1.1462 -0.1426  0.9182
 6430TIP3    H243486   4.631   1.830  10.752 -0.7750 -0.4549 -1.5877
 6431TIP3   OH243487   6.013   2.425  12.246  0.1459 -0.1347 -0.4301
 6431TIP3    H143488   6.058   2.448  12.328 -0.3104  0.6491 -0.3929
 6431TIP3    H243489   5.921   2.446  12.263 -0.1243 -0.9986 -0.7731
 6432TIP3   OH243490   6.653   6.559  12.284  0.3971  0.5126 -0.0258
 6432TIP3    H143491   6.612   6.498  12.346 -0.6670  1.9914  0.7972
 6432TIP3    H243492   6.673   6.637  12.337 -1.5022  2.2489 -1.6908
 6433TIP3   OH243493   3.296   5.935  12.050 -0.4538  0.3587 -0.2943
 6433TIP3    H143494   3.239   5.858  12.058  0.9062 -0.7184 -0.5950
 6433TIP3    H243495   3.378   5.908  12.092  0.0370  1.6656 -0.3752
 6434TIP3   OH243496   2.142   7.214  10.829 -0.1700 -0.3422  0.4334
 6434TIP3    H143497   2.126   7.303  10.796 -0.3402 -0.3209  0.5706
 6434TIP3    H243498   2.221   7.222  10.882 -1.6333  0.2954  2.6332
 6435TIP3   OH243499   3.950   7.151  10.826 -0.2679 -0.2521 -0.4443
 6435TIP3    H143500   3.932   7.107  10.742 -0.4963 -1.1710  0.0750
 6435TIP3    H243501   3.883   7.118  10.885 -0.8896  1.3368 -0.1959
 6436TIP3   OH243502   1.751   0.434  12.300 -0.5772 -0.9712 -0.2121
 6436TIP3    H143503   1.748   0.445  12.395  0.3630 -0.5957 -0.2101
 6436TIP3    H243504   1.714   0.515  12.265  0.2931 -0.5395 -0.1624
 6437TIP3   OH243505   5.544   2.272  11.058  0.0671  0.0521  0.1654
 6437TIP3    H143506   5.602   2.218  11.004  0.5888  0.3513  0.4185
 6437TIP3    H243507   5.524   2.218  11.134  2.0372  0.8376  1.3056
 6438TIP3   OH243508   3.686   6.949  13.050 -0.2022  0.2603 -0.0116
 6438TIP3    H143509   3.593   6.934  13.036 -0.4220 -0.2452  1.7734
 6438TIP3    H243510   3.703   6.917  13.139  1.4303  1.4198  0.1437
 6439TIP3   OH243511   2.810   1.859  10.984 -0.5848 -0.0536  0.2024
 6439TIP3    H143512   2.843   1.829  11.069 -0.2753 -0.1227  0.0563
 6439TIP3    H243513   2.831   1.787  10.924 -1.9964 -0.6117  0.3259
 6440TIP3   OH243514   2.802   2.646  11.524  0.5455 -0.1813 -0.1422
 6440TIP3    H143515   2.728   2.590  11.546  1.7711 -2.1288 -0.7744
 6440TIP3    H243516   2.785   2.728  11.572 -1.1286 -1.1903  1.0958
 6441TIP3   OH243517   1.248   2.830  11.390 -0.0101  0.0891  0.1345
 6441TIP3    H143518   1.316   2.837  11.323  0.0160  0.8857  0.2330
 6441TIP3    H243519   1.254   2.739  11.420 -0.7840 -0.6314 -1.7224
 6442TIP3   OH243520   5.349   4.539  11.765 -0.1815 -0.2359 -0.1683
 6442TIP3    H143521   5.345   4.483  11.842 -1.7655 -0.0993 -0.1242
 6442TIP3    H243522   5.431   4.514  11.721  0.0001 -1.3405  0.7640
 6443TIP3   OH243523   5.823   4.728  10.935  0.1632 -0.6507 -0.3401
 6443TIP3    H143524   5.816   4.668  11.010  4.6491 -0.2855  0.6515
 6443TIP3    H243525   5.853   4.673  10.863 -0.4902 -0.3423 -0.8615
 6444TIP3   OH243526   1.157   3.573  12.051 -0.0622  0.1473 -0.1034
 6444TIP3    H143527   1.103   3.512  12.101 -0.0802  0.5396  0.3590
 6444TIP3    H243528   1.204   3.624  12.117  0.7937 -0.1162 -0.4980
 6445TIP3   OH243529   3.627   5.499  11.076 -0.2547  0.2749  0.0624
 6445TIP3    H143530   3.540   5.504  11.115 -0.7688 -1.5418 -0.7598
 6445TIP3    H243531   3.622   5.556  10.999 -0.6498  0.3209  0.1197
 6446TIP3   OH243532   0.463   0.932  11.545 -0.5957  0.3740 -0.3005
 6446TIP3    H143533   0.541   0.915  11.492 -1.6755  1.3926 -2.3098
 6446TIP3    H243534   0.496   0.982  11.620  0.6603  0.9605 -1.2101
 6447TIP3   OH243535   1.385   5.005  11.351 -0.3267 -0.0201 -0.1067
 6447TIP3    H143536   1.389   5.097  11.326  2.4670 -0.4761 -1.8168
 6447TIP3    H243537   1.332   4.963  11.283  0.3917  0.0004 -0.6922
 6448TIP3   OH243538   7.439   6.929  11.756 -0.1933  0.0981 -0.0336
 6448TIP3    H143539   7.519   6.898  11.714 -0.8728  0.6646 -1.8475
 6448TIP3    H243540   7.452   7.023  11.767 -0.1701  0.0102  0.6875
 6449TIP3   OH243541   7.644   0.402  11.265  0.2789 -0.2546 -0.3045
 6449TIP3    H143542   7.711   0.334  11.270 -1.1314 -1.6250  1.1230
 6449TIP3    H243543   7.667   0.464  11.334 -0.5268 -1.3658  1.0185
 6450TIP3   OH243544   3.135   7.370  12.935  0.5293  0.6889  0.0432
 6450TIP3    H143545   3.089   7.377  13.019  0.4655  0.2800  0.0445
 6450TIP3    H243546   3.099   7.441  12.883 -0.8357 -0.1948 -0.2860
 6451TIP3   OH243547   4.239   0.390  12.653 -0.1329  0.3055  0.4873
 6451TIP3    H143548   4.306   0.447  12.691  1.4961 -0.2234 -1.4259
 6451TIP3    H243549   4.285   0.308  12.634 -0.9776  0.3258 -1.9679
 6452TIP3   OH243550   3.578   1.609  12.908  0.0964  0.1203 -0.1951
 6452TIP3    H143551   3.592   1.545  12.978 -0.2075 -1.0587 -1.1747
 6452TIP3    H243552   3.484   1.604  12.889  0.2573  0.0405 -1.0305
 6453TIP3   OH243553   7.651   4.982  11.447  0.0672  0.2818 -0.2198
 6453TIP3    H143554   7.596   5.048  11.489 -0.7274  0.2435 -1.1674
 6453TIP3    H243555   7.706   5.031  11.386 -0.5407  0.0846 -0.9421
 6454TIP3   OH243556   1.334   4.972  11.058 -0.0676  0.3243 -0.3056
 6454TIP3    H143557   1.262   5.036  11.056 -0.2317  0.2690  1.8046
 6454TIP3    H243558   1.410   5.023  11.085 -0.4621 -0.4775  2.7014
 6455TIP3   OH243559   5.722   1.401  10.846  0.4235 -0.0923  0.1038
 6455TIP3    H143560   5.757   1.372  10.761  0.3763  1.0100 -0.3156
 6455TIP3    H243561   5.682   1.323  10.884  0.3098 -0.5730 -0.9675
 6456TIP3   OH243562   5.270   3.323  12.382  0.1476  0.1090 -0.4542
 6456TIP3    H143563   5.261   3.334  12.477  1.3603 -0.9955 -0.1792
 6456TIP3    H243564   5.192   3.365  12.346 -0.8810 -0.3727  1.0815
 6457TIP3   OH243565   4.919   5.251  13.015 -0.2213 -0.2854 -0.1998
 6457TIP3    H143566   4.928   5.218  13.105  0.2584  0.5094  0.0529
 6457TIP3    H243567   4.883   5.177  12.966 -1.0294 -0.5619  0.7637
 6458TIP3   OH243568   3.440   2.563  12.758 -0.2667  0.0493 -0.0727
 6458TIP3    H143569   3.373   2.541  12.693 -0.1045 -0.2008 -0.1565
 6458TIP3    H243570   3.397   2.626  12.816 -1.4494 -1.9954  1.4216
 6459TIP3   OH243571   4.708   2.645  12.357  0.4673 -0.3730  0.6079
 6459TIP3    H143572   4.620   2.621  12.387  0.8013 -1.6524  0.6365
 6459TIP3    H243573   4.762   2.643  12.436  0.8961 -1.5254  0.3081
 6460TIP3   OH243574   0.744   0.884  11.451 -0.1949  0.6057 -0.7517
 6460TIP3    H143575   0.730   0.979  11.444 -1.8910  0.5249  0.8067
 6460TIP3    H243576   0.829   0.877  11.496  1.0487  1.2896 -2.8480
 6461TIP3   OH243577   1.567   0.085  11.920 -0.2871  0.3866 -0.0590
 6461TIP3    H143578   1.648   0.052  11.881  0.3472  0.8527  0.8100
 6461TIP3    H243579   1.584   0.084  12.015 -1.4653  0.0650  0.1735
 6462TIP3   OH243580   3.947   2.586  10.888  0.1883  0.3326  0.5920
 6462TIP3    H143581   3.896   2.596  10.807  0.1414  0.9481  0.6945
 6462TIP3    H243582   4.035   2.614  10.864  0.7307 -1.5387  0.1822
 6463TIP3   OH243583   1.008   0.613  10.632  0.1701  0.0943  0.4214
 6463TIP3    H143584   0.925   0.591  10.589 -0.2727  0.4328  1.0804
 6463TIP3    H243585   1.026   0.702  10.603 -1.8409  1.6587  3.3850
 6464TIP3   OH243586   5.278   5.942  11.978  0.3153 -0.0893 -0.0296
 6464TIP3    H143587   5.257   5.920  11.887 -2.0168  0.6307  0.2667
 6464TIP3    H243588   5.302   5.858  12.018 -2.9062 -1.2708 -0.2936
 6465TIP3   OH243589   3.050   7.622  12.644 -0.0074  0.2678 -0.1369
 6465TIP3    H143590   2.984   7.686  12.617 -0.9232 -0.6141 -0.0163
 6465TIP3    H243591   3.055   7.631  12.739  0.5173  0.7731 -0.2057
 6466TIP3   OH243592   3.852   1.292  12.931 -0.1596  0.0092  0.2791
 6466TIP3    H143593   3.897   1.370  12.897  0.1461 -0.8510 -1.4253
 6466TIP3    H243594   3.828   1.243  12.852 -2.7749 -0.3233  1.1959
 6467TIP3   OH243595   1.305   7.213  11.288 -0.3693 -0.1213 -0.2758
 6467TIP3    H143596   1.365   7.266  11.340  0.2920 -0.8719 -0.2488
 6467TIP3    H243597   1.250   7.168  11.352 -1.2248  0.8439 -0.3104
 6468TIP3   OH243598   5.819   2.356  11.863 -0.2070 -0.8483  0.2978
 6468TIP3    H143599   5.882   2.315  11.922  0.5015 -0.8507 -0.4389
 6468TIP3    H243600   5.801   2.290  11.797 -0.1054 -0.4548 -0.1322
 6469TIP3   OH243601   0.207   0.682  13.245 -0.2418  0.4284  0.3474
 6469TIP3    H143602   0.206   0.750  13.178  0.2066 -0.4775 -0.6124
 6469TIP3    H243603   0.205   0.600  13.195  3.2129 -0.3645  1.2780
 6470TIP3   OH243604   4.535   6.424  11.840  0.3384  0.8109 -0.1186
 6470TIP3    H143605   4.451   6.463  11.816 -1.3671 -0.8713  2.4917
 6470TIP3    H243606   4.590   6.498  11.865 -1.6209  1.8431  1.4498
 6471TIP3   OH243607   3.967   3.201  12.301 -0.6340 -0.1919  0.0656
 6471TIP3    H143608   3.981   3.284  12.347  2.5459 -0.2708 -0.5349
 6471TIP3    H243609   3.918   3.147  12.362 -1.3319  1.5609  1.1222
 6472TIP3   OH243610   0.071   0.600  11.432 -0.3728 -0.1557 -0.0590
 6472TIP3    H143611   0.119   0.519  11.446 -0.7251 -0.7167 -1.9343
 6472TIP3    H243612   0.081   0.648  11.515  0.2345 -1.8784  0.9126
 6473TIP3   OH243613   6.823   7.210  13.425  0.2430 -0.0413 -1.0007
 6473TIP3    H143614   6.861   7.141  13.370 -2.7354 -2.7536  0.0387
 6473TIP3    H243615   6.824   7.174  13.513 -0.8201  1.5686 -0.2910
 6474TIP3   OH243616   6.499   1.014  10.840  0.4577 -0.1048  0.1399
 6474TIP3    H143617   6.442   1.046  10.770 -2.0505 -1.2188  1.5243
 6474TIP3    H243618   6.478   1.068  10.916  0.2882 -1.3404  1.0120
 6475TIP3   OH243619   0.420   2.204  11.729 -0.2956 -0.2280 -0.4010
 6475TIP3    H143620   0.447   2.294  11.708  0.1793 -0.4269 -0.6561
 6475TIP3    H243621   0.476   2.149  11.675 -2.7810 -0.6375 -2.7433
 6476TIP3   OH243622   5.413   1.925  13.181 -0.2694 -0.1922  0.5069
 6476TIP3    H143623   5.404   1.848  13.125 -0.7871  0.7873 -0.7994
 6476TIP3    H243624   5.392   1.999  13.124 -1.2998  0.8163  2.1311
 6477TIP3   OH243625   5.456   0.488  11.283  0.3612  0.2432 -0.8787
 6477TIP3    H143626   5.365   0.466  11.263 -0.3745 -0.7982  2.7951
 6477TIP3    H243627   5.450   0.542  11.362  2.9590 -0.0220 -0.4141
 6478TIP3   OH243628   4.168   7.321  11.211  0.0634 -0.2242  0.2710
 6478TIP3    H143629   4.115   7.398  11.234  2.6726  1.9003 -0.3371
 6478TIP3    H243630   4.198   7.287  11.296 -0.0811  0.2164  0.5040
 6479TIP3   OH243631   6.452   7.653  13.021 -0.2032  0.0561 -0.3849
 6479TIP3    H143632   6.400   7.709  13.079 -0.6714  0.7752 -1.4664
 6479TIP3    H243633   6.522   7.710  12.990  0.5280 -0.5606  0.0989
 6480TIP3   OH243634   0.817   7.091  11.500  0.0622  0.4033 -0.2840
 6480TIP3    H143635   0.843   7.145  11.575  0.7760 -0.9438  0.5011
 6480TIP3    H243636   0.802   7.153  11.429 -0.4035  1.7152  0.9093
 6481TIP3   OH243637   6.455   6.347  12.167  0.3291  0.4244 -0.1220
 6481TIP3    H143638   6.506   6.274  12.132 -0.3066 -0.7685  1.3581
 6481TIP3    H243639   6.520   6.417  12.180  1.0229  0.0004 -1.1150
 6482TIP3   OH243640   1.175   2.499  10.683 -0.1075 -0.2919 -0.0170
 6482TIP3    H143641   1.227   2.552  10.623  0.8117  1.3707  2.1372
 6482TIP3    H243642   1.231   2.425  10.705 -0.6050 -1.1434 -1.4098
 6483TIP3   OH243643   3.558   1.340  12.600  0.4571  0.4564 -0.1112
 6483TIP3    H143644   3.579   1.335  12.507  0.5380  1.1664 -0.1309
 6483TIP3    H243645   3.611   1.411  12.634 -0.2005  0.7626  0.3061
 6484TIP3   OH243646   4.301   0.713  11.950  0.0281 -0.3040 -0.5648
 6484TIP3    H143647   4.324   0.620  11.959  0.1169 -0.2279  0.0183
 6484TIP3    H243648   4.385   0.759  11.954  0.1176 -0.2704 -2.1093
 6485TIP3   OH243649   4.609   5.687  11.139  0.1755 -0.2069  0.6428
 6485TIP3    H143650   4.558   5.766  11.160  0.8516  0.3464  0.2727
 6485TIP3    H243651   4.555   5.640  11.076 -1.0233 -0.9357  2.1471
 6486TIP3   OH243652   0.122   6.841  12.131 -0.2975  0.1692 -0.8746
 6486TIP3    H143653   0.187   6.841  12.201 -0.8569  0.6125 -0.3450
 6486TIP3    H243654   0.157   6.903  12.067 -0.4452  0.8165 -0.3436
 6487TIP3   OH243655   7.471   2.141  11.770 -0.2346  0.4205  0.0924
 6487TIP3    H143656   7.522   2.211  11.812 -0.0741 -0.6045  1.6771
 6487TIP3    H243657   7.391   2.136  11.821 -1.6064  1.4085 -1.8338
 6488TIP3   OH243658   7.067   1.582  12.072  0.0139 -0.1564  0.2103
 6488TIP3    H143659   6.999   1.527  12.112  0.4208 -2.2134 -1.7409
 6488TIP3    H243660   7.127   1.601  12.144 -0.8797 -1.1107  1.2509
 6489TIP3   OH243661   4.941   6.805  12.360  0.4946  0.0447  0.2068
 6489TIP3    H143662   5.030   6.769  12.359  0.6287  0.3913 -0.6933
 6489TIP3    H243663   4.944   6.874  12.427  0.3957 -1.1574  1.5004
 6490TIP3   OH243664   2.241   6.042  11.536 -0.2877 -0.3364  0.2411
 6490TIP3    H143665   2.319   6.022  11.589 -0.3601  1.1874  0.9853
 6490TIP3    H243666   2.172   6.058  11.600 -0.7435  0.1681 -0.3651
 6491TIP3   OH243667   2.197   2.676  12.819  0.0957 -0.2534  0.5592
 6491TIP3    H143668   2.247   2.734  12.877 -0.3179 -0.2820  0.9568
 6491TIP3    H243669   2.237   2.590  12.831  0.9329  0.0024 -0.2922
 6492TIP3   OH243670   6.552   3.008  11.120 -0.5369 -0.5435 -0.0187
 6492TIP3    H143671   6.472   2.956  11.111 -1.4387  0.4910  1.6789
 6492TIP3    H243672   6.538   3.082  11.061 -1.1995  0.0470  0.8613
 6493TIP3   OH243673   6.692   6.883  11.040  0.7863 -0.0172  0.3137
 6493TIP3    H143674   6.715   6.956  10.983  1.1133  1.2667  2.0386
 6493TIP3    H243675   6.773   6.833  11.050  0.5040 -0.8146 -1.0654
 6494TIP3   OH243676   1.614   4.844  12.057  0.4183  0.4141 -0.0877
 6494TIP3    H143677   1.586   4.906  12.123  0.3750 -0.2747  0.5565
 6494TIP3    H243678   1.533   4.806  12.022  0.4604  0.3158 -0.0806
 6495TIP3   OH243679   7.228   1.420  11.005 -0.2102  0.3294  0.1577
 6495TIP3    H143680   7.152   1.412  10.947  0.3606 -2.1151 -0.3668
 6495TIP3    H243681   7.298   1.453  10.949 -0.5629  1.4742  0.3678
 6496TIP3   OH243682   5.121   6.478  11.727  0.1051  0.0013  0.0217
 6496TIP3    H143683   5.049   6.460  11.666 -0.4625  1.9588  0.0625
 6496TIP3    H243684   5.088   6.451  11.812 -0.4520  0.5409 -0.0178
 6497TIP3   OH243685   1.761   0.005  11.513 -0.2465  0.1084 -0.6375
 6497TIP3    H143686   1.776  -0.005  11.607 -1.3842  0.2436 -0.4235
 6497TIP3    H243687   1.819  -0.059  11.472 -0.5644 -0.7564  0.2286
 6498TIP3   OH243688   4.451   4.351  12.200  0.2257 -0.1666 -0.5470
 6498TIP3    H143689   4.380   4.330  12.260  1.2361  0.5688  0.9762
 6498TIP3    H243690   4.519   4.285  12.219  1.1795  1.0151  0.2894
 6499TIP3   OH243691   7.254   6.588  12.587 -0.4629  0.6530  0.0648
 6499TIP3    H143692   7.342   6.578  12.551 -1.2560 -2.1336 -1.3541
 6499TIP3    H243693   7.246   6.518  12.651 -1.1815  1.8272  1.3342
 6500TIP3   OH243694   6.327   7.650  13.319  0.5570 -0.2625  0.0550
 6500TIP3    H143695   6.306   7.717  13.254 -0.6194 -1.2505 -0.6420
 6500TIP3    H243696   6.402   7.685  13.367  0.7772  0.9689 -1.1300
 6501TIP3   OH243697   5.782   0.483  12.147 -0.1952 -0.2222  0.2651
 6501TIP3    H143698   5.753   0.574  12.154 -0.3524 -0.3218  1.0013
 6501TIP3    H243699   5.765   0.446  12.233  3.3945  0.0987  1.2945
 6502TIP3   OH243700   1.309   1.250  11.853  0.3084  0.2960  0.4690
 6502TIP3    H143701   1.392   1.278  11.893  0.3394 -0.7565  1.1901
 6502TIP3    H243702   1.300   1.158  11.879  0.5941 -0.6510 -2.3879
 6503TIP3   OH243703   0.286   5.713  11.162  0.3551  0.4624  0.5339
 6503TIP3    H143704   0.325   5.730  11.076 -0.2031 -1.0965 -0.0743
 6503TIP3    H243705   0.217   5.780  11.170  0.2334  0.4649 -0.3581
 6504TIP3   OH243706   4.257   1.952  11.453  0.3093  0.0101  0.2942
 6504TIP3    H143707   4.246   2.032  11.401  0.0480  1.0528  1.8866
 6504TIP3    H243708   4.278   1.884  11.389  1.8181  1.6035 -0.9776
 6505TIP3   OH243709   1.821   7.341  11.732  0.0914  0.7622  0.0854
 6505TIP3    H143710   1.904   7.302  11.707  0.2179  0.5929  0.7575
 6505TIP3    H243711   1.844   7.427  11.766  0.0674  0.4587  0.8906
 6506TIP3   OH243712   0.964   1.329  10.957  0.1377 -0.1356  0.3032
 6506TIP3    H143713   1.049   1.286  10.962  0.4579  0.3120 -0.9696
 6506TIP3    H243714   0.941   1.328  10.864 -1.0451  0.1432  0.5692
 6507TIP3   OH243715   1.299   0.777  12.842 -0.2549  0.0150 -0.4935
 6507TIP3    H143716   1.281   0.687  12.871  2.6329  0.3525  3.1761
 6507TIP3    H243717   1.250   0.832  12.903  1.0439  0.8540 -0.1637
 6508TIP3   OH243718   5.232   2.402  11.772  0.2258 -0.2631  0.3061
 6508TIP3    H143719   5.220   2.463  11.699 -2.0852 -1.4052 -0.3597
 6508TIP3    H243720   5.320   2.367  11.759  0.7828  1.3359 -0.5017
 6509TIP3   OH243721   0.383   2.697  11.396  0.3383  0.2874 -0.2333
 6509TIP3    H143722   0.462   2.703  11.342  0.2443  0.6795 -0.3280
 6509TIP3    H243723   0.387   2.774  11.453  0.5315 -0.2220  0.4485
 6510TIP3   OH243724   0.337   4.042  12.773 -0.2450  0.0546  0.4560
 6510TIP3    H143725   0.410   4.087  12.732 -0.1940  0.4586  0.9830
 6510TIP3    H243726   0.357   4.043  12.866 -0.9385  0.1948  0.6095
 6511TIP3   OH243727   7.374   4.511  11.012  0.1336  0.0350 -0.0378
 6511TIP3    H143728   7.357   4.481  11.101 -1.1642 -2.0902 -0.9251
 6511TIP3    H243729   7.287   4.528  10.975  0.6481  0.8379 -0.9305
 6512TIP3   OH243730   3.523   4.398  12.401 -0.2950  0.1287  0.5599
 6512TIP3    H143731   3.519   4.421  12.494 -2.1153 -0.2890  0.6275
 6512TIP3    H243732   3.484   4.310  12.396 -0.3352  0.1953 -0.5972
 6513TIP3   OH243733   1.016   3.403  13.244 -0.1064 -0.6213 -0.0257
 6513TIP3    H143734   1.030   3.486  13.290 -0.3310 -0.7416  0.2659
 6513TIP3    H243735   1.065   3.411  13.162 -0.1477 -0.1933 -0.0064
 6514TIP3   OH243736   4.280   1.179  10.986 -0.1517  0.1588 -0.0603
 6514TIP3    H143737   4.214   1.148  11.048  0.0297 -1.0529 -0.4442
 6514TIP3    H243738   4.268   1.124  10.908  0.4643  0.7915 -0.6170
 6515TIP3   OH243739   5.943   3.585  11.127 -0.9637 -0.1407 -0.1125
 6515TIP3    H143740   5.901   3.614  11.208  0.0846 -1.1214  0.8049
 6515TIP3    H243741   6.005   3.517  11.154 -1.6135 -1.5286 -1.9060
 6516TIP3   OH243742   5.194   5.517  13.040 -0.0623 -0.6930  0.3952
 6516TIP3    H143743   5.203   5.588  13.103  0.3625 -0.1171 -0.3026
 6516TIP3    H243744   5.259   5.452  13.067 -0.1598 -0.6295  0.7848
 6517TIP3   OH243745   3.315   1.360  11.703  0.5457  0.1244 -0.1863
 6517TIP3    H143746   3.373   1.422  11.746  1.2193 -1.4799  1.3247
 6517TIP3    H243747   3.326   1.278  11.751 -0.8232 -1.0126 -1.6647
 6518TIP3   OH243748   6.756   0.241  10.752 -0.8202 -0.0733  0.2144
 6518TIP3    H143749   6.686   0.258  10.689 -0.5672 -1.0108 -0.3457
 6518TIP3    H243750   6.738   0.153  10.785  0.5058 -0.6479 -0.5278
 6519TIP3   OH243751   0.292   6.237  12.164 -0.0696 -0.2168  0.1155
 6519TIP3    H143752   0.384   6.222  12.144 -0.1097 -0.5170  0.1545
 6519TIP3    H243753   0.284   6.219  12.258  0.1599  1.3909  0.4685
 6520TIP3   OH243754   7.642   0.867  11.018  0.4849  0.0215 -0.4420
 6520TIP3    H143755   7.702   0.822  11.077  1.5107  2.5004  0.5276
 6520TIP3    H243756   7.565   0.886  11.072  1.1506  1.6943 -0.0062
 6521TIP3   OH243757   7.549   2.488  10.992  0.3616 -0.5103  0.4466
 6521TIP3    H143758   7.588   2.470  11.077  3.9013  0.7142 -0.7010
 6521TIP3    H243759   7.496   2.567  11.005  1.0272 -0.2215  1.4987
 6522TIP3   OH243760   4.326   0.389  13.267 -0.3957  0.2317 -0.4397
 6522TIP3    H143761   4.302   0.305  13.227  0.2677  0.0275 -0.4256
 6522TIP3    H243762   4.415   0.375  13.298 -1.0932  0.1702  1.6812
 6523TIP3   OH243763   0.349   1.449  12.790 -0.1028 -0.2457 -0.0195
 6523TIP3    H143764   0.342   1.460  12.884  1.0577  0.8302 -0.0337
 6523TIP3    H243765   0.276   1.391  12.767 -0.8591  0.0861  1.4182
 6524TIP3   OH243766   1.900   5.787  12.600  0.0327 -0.1845  0.0758
 6524TIP3    H143767   1.878   5.789  12.693  1.3752 -2.4782  0.5305
 6524TIP3    H243768   1.822   5.753  12.557 -0.5973  0.8988  0.3208
 6525TIP3   OH243769   4.865   7.326  12.464  0.0931  0.2571  0.2131
 6525TIP3    H143770   4.829   7.399  12.414  1.1804  1.0726  0.5579
 6525TIP3    H243771   4.953   7.313  12.428  0.0585 -0.6218  0.4276
 6526TIP3   OH243772   3.638   1.385  13.085  0.2099 -0.0526 -1.2435
 6526TIP3    H143773   3.608   1.308  13.134 -0.3267 -0.2036 -1.8045
 6526TIP3    H243774   3.723   1.358  13.049  1.8034  0.8513  1.5091
 6527TIP3   OH243775   5.469   7.282  12.902 -0.1220 -0.4135 -0.3299
 6527TIP3    H143776   5.413   7.212  12.867 -0.1898  0.5412 -2.2606
 6527TIP3    H243777   5.537   7.293  12.835  0.0419  1.1628  0.0635
 6528TIP3   OH243778   2.479   4.533  11.598 -0.6876  0.2215 -0.3190
 6528TIP3    H143779   2.469   4.485  11.680 -0.2880 -0.3010 -0.5717
 6528TIP3    H243780   2.410   4.600  11.601 -0.7723  0.1144  0.3708
 6529TIP3   OH243781   2.044   3.363  12.786 -0.3724  0.3317 -0.1659
 6529TIP3    H143782   2.036   3.277  12.745  0.0474 -0.3842  1.2169
 6529TIP3    H243783   1.964   3.374  12.836 -0.8009  1.1303 -0.9892
 6530TIP3   OH243784   3.408   4.130  12.391  0.3419 -0.3259  0.4106
 6530TIP3    H143785   3.471   4.080  12.339 -0.1059 -0.0710 -0.3943
 6530TIP3    H243786   3.431   4.111  12.481  1.1231 -0.7999  0.1209
 6531TIP3   OH243787   4.742   2.245  11.090  0.4467  0.3288  0.3149
 6531TIP3    H143788   4.654   2.243  11.125  0.3167  1.4408  0.0681
 6531TIP3    H243789   4.770   2.153  11.090 -0.0918  0.1459  1.9128
 6532TIP3   OH243790   7.389   5.393  10.666 -0.2616  0.0779  0.5588
 6532TIP3    H143791   7.452   5.463  10.648  0.8773 -0.7118  1.3477
 6532TIP3    H243792   7.304   5.436  10.661  0.2538  1.0034 -1.3801
 6533TIP3   OH243793   7.471   6.673  10.947  0.5271 -0.5757  0.1788
 6533TIP3    H143794   7.509   6.607  10.889  0.5053  0.0108 -0.5192
 6533TIP3    H243795   7.546   6.707  10.997  0.5125 -1.2393  0.6698
 6534TIP3   OH243796   2.111   5.232  12.272 -0.7418 -0.0295 -0.5974
 6534TIP3    H143797   2.105   5.183  12.354 -0.5665 -0.3278 -0.7634
 6534TIP3    H243798   2.025   5.275  12.264 -1.4398 -1.4720 -1.1762
 6535TIP3   OH243799   6.317   3.472  11.513 -0.2041 -0.6211  0.2985
 6535TIP3    H143800   6.377   3.398  11.520  0.6738  0.2226  3.4697
 6535TIP3    H243801   6.231   3.435  11.532 -0.4569 -1.4522 -2.1422
 6536TIP3   OH243802   2.259   5.820  11.852 -0.3072  0.4135 -0.1351
 6536TIP3    H143803   2.307   5.887  11.900  1.3593 -1.0334  0.3255
 6536TIP3    H243804   2.327   5.764  11.814 -1.6268 -0.9777 -0.5472
 6537TIP3   OH243805   3.375   5.518  12.773  0.3191 -0.4128 -0.5930
 6537TIP3    H143806   3.433   5.550  12.841 -0.1888  0.4022 -0.5230
 6537TIP3    H243807   3.417   5.545  12.691 -0.1153  0.5064 -0.5349
 6538TIP3   OH243808   3.270   4.723  12.569 -0.5701  0.2134 -0.6360
 6538TIP3    H143809   3.300   4.636  12.543 -1.3800 -0.4154  0.4544
 6538TIP3    H243810   3.308   4.737  12.656  0.3196  1.3618 -1.1707
 6539TIP3   OH243811   3.705   3.124  12.744 -0.4193 -0.3526  0.2968
 6539TIP3    H143812   3.711   3.200  12.686  0.1761 -0.6926 -0.0885
 6539TIP3    H243813   3.647   3.063  12.698 -1.3326  0.0717  0.8479
 6540TIP3   OH243814   5.179   7.574  11.970  0.6606  0.3425  0.2698
 6540TIP3    H143815   5.147   7.530  11.891  1.9973 -0.1386 -0.0296
 6540TIP3    H243816   5.161   7.667  11.954  1.1079  0.2754 -0.7003
 6541TIP3   OH243817   3.700   4.663  11.429  0.1551  0.2670 -0.5188
 6541TIP3    H143818   3.776   4.605  11.431  0.1063  0.2171  0.2576
 6541TIP3    H243819   3.675   4.666  11.337  0.2568 -0.8300 -0.5996
 6542TIP3   OH243820   4.128   1.036  11.233  0.3591  0.0247  0.0517
 6542TIP3    H143821   4.159   0.971  11.171  0.3437  0.8019 -0.7986
 6542TIP3    H243822   4.108   0.987  11.313  0.7691 -0.9296 -0.4253
 6543TIP3   OH243823   0.911   3.803  10.801  0.0878 -0.5354  0.0308
 6543TIP3    H143824   1.006   3.791  10.812 -0.2200 -4.5930 -0.2059
 6543TIP3    H243825   0.873   3.769  10.882 -1.2218  2.3953  0.7531
 6544TIP3   OH243826   5.958   1.158  11.306  0.1892  0.7144 -0.0341
 6544TIP3    H143827   5.892   1.097  11.273  0.8356  0.6347 -1.2158
 6544TIP3    H243828   5.988   1.119  11.388  0.8189 -0.7400 -0.9267
 6545TIP3   OH243829   2.334   3.048  11.530 -0.2467 -0.1236  0.2566
 6545TIP3    H143830   2.425   3.058  11.558  0.1816 -0.8261 -0.7986
 6545TIP3    H243831   2.340   3.029  11.436 -1.4079 -1.4395  0.4149
 6546TIP3   OH243832   0.397   2.205  11.171 -0.4306 -0.0879 -0.0396
 6546TIP3    H143833   0.482   2.208  11.128  0.3795 -0.3059  1.4989
 6546TIP3    H243834   0.393   2.285  11.223 -1.4540  0.2344 -0.5787
 6547TIP3   OH243835   6.313   1.333  12.483 -0.3505 -0.4433  0.2550
 6547TIP3    H143836   6.385   1.310  12.424  1.0774  2.1120  0.8477
 6547TIP3    H243837   6.347   1.315  12.571 -1.5364 -1.8817  0.4500
 6548TIP3   OH243838   0.169   1.210  13.003  0.4102 -0.1960 -0.4100
 6548TIP3    H143839   0.211   1.124  12.999  2.0782  0.5606  0.1327
 6548TIP3    H243840   0.204   1.250  13.083 -0.0901  1.1220 -0.8270
 6549TIP3   OH243841   3.681   6.388  10.977 -0.0244 -0.7337 -0.0602
 6549TIP3    H143842   3.735   6.322  11.020  1.0836  0.2433  0.1090
 6549TIP3    H243843   3.646   6.441  11.048 -1.4003 -1.4587 -0.1545
 6550TIP3   OH243844   0.945   5.140  12.991 -0.5046 -0.1532  0.3450
 6550TIP3    H143845   0.892   5.216  13.018 -0.2507 -0.4563  1.8062
 6550TIP3    H243846   0.897   5.064  13.023  1.3229 -0.4004  2.8969
 6551TIP3   OH243847   1.311   6.932  12.430  0.7024  0.0616  0.7946
 6551TIP3    H143848   1.349   7.019  12.420 -2.0167  1.1260 -2.4787
 6551TIP3    H243849   1.255   6.939  12.507 -1.3707  2.1993 -0.7306
 6552TIP3   OH243850   5.584   1.367  11.956 -0.4474  0.0503  0.1467
 6552TIP3    H143851   5.581   1.280  11.996  0.3894 -0.3847 -0.6944
 6552TIP3    H243852   5.559   1.352  11.865  3.9279 -0.1664 -1.2724
 6553TIP3   OH243853   6.729   2.014  12.562 -0.0076  0.2590  0.5240
 6553TIP3    H143854   6.676   2.048  12.490 -1.1850  0.4225  1.4524
 6553TIP3    H243855   6.720   1.919  12.557  1.8475  0.0992 -0.9746
 6554TIP3   OH243856   3.131   1.358  11.259  0.0838  0.3291 -0.3600
 6554TIP3    H143857   3.117   1.451  11.277  1.2212  0.6718 -1.1650
 6554TIP3    H243858   3.160   1.354  11.168  0.2155 -0.8100 -0.2922
 6555TIP3   OH243859   3.043   3.835  11.816 -0.1355 -0.1439 -0.4028
 6555TIP3    H143860   3.003   3.765  11.763  0.4213 -1.1721  0.4953
 6555TIP3    H243861   3.055   3.907  11.754  0.5888 -1.3374 -1.7250
 6556TIP3   OH243862   4.670   2.827  10.962  0.4717  0.3784 -0.0441
 6556TIP3    H143863   4.728   2.880  11.016 -0.0036  2.1835 -1.2216
 6556TIP3    H243864   4.588   2.823  11.012 -0.4320  3.2062 -1.0909
 6557TIP3   OH243865   3.146   5.876  12.835 -0.4770 -0.1848 -0.2364
 6557TIP3    H143866   3.167   5.784  12.852  1.2756  0.4597  1.5340
 6557TIP3    H243867   3.101   5.905  12.915 -1.0246  0.4923 -0.7839
 6558TIP3   OH243868   2.730   3.816  13.219  0.1515  0.7138 -0.2494
 6558TIP3    H143869   2.699   3.890  13.167  0.5852  0.1297 -1.3871
 6558TIP3    H243870   2.657   3.755  13.221  0.1131  0.7639 -0.1187
 6559TIP3   OH243871   3.180   0.143  12.246 -0.3882 -0.1021 -0.4063
 6559TIP3    H143872   3.174   0.072  12.310  2.5925  0.1568  0.3026
 6559TIP3    H243873   3.243   0.113  12.181  3.0987  2.6697  1.3086
 6560TIP3   OH243874   2.256   3.879  10.923 -0.4680  0.1995 -0.3826
 6560TIP3    H143875   2.266   3.821  10.998  2.4877  1.7269  0.5555
 6560TIP3    H243876   2.171   3.922  10.937 -0.8155 -0.8973  1.0611
 6561TIP3   OH243877   0.049   0.782  12.814  0.0622 -0.2250 -0.5408
 6561TIP3    H143878   0.137   0.802  12.783 -0.6217  2.1212 -1.2052
 6561TIP3    H243879  -0.006   0.792  12.736 -1.3475  3.1873  0.6811
 6562TIP3   OH243880   4.709   5.776  13.223 -0.5800 -0.6212 -0.1798
 6562TIP3    H143881   4.643   5.846  13.228 -1.4546 -1.5192  1.7687
 6562TIP3    H243882   4.792   5.820  13.240 -0.7525  0.3556 -1.6416
 6563TIP3   OH243883   7.394   1.384  11.899  0.0664  0.0689  0.3005
 6563TIP3    H143884   7.311   1.413  11.862  0.4333 -0.9129 -1.3799
 6563TIP3    H243885   7.450   1.462  11.896  0.0496  0.0576 -1.1947
 6564TIP3   OH243886   2.989   3.537  12.078  0.0073  0.2910  0.2182
 6564TIP3    H143887   2.990   3.581  12.164 -0.8245  2.9740 -1.0361
 6564TIP3    H243888   2.920   3.581  12.029  1.1595 -0.4087 -2.2056
 6565TIP3   OH243889   3.616   7.286  12.759  0.2709 -0.6753  0.0135
 6565TIP3    H143890   3.640   7.373  12.790 -0.5402 -1.0396  1.7917
 6565TIP3    H243891   3.540   7.262  12.812 -0.1141 -2.0749 -1.1237
 6566TIP3   OH243892   2.660   2.834  12.838 -0.2486 -0.1201 -0.3109
 6566TIP3    H143893   2.643   2.908  12.781  0.4795 -0.5581 -1.1024
 6566TIP3    H243894   2.572   2.801  12.860 -0.5653  0.7823 -0.1848
 6567TIP3   OH243895   2.149   2.576  10.580 -0.1797  0.6454 -0.0147
 6567TIP3    H143896   2.230   2.574  10.631 -0.7431 -1.2011  0.9005
 6567TIP3    H243897   2.170   2.528  10.500 -0.7389 -1.2871  0.9283
 6568TIP3   OH243898   4.161   1.175  12.748  0.2920 -0.3361 -0.5306
 6568TIP3    H143899   4.201   1.163  12.662  2.9344  0.4261  0.4997
 6568TIP3    H243900   4.142   1.269  12.753 -0.3651 -0.4672 -0.4752
 6569TIP3   OH243901   0.038   5.853  12.069 -0.1107 -0.0410  0.8335
 6569TIP3    H143902   0.039   5.933  12.122  1.3663  0.8595 -0.4748
 6569TIP3    H243903   0.128   5.821  12.073  0.1749  0.3155 -1.4577
 6570TIP3   OH243904   1.743   2.650  11.192 -0.2965 -0.6555 -0.2982
 6570TIP3    H143905   1.764   2.637  11.100  0.1050 -1.2205 -0.1311
 6570TIP3    H243906   1.816   2.700  11.227 -0.9112  0.4129 -0.4953
 6571TIP3   OH243907   2.730   6.553  11.606 -0.0183 -0.2728 -0.4440
 6571TIP3    H143908   2.682   6.477  11.572 -0.1808 -0.8020  0.9082
 6571TIP3    H243909   2.667   6.598  11.662  0.3535  0.3609 -0.5290
 6572TIP3   OH243910   7.047   2.261  11.651 -0.6484 -0.5363  0.1192
 6572TIP3    H143911   6.991   2.330  11.686 -0.6164 -0.2059 -0.4559
 6572TIP3    H243912   7.072   2.208  11.727  0.1968  0.7032  0.7435
 6573TIP3   OH243913   3.526   4.879  11.495  0.5633  0.0078 -0.2781
 6573TIP3    H143914   3.577   4.798  11.492 -1.5059 -1.3617 -0.4138
 6573TIP3    H243915   3.503   4.889  11.587  1.4732  0.9069 -0.1352
 6574TIP3   OH243916   4.333   6.613  11.880 -0.4689 -0.3180 -0.0626
 6574TIP3    H143917   4.389   6.691  11.879 -1.4381  0.4315  1.2081
 6574TIP3    H243918   4.273   6.626  11.806 -0.8559  0.3375  0.3538
 6575TIP3   OH243919   4.673   1.286  12.816  0.3202 -0.5388  0.0060
 6575TIP3    H143920   4.719   1.282  12.900 -0.7001  0.1667  0.6198
 6575TIP3    H243921   4.654   1.379  12.804  0.7194 -0.5893 -1.1637
 6576TIP3   OH243922   3.998   0.359  13.254  0.0867 -0.0186 -0.0629
 6576TIP3    H143923   3.942   0.284  13.277  0.7616 -0.1500  1.2153
 6576TIP3    H243924   3.996   0.361  13.158 -1.9154 -0.1577 -0.0809
 6577TIP3   OH243925   6.395   4.685  11.068  0.6433  1.3685  0.4899
 6577TIP3    H143926   6.316   4.668  11.119  0.7599  1.6020  0.7482
 6577TIP3    H243927   6.442   4.601  11.068  0.0897  1.0520 -0.2056
 6578TIP3   OH243928   3.690   0.216  12.284 -0.0058 -0.0908 -0.2950
 6578TIP3    H143929   3.710   0.123  12.277 -0.1706 -0.1598  0.1145
 6578TIP3    H243930   3.652   0.239  12.199 -0.1074 -0.4340 -0.3439
 6579TIP3   OH243931   2.465   1.043  11.982  0.0788 -0.1843  0.0371
 6579TIP3    H143932   2.412   1.110  12.027  0.6904  1.5684 -1.6848
 6579TIP3    H243933   2.403   0.974  11.961 -1.0450  0.7570  0.1085
 6580TIP3   OH243934   0.774   7.578  13.345 -0.0247 -0.1368 -0.1275
 6580TIP3    H143935   0.854   7.604  13.390  1.6802 -1.9633 -1.8641
 6580TIP3    H243936   0.745   7.656  13.299  1.4839  0.2505 -0.4633
 6581TIP3   OH243937   5.916   0.782  11.252  0.3308 -0.3878 -0.0230
 6581TIP3    H143938   5.968   0.713  11.211 -1.5945 -1.9547  0.0496
 6581TIP3    H243939   5.933   0.773  11.346 -0.4520 -1.2499  0.0444
 6582TIP3   OH243940   7.559   4.711  11.434 -0.6687  0.5934 -0.5213
 6582TIP3    H143941   7.589   4.802  11.430  1.4358  0.0018  0.6065
 6582TIP3    H243942   7.601   4.668  11.360  2.4102 -0.4868  1.6802
 6583TIP3   OH243943   5.230   7.033  11.030 -0.3027 -0.3790 -0.2956
 6583TIP3    H143944   5.290   7.003  10.961  0.3947 -0.8074  0.4743
 6583TIP3    H243945   5.281   7.098  11.078 -0.6548 -0.3359  0.0192
 6584TIP3   OH243946   6.669   7.607  12.267 -0.3823 -0.2451 -0.7788
 6584TIP3    H143947   6.659   7.516  12.238 -0.8935 -0.1719 -0.8302
 6584TIP3    H243948   6.616   7.614  12.345  1.7175 -0.6932  0.7786
 6585TIP3   OH243949   5.339   2.384  11.291 -0.1582 -0.2602 -0.3294
 6585TIP3    H143950   5.288   2.425  11.361 -1.3351 -0.5693 -0.9741
 6585TIP3    H243951   5.277   2.324  11.248  1.2638 -2.1018  0.0619
 6586TIP3   OH243952   5.536   5.038  12.262  0.3332  0.0742  0.4685
 6586TIP3    H143953   5.511   5.130  12.255 -1.5150 -0.3865  0.5121
 6586TIP3    H243954   5.631   5.038  12.258  0.3181  1.8980 -0.5711
 6587TIP3   OH243955   5.314   7.257  11.147  0.4627 -0.0040 -0.2267
 6587TIP3    H143956   5.247   7.323  11.164  0.2045  0.1436 -1.6695
 6587TIP3    H243957   5.397   7.304  11.151  0.4005  0.0529  0.4172
 6588TIP3   OH243958   1.163   3.579  11.287 -0.4439  0.4212 -0.4349
 6588TIP3    H143959   1.097   3.621  11.232 -0.3514 -0.0713 -0.9217
 6588TIP3    H243960   1.211   3.520  11.228  1.4179  1.8443 -0.4518
 6589TIP3   OH243961   0.724   1.354  12.610  0.2808 -0.1786  0.3891
 6589TIP3    H143962   0.785   1.290  12.647 -1.7045 -2.2736  0.2795
 6589TIP3    H243963   0.742   1.352  12.516  0.2034 -0.6369  0.3788
 6590TIP3   OH243964   4.457   5.386  11.973  0.4020 -0.2604 -0.1443
 6590TIP3    H143965   4.407   5.305  11.971  1.9814 -1.3114  1.1615
 6590TIP3    H243966   4.391   5.454  11.988 -0.9788 -1.2059 -1.5437
 6591TIP3   OH243967   7.511   6.115  11.768 -0.0019  0.0079 -0.3347
 6591TIP3    H143968   7.471   6.134  11.683  0.1414 -0.4105 -0.4969
 6591TIP3    H243969   7.596   6.158  11.764 -0.3210  0.6791 -0.0885
 6592TIP3   OH243970   2.503   1.115  10.722  0.2519 -0.2396 -0.2440
 6592TIP3    H143971   2.596   1.124  10.704  0.9086  0.1355  2.7986
 6592TIP3    H243972   2.498   1.050  10.791 -1.5339  1.2009  1.0910
 6593TIP3   OH243973   1.538   4.540  10.780 -0.2293 -0.1045  0.0265
 6593TIP3    H143974   1.569   4.544  10.871  0.4968  0.7977 -0.2463
 6593TIP3    H243975   1.565   4.624  10.742  1.9177 -1.4969 -1.7864
 6594TIP3   OH243976   1.467   6.659  11.690 -0.2882 -0.1555  0.1402
 6594TIP3    H143977   1.524   6.584  11.672 -1.6234 -1.5436  1.3476
 6594TIP3    H243978   1.524   6.735  11.687  0.7627 -0.9171 -3.2898
 6595TIP3   OH243979   6.555   6.425  11.614  0.2098  0.3357  0.4559
 6595TIP3    H143980   6.621   6.491  11.591 -0.0199 -0.4679 -3.1545
 6595TIP3    H243981   6.475   6.476  11.629  0.7778  1.0741  1.0414
 6596TIP3   OH243982   3.413   2.623  11.724  0.3599  0.5148  0.6678
 6596TIP3    H143983   3.337   2.672  11.694  1.7827  2.6516  0.3221
 6596TIP3    H243984   3.471   2.619  11.648  1.3514  0.5237  1.4068
 6597TIP3   OH243985   7.099   7.673  10.677 -0.0112 -0.1954  0.3050
 6597TIP3    H143986   7.154   7.729  10.622  0.7502 -1.1694  0.0303
 6597TIP3    H243987   7.148   7.665  10.759 -0.3159 -0.1293  0.4942
 6598TIP3   OH243988   1.993   0.464  12.174 -0.0479  0.6550 -0.7699
 6598TIP3    H143989   1.900   0.446  12.188  0.4479 -0.6619  1.4834
 6598TIP3    H243990   2.016   0.524  12.245  1.2957 -1.0266  0.2983
 6599TIP3   OH243991   6.530   0.245  11.683 -0.3444  0.9495 -0.0001
 6599TIP3    H143992   6.470   0.220  11.753  0.2253  2.4837  1.0918
 6599TIP3    H243993   6.478   0.236  11.603 -1.9843  1.9708  0.8838
 6600TIP3   OH243994   4.077   1.339  10.601 -0.2445 -0.0321 -0.3238
 6600TIP3    H143995   4.167   1.373  10.610 -0.2423  0.5796 -2.2070
 6600TIP3    H243996   4.023   1.402  10.649  0.2584 -0.0731  0.3161
 6601TIP3   OH243997   2.697   3.001  11.918 -0.4410  0.1074 -0.0155
 6601TIP3    H143998   2.612   3.011  11.960 -0.0215  0.1553  0.8559
 6601TIP3    H243999   2.686   2.927  11.858 -0.9231 -0.3003  0.5585
 6602TIP3   OH244000   3.075   6.476  12.965  0.0481  0.2963  0.1273
 6602TIP3    H144001   3.068   6.571  12.969 -2.6757  0.1856 -0.3759
 6602TIP3    H244002   3.146   6.460  12.903 -0.2770  2.0137 -0.7449
 6603TIP3   OH244003   7.611   1.912  13.311  0.0607 -0.4132  0.1656
 6603TIP3    H144004   7.634   2.000  13.282  0.1231 -0.8369 -1.1282
 6603TIP3    H244005   7.517   1.905  13.298  0.1282 -0.6950 -0.1986
 6604TIP3   OH244006   6.525   0.196  12.784  0.9631 -0.9021  0.1547
 6604TIP3    H144007   6.575   0.220  12.862  1.0993 -0.1157 -0.1626
 6604TIP3    H244008   6.447   0.251  12.789 -0.9235 -3.4998  1.6894
 6605TIP3   OH244009   0.313   1.336  11.423 -0.0536  0.0660 -0.0066
 6605TIP3    H144010   0.293   1.406  11.360 -1.4610  0.7071  1.1020
 6605TIP3    H244011   0.306   1.256  11.372  1.2063  0.6653 -1.2134
 6606TIP3   OH244012   2.549   1.764  13.086  0.2729 -0.5189  0.0137
 6606TIP3    H144013   2.642   1.789  13.083  0.6037 -1.7364 -0.7665
 6606TIP3    H244014   2.549   1.680  13.132 -0.6158  0.1478  1.2486
 6607TIP3   OH244015   4.080   6.754  10.665  0.8399 -0.1873  0.3630
 6607TIP3    H144016   4.148   6.821  10.656 -0.5798  1.3777  0.8586
 6607TIP3    H244017   4.018   6.774  10.594  0.9937 -1.7544 -0.2464
 6608TIP3   OH244018   0.891   0.804  11.134 -0.1147 -0.6429  0.7648
 6608TIP3    H144019   0.823   0.816  11.201 -0.6710 -1.3735  0.3412
 6608TIP3    H244020   0.961   0.757  11.180 -0.7539 -1.7013  0.6961
 6609TIP3   OH244021   0.747   2.741  10.927  0.5618  0.0289 -0.3434
 6609TIP3    H144022   0.769   2.696  11.008 -1.9614 -0.8073 -0.0392
 6609TIP3    H244023   0.802   2.699  10.861  0.5966 -1.2555  0.4761
 6610TIP3   OH244024   4.335   3.088  18.769  0.3665  0.2244 -0.3276
 6610TIP3    H144025   4.334   3.011  18.712 -0.8238 -0.3109  0.3630
 6610TIP3    H244026   4.297   3.056  18.851  2.5177  0.8393  0.9646
 6611TIP3   OH244027   4.602   5.013  10.839  0.5205  0.4464  0.4808
 6611TIP3    H144028   4.665   4.965  10.784  1.2036  2.4144 -0.5401
 6611TIP3    H244029   4.654   5.045  10.912 -0.0821 -0.8630  1.5440
 6612TIP3   OH244030   5.749   6.504  12.267  0.3510 -0.1197 -0.3799
 6612TIP3    H144031   5.817   6.517  12.201  0.4320 -1.0298 -0.4911
 6612TIP3    H244032   5.795   6.462  12.340  0.1087  0.1911 -0.0457
 6613TIP3   OH244033   2.067   4.639  13.052  0.0792  0.2436  0.2593
 6613TIP3    H144034   2.138   4.580  13.077 -0.3433 -0.1650  0.5059
 6613TIP3    H244035   2.087   4.664  12.962  0.2214 -0.3339  0.1282
 6614TIP3   OH244036   0.753   5.555  11.881  0.7024 -0.4282  0.1903
 6614TIP3    H144037   0.764   5.507  11.963  0.2127 -0.2570  0.3565
 6614TIP3    H244038   0.715   5.490  11.821  1.0762 -0.5578  0.0910
 6615TIP3   OH244039   5.504   6.141  11.347  0.0836  0.0763  0.3409
 6615TIP3    H144040   5.521   6.110  11.258  0.5059 -1.3466  0.9004
 6615TIP3    H244041   5.579   6.198  11.367 -0.6976  1.5242 -0.6891
 6616TIP3   OH244042   1.109   1.656  11.232 -0.2005  0.0576  0.8395
 6616TIP3    H144043   1.162   1.607  11.295  0.3948 -1.0886 -0.5075
 6616TIP3    H244044   1.029   1.604  11.221  0.3427 -0.5627 -0.4332
 6617TIP3   OH244045   6.141   5.137  10.611  0.1729 -0.1732  0.0260
 6617TIP3    H144046   6.159   5.079  10.684 -0.8713 -1.3990 -0.6408
 6617TIP3    H244047   6.157   5.225  10.645  1.0340 -0.7987  1.2926
 6618TIP3   OH244048   4.088   7.568  11.672  0.7349 -0.1144  0.5990
 6618TIP3    H144049   4.008   7.606  11.710  0.1501 -0.1010 -0.6051
 6618TIP3    H244050   4.073   7.474  11.673 -0.0428 -0.0451 -1.1529
 6619TIP3   OH244051   4.070   6.447  12.596  0.0905 -0.0386  0.5921
 6619TIP3    H144052   4.001   6.460  12.661 -0.7776 -0.8818 -0.1255
 6619TIP3    H244053   4.024   6.449  12.512  1.1853  0.9948 -0.0028
 6620TIP3   OH244054   5.117   0.104  11.657  0.5671  0.1234 -0.0424
 6620TIP3    H144055   5.194   0.072  11.610  0.2007 -0.4438 -0.2664
 6620TIP3    H244056   5.054   0.124  11.588  0.8005  1.4010  0.0862
 6621TIP3   OH244057   4.858   6.843  12.054 -0.0351 -0.0292  0.5183
 6621TIP3    H144058   4.916   6.828  11.980 -0.2925  3.6523 -0.6412
 6621TIP3    H244059   4.916   6.870  12.125 -0.0524  1.4335  0.0281
 6622TIP3   OH244060   6.632   3.105  11.368  0.1611  0.0174 -0.0517
 6622TIP3    H144061   6.718   3.124  11.331  0.5968 -1.4052  0.1484
 6622TIP3    H244062   6.587   3.058  11.298  0.4890 -1.4650  0.6822
 6623TIP3   OH244063   2.481   2.747  11.065  0.4085 -0.1112 -0.0685
 6623TIP3    H144064   2.544   2.704  11.008 -1.2303 -0.5570 -1.6247
 6623TIP3    H244065   2.422   2.678  11.093 -0.2691  0.5414  0.1600
 6624TIP3   OH244066   6.455   2.636  12.565  0.2012  0.3881  0.5286
 6624TIP3    H144067   6.500   2.669  12.487 -0.9941 -0.7791 -0.7023
 6624TIP3    H244068   6.419   2.714  12.606  1.2372  1.0786  0.1902
 6625TIP3   OH244069   1.736   7.174  12.251  0.0976  0.2511  0.2323
 6625TIP3    H144070   1.758   7.258  12.291 -1.6121  0.4983  0.7605
 6625TIP3    H244071   1.670   7.196  12.185  0.5425 -0.5388 -0.4908
 6626TIP3   OH244072   7.357   0.546  10.853 -0.2971 -0.1494 -0.0070
 6626TIP3    H144073   7.449   0.552  10.827 -0.1164 -2.2009  0.0440
 6626TIP3    H244074   7.348   0.612  10.922  0.8873  0.7016 -0.6294
 6627TIP3   OH244075   6.881   1.214  11.132  0.0513 -0.4732 -0.6888
 6627TIP3    H144076   6.893   1.131  11.088  0.7281  0.0327 -1.4729
 6627TIP3    H244077   6.902   1.280  11.067 -0.1053  0.3150  0.0328
 6628TIP3   OH244078   2.997   6.803  12.151  0.2683 -0.0932 -0.2831
 6628TIP3    H144079   3.001   6.897  12.132  2.0439 -0.2307 -0.7655
 6628TIP3    H244080   3.072   6.766  12.105  1.7031 -1.2468  2.7132
 6629TIP3   OH244081   3.815   0.272  12.773  0.1943 -0.2986 -0.4029
 6629TIP3    H144082   3.832   0.223  12.693 -0.8434  0.1122 -0.8842
 6629TIP3    H244083   3.753   0.218  12.822  1.5500 -1.0224  0.6091
 6630TIP3   OH244084   6.331   1.844  12.015 -0.6261 -0.3616  0.2432
 6630TIP3    H144085   6.293   1.797  12.089  1.1885 -1.2983  0.6467
 6630TIP3    H244086   6.411   1.883  12.050 -0.8099  0.9415 -0.7278
 6631TIP3   OH244087   2.374   0.994  12.957 -0.5089 -0.6872  0.8082
 6631TIP3    H144088   2.399   1.086  12.958 -2.8423  0.0204  0.1878
 6631TIP3    H244089   2.405   0.961  12.873 -1.3350  0.0820  0.1843
 6632TIP3   OH244090   5.506   1.153  11.752 -0.5911  0.3434  0.7563
 6632TIP3    H144091   5.488   1.100  11.830 -0.8937 -0.4806  0.1474
 6632TIP3    H244092   5.541   1.090  11.688  1.0307  1.2617  0.7013
 6633TIP3   OH244093   1.509   1.591  12.348 -0.0019  0.4687  0.8520
 6633TIP3    H144094   1.584   1.593  12.407 -0.0769 -2.0989  1.1353
 6633TIP3    H244095   1.446   1.533  12.390 -3.0684  3.9065  1.5389
 6634TIP3   OH244096   6.223   7.258  12.331  0.3942  0.5794 -0.1190
 6634TIP3    H144097   6.273   7.307  12.266  0.6787  0.5032  0.0408
 6634TIP3    H244098   6.175   7.324  12.380 -0.9830  0.5475 -1.3587
 6635TIP3   OH244099   7.583   2.827  11.318 -0.0864 -0.6505 -0.6050
 6635TIP3    H144100   7.529   2.788  11.387  1.2669 -2.5376 -0.5506
 6635TIP3    H244101   7.649   2.878  11.365 -2.2859  2.6268 -0.6766
 6636TIP3   OH244102   3.435   0.570  12.405 -0.0691  0.2506  0.1817
 6636TIP3    H144103   3.525   0.552  12.431  0.0818  0.1014 -0.4332
 6636TIP3    H244104   3.383   0.548  12.482  0.4303  0.4608  0.5842
 6637TIP3   OH244105   7.074   5.526  12.006  0.0484  0.5158  0.1037
 6637TIP3    H144106   7.008   5.563  12.065 -0.2486 -1.7038  1.2380
 6637TIP3    H244107   7.156   5.568  12.032 -0.6998  2.6985 -0.7858
 6638TIP3   OH244108   7.189   0.348  11.630 -0.0292 -0.2533 -0.0457
 6638TIP3    H144109   7.189   0.254  11.648  2.2549 -0.2146  0.4123
 6638TIP3    H244110   7.230   0.356  11.544 -0.7015  0.3271 -0.3296
 6639TIP3   OH244111   1.491   3.963  12.641 -0.0229  0.0370  0.3598
 6639TIP3    H144112   1.482   3.932  12.551 -1.0520 -0.6984  0.6909
 6639TIP3    H244113   1.401   3.974  12.671  0.3159  0.8650  1.1088
 6640TIP3   OH244114   5.837   5.861  10.464 -0.7592 -0.3355  0.3589
 6640TIP3    H144115   5.893   5.796  10.422  1.3584  1.2975  0.5083
 6640TIP3    H244116   5.797   5.814  10.537  2.7171 -0.9392  2.0749
 6641TIP3   OH244117   1.154   5.610  12.578 -0.1444 -0.5529 -0.1339
 6641TIP3    H144118   1.149   5.659  12.496  0.0497 -0.4302 -0.0730
 6641TIP3    H244119   1.075   5.636  12.626 -0.2721 -0.6461 -0.2923
 6642TIP3   OH244120   4.056   0.957  11.774 -0.2665 -0.1509  0.1360
 6642TIP3    H144121   4.065   0.863  11.758  0.5504 -0.2731  1.2045
 6642TIP3    H244122   4.100   0.972  11.858 -2.9128  0.7243  1.4800
 6643TIP3   OH244123   5.699   1.064  11.469  0.0125 -0.3068 -0.6628
 6643TIP3    H144124   5.628   1.015  11.510  0.2499  1.5186  2.2261
 6643TIP3    H244125   5.778   1.015  11.490  0.1856  0.8346  1.7026
 6644TIP3   OH244126   5.049   7.423  13.138  0.2447  0.1115  0.0159
 6644TIP3    H144127   4.981   7.444  13.074  0.4039 -1.3002 -0.6489
 6644TIP3    H244128   5.009   7.358  13.196  0.9651 -0.6124 -0.2856
 6645TIP3   OH244129   2.059   3.055  10.400  0.3695 -0.0150 -0.5936
 6645TIP3    H144130   1.991   3.025  10.459 -0.2016  0.8645 -0.7771
 6645TIP3    H244131   2.011   3.090  10.324  0.8780  2.4394  0.1103
 6646TIP3   OH244132   2.227   6.877  11.712 -0.1080 -0.1316 -0.2240
 6646TIP3    H144133   2.275   6.927  11.646 -0.1734 -0.7760 -0.7735
 6646TIP3    H244134   2.275   6.890  11.793  1.2031 -1.0220 -0.8249
 6647TIP3   OH244135   7.080   1.111  11.725  0.1460 -0.5364  0.0646
 6647TIP3    H144136   6.987   1.132  11.718  0.1649 -0.6777 -0.6807
 6647TIP3    H244137   7.099   1.118  11.818 -0.1492  1.4581  0.0161
 6648TIP3   OH244138   5.172   6.793  11.419  0.5100  0.1798  0.4511
 6648TIP3    H144139   5.233   6.791  11.493 -1.0077 -3.4783  1.8566
 6648TIP3    H244140   5.202   6.722  11.361  0.4292  1.6081 -1.4416
 6649TIP3   OH244141   2.067   2.031  10.405 -0.4827 -0.1750  0.3803
 6649TIP3    H144142   2.140   1.987  10.449 -1.0303 -0.1504  1.3395
 6649TIP3    H244143   2.110   2.094  10.347  0.2693  0.2237  1.3327
 6650TIP3   OH244144   6.770   6.404  12.836  0.0004 -0.0721  0.0337
 6650TIP3    H144145   6.739   6.392  12.926  0.9513 -0.5409  0.3070
 6650TIP3    H244146   6.720   6.340  12.785  1.1523 -1.4844  0.6209
 6651TIP3   OH244147   3.154   2.880  10.963 -0.2014  0.1160  0.3459
 6651TIP3    H144148   3.062   2.895  10.939 -0.5052  0.0148  1.4257
 6651TIP3    H244149   3.171   2.789  10.939  0.0843  0.5449 -1.2527
 6652TIP3   OH244150   2.375   3.010  11.237  1.0580  0.1254  0.1806
 6652TIP3    H144151   2.331   3.081  11.189 -2.2131 -1.8511 -0.0840
 6652TIP3    H244152   2.406   2.951  11.169 -0.2142 -0.8252  0.3953
 6653TIP3   OH244153   7.458   1.297  12.672  0.0251 -0.4040 -0.1529
 6653TIP3    H144154   7.428   1.362  12.735 -0.9463 -0.1758 -0.8344
 6653TIP3    H244155   7.444   1.213  12.715  1.0063 -0.1840  0.6140
 6654TIP3   OH244156   3.155   6.930  10.765 -0.0354 -0.2258 -0.3606
 6654TIP3    H144157   3.136   7.016  10.802  0.0211 -0.0600 -0.7176
 6654TIP3    H244158   3.087   6.873  10.800  0.7138 -0.3360  0.9700
 6655TIP3   OH244159   0.063   5.835  10.926 -0.2570 -0.4164 -0.0187
 6655TIP3    H144160   0.089   5.762  10.871  0.6229 -0.1464  0.0295
 6655TIP3    H244161   0.052   5.908  10.865  0.1078 -0.2727  0.0872
 6656TIP3   OH244162   4.950   7.092  10.965 -0.6862  0.2019  0.4275
 6656TIP3    H144163   4.871   7.057  11.006 -0.5167 -1.4857 -0.5969
 6656TIP3    H244164   5.021   7.037  10.999 -0.3515 -0.2325 -0.9028
 6657TIP3   OH244165   7.230   3.426  12.190 -0.6050 -0.3722 -0.1674
 6657TIP3    H144166   7.198   3.493  12.251 -1.2058 -0.2634 -0.5898
 6657TIP3    H244167   7.285   3.473  12.129 -1.6063 -0.1171 -0.9004
 6658TIP3   OH244168   0.162   7.676  12.427 -0.3972 -0.3519 -0.1373
 6658TIP3    H144169   0.179   7.743  12.493 -0.2350 -0.1469 -0.3844
 6658TIP3    H244170   0.068   7.681  12.411 -0.1965  0.7057 -1.0887
 6659TIP3   OH244171   4.270   3.004  11.919 -0.1543  0.2690 -0.3236
 6659TIP3    H144172   4.293   2.944  11.848  0.7281 -0.8736  0.8759
 6659TIP3    H244173   4.354   3.028  11.959 -0.7161 -0.4750  1.3921
 6660TIP3   OH244174   6.194   1.744  12.552  0.1042 -0.2009  0.0690
 6660TIP3    H144175   6.289   1.754  12.546  0.0867  0.4384  0.6470
 6660TIP3    H244176   6.175   1.758  12.645 -0.7539  1.7437 -0.3377
 6661TIP3   OH244177   0.215   1.742  12.607 -0.1552  0.3376 -0.2641
 6661TIP3    H144178   0.289   1.740  12.668  0.4619 -2.3701 -0.9742
 6661TIP3    H244179   0.248   1.791  12.531  1.2472 -1.4174 -0.8649
 6662TIP3   OH244180   2.969   3.063  10.705  0.3664  0.0906  0.5105
 6662TIP3    H144181   2.938   3.153  10.714  1.0595  0.3483  0.3946
 6662TIP3    H244182   3.062   3.072  10.686  0.6548 -0.6860  1.5032
 6663TIP3   OH244183   1.540   5.304  12.913  0.6354  0.0590  0.3074
 6663TIP3    H144184   1.546   5.220  12.867 -0.2494  0.4755 -0.5804
 6663TIP3    H244185   1.562   5.282  13.004  0.4056 -1.1334  0.0928
 6664TIP3   OH244186   6.800   2.096  11.814 -0.0049  0.1398  0.2404
 6664TIP3    H144187   6.741   2.102  11.740 -3.4409 -1.7286  2.5603
 6664TIP3    H244188   6.777   2.169  11.870  0.2082 -0.3168  0.9401
 6665TIP3   OH244189   1.920   3.594  13.120 -0.2473  0.8488  0.3230
 6665TIP3    H144190   1.892   3.667  13.175  0.1774  2.0015 -0.9565
 6665TIP3    H244191   1.948   3.634  13.038  0.8858 -0.6658 -0.0802
 6666TIP3   OH244192   5.984   3.951  10.860  0.0359 -0.4054 -0.0141
 6666TIP3    H144193   6.052   3.948  10.793  0.0095 -1.6313  0.0021
 6666TIP3    H244194   5.941   3.866  10.855 -1.7007  0.4411 -0.2059
 6667TIP3   OH244195   3.196   7.219  12.252 -0.0081 -0.4553  0.9307
 6667TIP3    H144196   3.270   7.235  12.194 -0.7064 -0.1171  0.1274
 6667TIP3    H244197   3.222   7.259  12.335  0.1290  0.8972  0.2538
 6668TIP3   OH244198   7.009   7.101  11.825  0.2756 -0.0940  0.4445
 6668TIP3    H144199   6.926   7.061  11.853  0.2837 -0.8808 -0.5955
 6668TIP3    H244200   7.064   7.098  11.904 -1.5454  3.0315  2.0030
 6669TIP3   OH244201   5.542   7.411  12.662 -0.0784 -0.1072 -0.2940
 6669TIP3    H144202   5.517   7.462  12.585 -1.5566 -2.4961 -1.5192
 6669TIP3    H244203   5.521   7.320  12.638  0.3046 -1.0400  2.5863
 6670TIP3   OH244204   6.482   4.499  13.248 -0.0978  0.0296 -0.0895
 6670TIP3    H144205   6.530   4.566  13.199  0.1146  0.6695  0.9605
 6670TIP3    H244206   6.412   4.547  13.291 -0.9212 -0.6949 -0.5820
 6671TIP3   OH244207   4.319   1.554  12.316  0.4420 -0.4297  0.1690
 6671TIP3    H144208   4.320   1.606  12.396  2.7853 -0.0955 -0.0143
 6671TIP3    H244209   4.298   1.616  12.247  0.5783 -0.2719  0.2673
 6672TIP3   OH244210   6.634   7.138  10.947 -0.0069 -0.6538 -0.2214
 6672TIP3    H144211   6.723   7.167  10.966  0.3210 -1.6275 -0.2390
 6672TIP3    H244212   6.597   7.208  10.894  0.4213  0.2109  0.6012
 6673TIP3   OH244213   7.229   5.834  12.860  0.6911 -0.3199  0.0282
 6673TIP3    H144214   7.155   5.849  12.802  1.1782 -0.6892 -0.7125
 6673TIP3    H244215   7.201   5.762  12.917  0.4449 -0.3996 -0.1913
 6674TIP3   OH244216   6.963   3.036  12.662  0.0394  0.0981  0.1438
 6674TIP3    H144217   6.972   2.942  12.677  1.2150  0.2539  0.5150
 6674TIP3    H244218   6.870   3.053  12.676 -0.5992 -1.3263 -1.8944
 6675TIP3   OH244219   0.431   6.816  12.890 -0.0894  0.4491  0.1753
 6675TIP3    H144220   0.364   6.835  12.956  0.8954 -0.4575  1.4966
 6675TIP3    H244221   0.442   6.899  12.844  0.2542  1.5965  2.1827
 6676TIP3   OH244222   6.460   7.549  10.734 -0.6422  0.6711 -0.0512
 6676TIP3    H144223   6.419   7.472  10.772 -1.6664  1.0089 -0.4461
 6676TIP3    H244224   6.402   7.622  10.759  0.4830  1.3723  0.6058
 6677TIP3   OH244225   3.361   0.585  11.322 -0.0892 -0.8619 -0.4628
 6677TIP3    H144226   3.411   0.525  11.268  0.2884 -1.4291  0.4862
 6677TIP3    H244227   3.340   0.658  11.264 -1.6787 -2.4636 -2.0341
 6678TIP3   OH244228   3.840   0.908  10.683 -0.8044  0.0346 -0.0748
 6678TIP3    H144229   3.871   0.996  10.704 -2.5635  0.7620 -0.3356
 6678TIP3    H244230   3.919   0.861  10.655  0.4903  0.9550  1.7753
 6679TIP3   OH244231   4.397   2.972  12.907 -0.6828 -0.3348  0.0435
 6679TIP3    H144232   4.346   3.053  12.901 -0.2080  0.0052  0.4166
 6679TIP3    H244233   4.487   3.003  12.923 -0.8610 -0.9733  2.6409
 6680TIP3   OH244234   5.668   5.576  11.749 -0.0744 -0.3546 -0.5691
 6680TIP3    H144235   5.713   5.495  11.725 -2.1018 -1.1724 -1.9394
 6680TIP3    H244236   5.732   5.645  11.732  1.9635 -1.6587  1.3544
 6681TIP3   OH244237   4.124   0.069  11.495  0.2177  0.3841  0.0447
 6681TIP3    H144238   4.098   0.000  11.556  0.5530  0.2388  0.0273
 6681TIP3    H244239   4.150   0.142  11.550 -0.1613  0.5061  0.0634
 6682TIP3   OH244240   0.609   2.064  12.955  0.0041  0.0204  0.2243
 6682TIP3    H144241   0.578   2.101  13.038 -0.1693  1.0245 -0.2819
 6682TIP3    H244242   0.531   2.057  12.901  0.6310  3.1092 -1.2721
 6683TIP3   OH244243   4.520   4.666  11.891  0.3767  0.3735  0.1752
 6683TIP3    H144244   4.450   4.669  11.956 -0.3097  1.3454 -0.5830
 6683TIP3    H244245   4.527   4.574  11.867 -2.1660  0.4813 -1.3231
 6684TIP3   OH244246   2.016   0.777  13.116 -0.0784  0.2625  0.5171
 6684TIP3    H144247   2.110   0.788  13.110 -0.0618  1.2428  2.0790
 6684TIP3    H244248   1.980   0.863  13.094 -0.4292  0.7770  2.8419
 6685TIP3   OH244249   5.736   3.202  12.107 -0.3074 -0.5874  0.0763
 6685TIP3    H144250   5.735   3.110  12.081 -1.2367 -0.6962  0.4703
 6685TIP3    H244251   5.665   3.210  12.170  0.4621  0.1679  0.8767
 6686TIP3   OH244252   3.423   4.039  10.650  0.4272  1.1062  0.1202
 6686TIP3    H144253   3.484   4.016  10.720  0.2904 -1.4815 -0.5201
 6686TIP3    H244254   3.337   4.039  10.692  0.6960  4.5601  0.9773
 6687TIP3   OH244255   7.061   7.014  12.186 -0.1191 -0.4122 -0.0566
 6687TIP3    H144256   7.050   6.941  12.248  1.3694  0.7505  1.7051
 6687TIP3    H244257   7.128   6.983  12.125 -1.1278 -1.3320 -0.7325
 6688TIP3   OH244258   1.698   1.125  11.082 -0.6521 -0.0511  0.6272
 6688TIP3    H144259   1.682   1.215  11.053  0.4863  0.4521  1.4948
 6688TIP3    H244260   1.753   1.087  11.013 -2.8897 -0.8402 -0.8559
 6689TIP3   OH244261   1.979   2.574  12.205  0.4544  0.1681 -0.2992
 6689TIP3    H144262   1.954   2.482  12.195  0.0289  0.3221 -0.6863
 6689TIP3    H244263   2.074   2.574  12.195  0.3726 -0.1196 -1.1419
 6690TIP3   OH244264   6.358   2.908  11.363 -0.0737  0.7098  0.4724
 6690TIP3    H144265   6.342   2.970  11.291 -0.4865  1.8850  1.5312
 6690TIP3    H244266   6.271   2.884  11.394  0.1016  0.3777  0.7175
 6691TIP3   OH244267   3.755   0.421  11.564 -0.2364 -0.0801 -0.3760
 6691TIP3    H144268   3.660   0.431  11.561 -0.1494  0.9431 -0.1316
 6691TIP3    H244269   3.778   0.439  11.655  0.3988  1.9814 -0.8937
 6692TIP3   OH244270   7.327   6.404  10.636  0.8619 -0.0247  0.6397
 6692TIP3    H144271   7.392   6.376  10.571  0.7729  0.5109  0.3135
 6692TIP3    H244272   7.323   6.332  10.699  0.7489 -0.6776 -0.0973
 6693TIP3   OH244273   3.548   4.637  12.001  0.2184  0.0436  0.6041
 6693TIP3    H144274   3.507   4.607  12.082  0.3659 -1.2723  0.2153
 6693TIP3    H244275   3.639   4.608  12.007 -0.1440 -1.5327 -0.7037
 6694TIP3   OH244276   7.316   3.258  12.801 -0.5637 -0.2588 -0.1053
 6694TIP3    H144277   7.236   3.290  12.842 -0.5507 -1.6195  1.0841
 6694TIP3    H244278   7.285   3.208  12.725 -0.6694  1.2328 -1.0693
 6695TIP3   OH244279   6.960   7.360  10.740 -0.1708  0.2696  0.3023
 6695TIP3    H144280   7.004   7.382  10.822  0.2634  1.3486 -0.2003
 6695TIP3    H244281   6.973   7.436  10.685 -2.1719  0.3878 -0.0908
 6696TIP3   OH244282   1.355   0.024  11.320  0.4015  0.1486  0.1744
 6696TIP3    H144283   1.441   0.050  11.352  0.3189 -1.6316  1.9919
 6696TIP3    H244284   1.373  -0.034  11.246  0.8685 -1.5840  1.5981
 6697TIP3   OH244285   7.031   4.337  11.977 -0.3922  0.6999  0.8296
 6697TIP3    H144286   6.943   4.331  11.941  0.0799 -2.1514 -0.0591
 6697TIP3    H244287   7.080   4.390  11.914 -0.7145 -0.3504 -0.3236
 6698TIP3   OH244288   0.526   2.863  10.625  0.2996  0.1181  0.6140
 6698TIP3    H144289   0.544   2.772  10.650  0.0274  0.2866  1.4517
 6698TIP3    H244290   0.607   2.893  10.583 -0.1895 -1.0414 -1.2686
 6699TIP3   OH244291   5.877   4.684  12.628 -0.3537 -0.0140 -0.3072
 6699TIP3    H144292   5.961   4.715  12.662  0.8952 -0.2788 -2.9319
 6699TIP3    H244293   5.856   4.745  12.557 -1.4147 -1.1056 -0.9554
 6700TIP3   OH244294   3.137   0.896  11.596 -0.2600  0.1244 -0.4255
 6700TIP3    H144295   3.190   0.820  11.573 -1.3727 -0.6529 -0.4823
 6700TIP3    H244296   3.192   0.971  11.574  0.0317 -0.6312 -2.4259
 6701TIP3   OH244297   1.410   6.478  10.688  0.3942  0.2392  0.0072
 6701TIP3    H144298   1.452   6.455  10.770 -0.1843  0.5853  0.4120
 6701TIP3    H244299   1.386   6.394  10.648 -0.9487  0.0913  1.0661
 6702TIP3   OH244300   1.848   5.030  10.916 -0.5334  0.2822  0.0344
 6702TIP3    H144301   1.904   5.092  10.962  1.5484 -0.8675 -0.7982
 6702TIP3    H244302   1.883   4.944  10.940 -2.5270 -0.5459  0.1573
 6703TIP3   OH244303   2.959   1.085  11.144 -0.3877 -1.0293 -0.5774
 6703TIP3    H144304   3.040   1.060  11.099  0.3453  1.7426 -1.0106
 6703TIP3    H244305   2.957   1.031  11.223  2.7223 -0.1556  0.2293
 6704TIP3   OH244306   0.755   6.694  10.687 -0.4459 -0.3769  0.2552
 6704TIP3    H144307   0.678   6.650  10.721 -0.4699  0.3381  1.1488
 6704TIP3    H244308   0.804   6.625  10.642 -1.6076 -0.8278 -0.3513
 6705TIP3   OH244309   4.432   2.734  13.022 -0.0364  0.3110 -0.3907
 6705TIP3    H144310   4.367   2.726  13.092 -0.1967  0.2873 -0.5437
 6705TIP3    H244311   4.426   2.825  12.993 -0.7959  0.0169 -1.1788
 6706TIP3   OH244312   4.834   7.169  11.361  0.0700 -0.0839 -0.0154
 6706TIP3    H144313   4.879   7.116  11.294  0.5915  1.1944 -0.7101
 6706TIP3    H244314   4.742   7.168  11.334  0.0761 -0.6108 -0.0324
 6707TIP3   OH244315   6.016   0.948  10.657  0.3320 -0.1313  0.1781
 6707TIP3    H144316   6.106   0.974  10.636 -0.1307  2.5499  1.1162
 6707TIP3    H244317   6.023   0.855  10.681  2.4395 -0.6056 -1.8288
 6708TIP3   OH244318   4.435   6.570  12.155 -0.0485 -0.2925  0.5694
 6708TIP3    H144319   4.497   6.580  12.083 -1.2309  2.1169 -0.2616
 6708TIP3    H244320   4.486   6.588  12.234  0.2571  2.5449 -0.1619
 6709TIP3   OH244321   4.791   4.293  12.590  0.7596  0.2081 -1.1264
 6709TIP3    H144322   4.838   4.211  12.577 -2.3503 -1.9328 -0.1310
 6709TIP3    H244323   4.783   4.300  12.685 -1.6637 -0.0877 -1.2514
 6710TIP3   OH244324   7.539   0.444  12.645 -0.8468  0.6707 -0.3517
 6710TIP3    H144325   7.488   0.435  12.564 -1.6537  0.1286  0.2030
 6710TIP3    H244326   7.516   0.531  12.677 -2.4807 -0.0529  0.5678
 6711TIP3   OH244327   2.461   6.204  13.303  0.4172  0.3715  0.6127
 6711TIP3    H144328   2.367   6.201  13.321  0.1838  0.4553 -0.5584
 6711TIP3    H244329   2.493   6.118  13.331 -0.2770 -0.2370 -0.4154
 6712TIP3   OH244330   7.314   5.752  11.105 -0.5575  0.0681  0.1792
 6712TIP3    H144331   7.230   5.798  11.110 -0.8831 -0.5120  0.1406
 6712TIP3    H244332   7.379   5.818  11.129 -0.8492  1.0226 -1.4710
 6713TIP3   OH244333   0.205   2.272  13.583 -0.2017 -0.2204 -0.6515
 6713TIP3    H144334   0.118   2.311  13.576 -0.3968 -0.7300 -1.1016
 6713TIP3    H244335   0.257   2.338  13.629 -0.9921 -0.1720  0.2055
 6714TIP3   OH244336   0.093   6.029  10.731 -0.5425 -0.1984  0.7550
 6714TIP3    H144337   0.170   6.053  10.678 -1.9269 -1.3499 -1.9636
 6714TIP3    H244338   0.055   6.113  10.757 -1.7354  0.6602 -3.1481
 6715TIP3   OH244339   7.490   2.789  10.784  0.1606  0.3670  0.2391
 6715TIP3    H144340   7.475   2.861  10.846  0.2655  0.8313 -0.2650
 6715TIP3    H244341   7.583   2.767  10.795  0.4655  1.2062 -0.5340
 6716TIP3   OH244342   4.932   1.000  13.598  0.1129  0.1650  0.4858
 6716TIP3    H144343   4.859   1.051  13.631  0.1142  2.2162 -2.3195
 6716TIP3    H244344   5.008   1.059  13.602  0.5011 -0.1532 -1.1914
 6717TIP3   OH244345   4.982   7.634  11.044 -0.5725 -0.3457  0.6870
 6717TIP3    H144346   4.985   7.670  10.955  0.2812 -0.1773  0.7744
 6717TIP3    H244347   4.910   7.571  11.042 -0.6940 -0.1944 -0.0633
 6718TIP3   OH244348   7.450   0.584  11.226 -0.0015  0.2000 -0.0039
 6718TIP3    H144349   7.457   0.626  11.312  0.3955  1.7959 -0.7762
 6718TIP3    H244350   7.521   0.519  11.225  0.2746  0.4786  0.7149
 6719TIP3   OH244351   4.652   4.197  11.764 -0.1001 -0.2350  0.1680
 6719TIP3    H144352   4.668   4.249  11.843 -1.6607  0.9049 -0.2228
 6719TIP3    H244353   4.629   4.261  11.697 -0.4017 -1.3063 -0.7844
 6720TIP3   OH244354   6.289   3.789  12.489  0.2962 -0.3105  0.5335
 6720TIP3    H144355   6.269   3.860  12.428  0.6108 -0.2981  0.4464
 6720TIP3    H244356   6.336   3.725  12.436  0.5030 -0.3345  0.7472
 6721TIP3   OH244357   7.366   0.216  12.327 -0.6268 -0.1994  0.7928
 6721TIP3    H144358   7.332   0.305  12.330 -2.1157 -0.7677  2.0306
 6721TIP3    H244359   7.294   0.164  12.292 -0.3311 -1.1439  1.5529
 6722TIP3   OH244360   3.336   4.744  13.098  0.1946  0.1363  0.4161
 6722TIP3    H144361   3.256   4.756  13.148 -0.3714 -1.1480 -0.1575
 6722TIP3    H244362   3.365   4.834  13.078 -2.4162  0.6856 -1.4736
 6723TIP3   OH244363   2.222   3.591  10.742 -0.1500 -1.1095  0.4498
 6723TIP3    H144364   2.247   3.520  10.684 -0.8287  0.1497 -1.4705
 6723TIP3    H244365   2.282   3.663  10.721 -1.2704 -0.1827  0.3083
 6724TIP3   OH244366   2.067   4.113  11.705 -0.0418  0.6642 -0.0360
 6724TIP3    H144367   2.021   4.063  11.773 -0.6323  3.3308  1.7095
 6724TIP3    H244368   2.158   4.114  11.734  0.0899  0.0998 -0.4179
 6725TIP3   OH244369   2.829   0.961  10.729 -0.3573 -0.0857 -0.6110
 6725TIP3    H144370   2.923   0.944  10.722 -0.5323 -0.3736 -3.1472
 6725TIP3    H244371   2.791   0.876  10.751 -0.0468  0.1039  0.7883
 6726TIP3   OH244372   4.329   4.039  11.927  0.5671 -0.0292 -0.2252
 6726TIP3    H144373   4.338   4.078  11.840 -2.6939 -1.2638 -1.2828
 6726TIP3    H244374   4.255   4.086  11.967  0.9011 -0.6552  1.1873
 6727TIP3   OH244375   4.021   0.586  12.342 -0.2338 -0.2884  0.5481
 6727TIP3    H144376   3.972   0.589  12.424  1.6017 -1.2987  1.7379
 6727TIP3    H244377   4.045   0.677  12.325 -1.0924  0.0019  0.8115
 6728TIP3   OH244378   5.237   1.102  11.401 -0.3539  0.4744 -0.1232
 6728TIP3    H144379   5.236   1.087  11.306  0.7091  1.5653 -0.3266
 6728TIP3    H244380   5.280   1.186  11.411  1.0406 -0.3765  1.4328
 6729TIP3   OH244381   0.596   3.846  13.080  0.1313  0.0348 -0.1735
 6729TIP3    H144382   0.600   3.882  12.991 -0.4538  2.5744  0.7489
 6729TIP3    H244383   0.673   3.882  13.124  0.0715 -0.6690  0.5312
 6730TIP3   OH244384   5.482   2.594  11.124  0.2209  0.0086 -0.8688
 6730TIP3    H144385   5.438   2.517  11.160  2.3163  0.1853  2.6163
 6730TIP3    H244386   5.433   2.668  11.158  0.3386  0.2190 -1.1514
 6731TIP3   OH244387   0.652   5.801  11.615  0.2432  0.4502 -0.5107
 6731TIP3    H144388   0.727   5.834  11.664  0.3597  0.7035 -0.8488
 6731TIP3    H244389   0.691   5.753  11.541  0.1516 -2.6475  1.2656
 6732TIP3   OH244390   4.576   3.953  11.859 -0.0458  0.1668  0.1935
 6732TIP3    H144391   4.488   3.946  11.897 -0.0138 -0.2089  0.2091
 6732TIP3    H244392   4.594   4.046  11.858  0.0742  0.1724  1.4162
 6733TIP3   OH244393   3.682   6.810  12.327 -0.3700  0.0092  0.1422
 6733TIP3    H144394   3.629   6.731  12.336  0.6177 -0.7382 -0.5232
 6733TIP3    H244395   3.757   6.796  12.386  0.4365 -0.0973 -0.8910
 6734TIP3   OH244396   7.667   1.596  13.361 -0.0180 -0.4101 -0.1835
 6734TIP3    H144397   7.576   1.595  13.390  0.3660 -1.6913  1.0566
 6734TIP3    H244398   7.681   1.510  13.321  0.0745  0.5482 -2.3855
 6735TIP3   OH244399   0.561   6.491  11.009 -0.6878 -0.5734 -1.0182
 6735TIP3    H144400   0.610   6.551  11.065 -1.6069  1.1465 -1.9914
 6735TIP3    H244401   0.575   6.405  11.049  0.9764  0.2001  0.2090
 6736TIP3   OH244402   5.849   5.779  11.438 -0.6306  0.0544 -0.0563
 6736TIP3    H144403   5.830   5.827  11.519  2.6270  0.7774  0.3891
 6736TIP3    H244404   5.844   5.845  11.369 -0.7422  0.0111 -0.0904
 6737TIP3   OH244405   2.112   1.361  11.895  0.2671  0.0221 -0.2908
 6737TIP3    H144406   2.180   1.405  11.845  0.4018  0.5911  0.3673
 6737TIP3    H244407   2.030   1.403  11.866 -0.0719 -2.0490 -2.5677
 6738TIP3   OH244408   1.582   0.619  12.472  0.2328 -0.4227 -0.1915
 6738TIP3    H144409   1.543   0.649  12.555  1.7226 -0.7408  0.6617
 6738TIP3    H244410   1.517   0.641  12.406 -1.0488 -0.2332  1.0738
 6739TIP3   OH244411   3.464   7.029  11.151  0.2631  0.2454  0.0524
 6739TIP3    H144412   3.542   7.070  11.113  0.7885 -0.1759  0.6485
 6739TIP3    H244413   3.495   6.992  11.234 -0.7464  0.7095  0.6428
 6740TIP3   OH244414   5.526   4.533  12.316  0.2858  0.1069  0.1385
 6740TIP3    H144415   5.588   4.469  12.353  0.0552  0.6022  1.4175
 6740TIP3    H244416   5.580   4.608  12.293  0.5277 -0.4462 -1.1828
 6741TIP3   OH244417   3.743   0.293  10.976  0.4250  0.1385 -0.0654
 6741TIP3    H144418   3.706   0.378  10.953  1.3126  0.5413 -0.0607
 6741TIP3    H244419   3.829   0.313  11.012  1.6719 -0.8685 -2.2148
 6742TIP3   OH244420   2.965   7.088  12.138 -0.5101 -0.0006  0.1744
 6742TIP3    H144421   2.898   7.151  12.164  0.1914  0.8284  0.0145
 6742TIP3    H244422   3.046   7.121  12.177 -0.0587 -0.5757 -0.2559
 6743TIP3   OH244423   6.819   1.177  11.762  0.0070 -0.2092 -0.0729
 6743TIP3    H144424   6.797   1.092  11.725 -1.6808  0.8621 -1.7295
 6743TIP3    H244425   6.745   1.200  11.817 -0.0449  0.6260 -0.4753
 6744TIP3   OH244426   2.716   3.187  12.199  0.2971  0.6494 -0.7071
 6744TIP3    H144427   2.663   3.251  12.152  1.8873  0.3380 -3.1388
 6744TIP3    H244428   2.804   3.225  12.200  0.8756 -0.6344 -0.5170
 6745TIP3   OH244429   3.208   1.985  11.462  0.0378 -0.0663 -0.1371
 6745TIP3    H144430   3.133   1.950  11.414  0.5193 -0.3795 -0.6649
 6745TIP3    H244431   3.284   1.949  11.418  0.5161  0.5621  0.1537
 6746TIP3   OH244432   3.529   5.219  13.278  0.3007  0.1629 -0.2538
 6746TIP3    H144433   3.579   5.282  13.330  0.0631 -1.5915  2.2693
 6746TIP3    H244434   3.448   5.266  13.257 -0.8789  0.1625  3.5008
 6747TIP3   OH244435   1.819   0.671  13.290  0.2047  0.0798 -0.4268
 6747TIP3    H144436   1.766   0.610  13.240 -1.3211  1.2589 -0.3338
 6747TIP3    H244437   1.888   0.699  13.230 -0.4820  0.0411 -1.2371
 6748TIP3   OH244438   0.788   0.931  12.868 -0.0452  0.3557 -0.3581
 6748TIP3    H144439   0.697   0.959  12.875 -0.5686 -1.3619  0.1999
 6748TIP3    H244440   0.821   0.933  12.957  0.6665  1.5252 -0.6258
 6749TIP3   OH244441   1.665   2.518  12.465 -0.2978 -0.7042  0.0129
 6749TIP3    H144442   1.676   2.434  12.420  0.4642 -0.2415 -0.6863
 6749TIP3    H244443   1.575   2.515  12.499 -1.1978 -0.7853 -2.1898
 6750TIP3   OH244444   3.483   0.891  13.339  0.4982 -0.0727  0.2785
 6750TIP3    H144445   3.465   0.820  13.401  1.5609  1.2669  2.2461
 6750TIP3    H244446   3.564   0.931  13.372 -0.0851  2.0770 -0.7325
 6751TIP3   OH244447   1.805   1.759  11.743  0.1822  0.5449 -0.1671
 6751TIP3    H144448   1.774   1.760  11.652 -0.3825 -0.2295  0.0091
 6751TIP3    H244449   1.745   1.818  11.789  1.0902  1.7601 -0.4694
 6752TIP3   OH244450   4.670   3.050  12.937  0.0059 -0.0511  0.3207
 6752TIP3    H144451   4.761   3.023  12.926 -0.0830 -0.1031 -0.3067
 6752TIP3    H244452   4.673   3.146  12.942  0.2047 -0.0958  1.4552
 6753TIP3   OH244453   5.642   4.294  11.951 -0.6669  0.3695 -0.7382
 6753TIP3    H144454   5.643   4.388  11.970  0.6883  0.4350 -1.0575
 6753TIP3    H244455   5.664   4.289  11.858  0.2952 -0.3117 -0.4836
 6754TIP3   OH244456   3.990   1.710  13.121 -0.2418 -0.3433 -0.0090
 6754TIP3    H144457   3.955   1.674  13.203  0.3270 -1.0754 -0.0785
 6754TIP3    H244458   3.936   1.787  13.104 -1.7880 -1.3992 -0.0855
 6755TIP3   OH244459   3.875   7.424  10.918  0.6289 -0.6198 -0.2705
 6755TIP3    H144460   3.936   7.364  10.874  2.5607  1.6465 -0.9290
 6755TIP3    H244461   3.844   7.482  10.848 -2.0799 -1.4634  0.1417
 6756TIP3   OH244462   1.762   5.954  12.041 -0.1423 -0.6130  0.5341
 6756TIP3    H144463   1.777   5.862  12.016 -1.3809 -1.5166  2.8118
 6756TIP3    H244464   1.829   5.973  12.106 -0.1891 -0.0323  0.4196
 6757TIP3   OH244465   2.701   1.789  12.204  0.7196  0.1197  0.1964
 6757TIP3    H144466   2.773   1.805  12.143  0.7706  1.4254  0.5581
 6757TIP3    H244467   2.632   1.750  12.150  0.8901  0.9281 -0.6364
 6758TIP3   OH244468   7.251   0.134  12.051  0.3202 -0.0637 -0.0968
 6758TIP3    H144469   7.222   0.170  11.967 -0.6071 -2.0335 -0.6786
 6758TIP3    H244470   7.345   0.118  12.038  0.8092  2.1169  0.2308
 6759TIP3   OH244471   1.058   2.601  11.367  0.1386  0.5016 -0.1464
 6759TIP3    H144472   1.041   2.649  11.286  1.5126  0.1972 -0.6425
 6759TIP3    H244473   1.000   2.641  11.431 -1.1954  0.5523 -1.3392
 6760TIP3   OH244474   5.229   0.639  12.764 -0.6261 -0.1406  0.5699
 6760TIP3    H144475   5.154   0.667  12.712 -0.5840 -2.2548 -0.7166
 6760TIP3    H244476   5.195   0.573  12.823  0.3630 -2.0131 -0.8562
 6761TIP3   OH244477   6.964   1.258  12.007  0.4409 -0.3682  0.1145
 6761TIP3    H144478   6.938   1.332  12.062  0.4957  0.1768 -0.5734
 6761TIP3    H244479   6.881   1.224  11.972  0.4603 -0.1980 -0.1037
 6762TIP3   OH244480   0.198   4.070  11.498 -0.6068 -0.0683 -0.4581
 6762TIP3    H144481   0.248   4.107  11.571 -0.1669 -1.3337 -0.0892
 6762TIP3    H244482   0.107   4.072  11.528 -0.6598  1.1514 -0.6531
 6763TIP3   OH244483   1.173   2.924  13.187  0.1030 -0.0440 -0.4779
 6763TIP3    H144484   1.161   2.951  13.278  1.4616  0.0873 -0.3250
 6763TIP3    H244485   1.145   2.832  13.186  0.8309 -0.2846  0.2544
 6764TIP3   OH244486   0.830   0.291  13.403 -0.7763 -0.2403  0.1580
 6764TIP3    H144487   0.764   0.228  13.373 -1.3459  0.2833  0.3003
 6764TIP3    H244488   0.779   0.363  13.440 -0.1789  1.0282 -1.3948
 6765TIP3   OH244489   6.491   1.382  11.591  0.0071  0.0833  0.4900
 6765TIP3    H144490   6.577   1.361  11.554 -0.0570 -0.4173  0.6151
 6765TIP3    H244491   6.434   1.394  11.515 -0.2638 -1.5240  0.4130
 6766TIP3   OH244492   1.073   2.701  12.028 -0.3010  0.3154 -0.3298
 6766TIP3    H144493   1.121   2.776  12.063  0.6520  0.9072 -2.7181
 6766TIP3    H244494   1.086   2.632  12.093 -0.6960  1.9845  1.6352
 6767TIP3   OH244495   6.626   5.468  11.941 -0.1386 -0.0731 -0.3357
 6767TIP3    H144496   6.614   5.524  11.865 -1.4028  1.5317  0.9879
 6767TIP3    H244497   6.678   5.394  11.908 -2.5625 -0.6278 -3.2790
 6768TIP3   OH244498   1.967   6.151  10.924 -0.0988 -0.5653  0.4631
 6768TIP3    H144499   1.953   6.136  10.830 -1.5628 -0.5898  0.6649
 6768TIP3    H244500   1.995   6.066  10.958 -2.4428 -1.3588  0.5416
 6769TIP3   OH244501   6.055   7.595  10.799 -0.2902  0.0200 -0.2192
 6769TIP3    H144502   6.034   7.568  10.888  0.3012 -0.8783 -0.3375
 6769TIP3    H244503   6.062   7.513  10.750  0.8614  0.4244 -0.7594
 6770TIP3   OH244504   1.937   4.337  12.432  0.1805  0.2424 -0.1613
 6770TIP3    H144505   1.963   4.376  12.349  2.1660  0.8205  0.6720
 6770TIP3    H244506   1.958   4.244  12.423 -0.5981  0.1079 -0.6600
 6771TIP3   OH244507   5.861   4.871  11.461  0.3427 -0.4785 -0.0927
 6771TIP3    H144508   5.869   4.816  11.540  0.0566  0.1450  0.3792
 6771TIP3    H244509   5.909   4.823  11.394 -0.6608 -1.7739  0.0578
 6772TIP3   OH244510   2.600   4.315  12.667 -0.1465  0.6702 -0.1442
 6772TIP3    H144511   2.672   4.358  12.620 -0.6452  0.9090 -0.6866
 6772TIP3    H244512   2.620   4.222  12.660  0.1546  0.7394 -0.2316
 6773TIP3   OH244513   5.687   1.178  12.551  0.4830 -0.3864  0.3761
 6773TIP3    H144514   5.766   1.128  12.571 -0.6238 -2.0260  0.8771
 6773TIP3    H244515   5.719   1.262  12.518  2.4137 -0.9149  0.7837
 6774TIP3   OH244516   1.785   3.898  12.488  0.3512 -0.0171  1.1629
 6774TIP3    H144517   1.758   3.935  12.572  0.4092  2.0245  0.3282
 6774TIP3    H244518   1.767   3.966  12.424 -0.2174 -1.7197 -0.6098
 6775TIP3   OH244519   3.200   3.845  12.298  0.4372 -0.0818  0.3983
 6775TIP3    H144520   3.146   3.885  12.230  0.4005  0.0841  0.5254
 6775TIP3    H244521   3.255   3.916  12.331  0.3402 -0.1225  0.6554
 6776TIP3   OH244522   6.407   3.387  12.269  0.6355 -0.1277 -0.2836
 6776TIP3    H144523   6.325   3.422  12.235 -0.3799 -2.3879 -0.2996
 6776TIP3    H244524   6.458   3.364  12.191  1.5903  1.7915 -0.2864
 6777TIP3   OH244525   0.678   2.869  11.669  0.3608 -0.3998 -0.0188
 6777TIP3    H144526   0.701   2.871  11.762  0.7833 -1.1079 -0.1013
 6777TIP3    H244527   0.762   2.878  11.624  0.1905 -0.3689 -0.3331
 6778TIP3   OH244528   6.940   3.668  12.171 -0.1705  0.1889  0.6600
 6778TIP3    H144529   7.004   3.658  12.241  0.6424  0.7849  0.0118
 6778TIP3    H244530   6.991   3.669  12.090 -0.8058  2.3749  0.2182
 6779TIP3   OH244531   2.431   3.563  13.062 -0.2393 -0.6376  0.1299
 6779TIP3    H144532   2.349   3.518  13.040 -1.4957  0.8983  1.4227
 6779TIP3    H244533   2.478   3.501  13.117 -1.5862 -0.7167  1.2392
 6780TIP3   OH244534   3.533   6.174  10.837 -0.2121 -0.3720 -0.0486
 6780TIP3    H144535   3.563   6.256  10.876  0.6100 -0.8108  0.2468
 6780TIP3    H244536   3.449   6.197  10.797 -0.8670  0.2012  1.5711
 6781TIP3   OH244537   5.594   7.400  12.062  0.2298  0.3379 -0.5022
 6781TIP3    H144538   5.637   7.479  12.029 -1.1905  1.0859 -0.6764
 6781TIP3    H244539   5.660   7.357  12.116  0.3872  2.8929  1.5923
 6782TIP3   OH244540   0.699   6.683  11.154  0.2642  0.1531 -0.7966
 6782TIP3    H144541   0.660   6.770  11.161  0.5895  0.2493  0.0019
 6782TIP3    H244542   0.773   6.685  11.216  0.5576 -0.5377 -1.1113
 6783TIP3   OH244543   6.943   4.530  11.150 -0.1197 -0.0360 -0.2437
 6783TIP3    H144544   6.967   4.555  11.239 -0.8968  1.2946 -0.3738
 6783TIP3    H244545   6.874   4.466  11.160  0.3444 -0.4831  0.1095
 6784TIP3   OH244546   3.288   2.532  12.110 -0.3249 -0.1167  0.2864
 6784TIP3    H144547   3.243   2.471  12.051  0.2761 -0.0539 -0.2505
 6784TIP3    H244548   3.218   2.579  12.155 -0.8010 -1.0341  0.5350
 6785TIP3   OH244549   7.213   4.683  10.270 -0.4820  0.4118 -0.7799
 6785TIP3    H144550   7.209   4.633  10.352  1.4664  2.5164  0.7238
 6785TIP3    H244551   7.151   4.755  10.283  0.5429  1.3022 -0.7190
 6786TIP3   OH244552   0.421   4.714  12.960 -0.2926  0.0117 -0.6962
 6786TIP3    H144553   0.405   4.806  12.941  1.4274  0.2555 -1.1979
 6786TIP3    H244554   0.483   4.715  13.033 -0.1810 -0.7407 -0.7693
 6787TIP3   OH244555   7.239   3.574  10.604  0.2047 -0.5989 -0.3044
 6787TIP3    H144556   7.175   3.636  10.568  0.0056 -0.0991  0.8566
 6787TIP3    H244557   7.190   3.525  10.670  0.7343 -1.0170 -0.2180
 6788TIP3   OH244558   7.396   6.749  12.833  0.1057 -0.4447 -0.6877
 6788TIP3    H144559   7.393   6.680  12.767 -1.1423  0.0786 -1.2156
 6788TIP3    H244560   7.451   6.817  12.795 -0.2358 -0.3429 -1.0108
 6789TIP3   OH244561   4.119   3.931  11.610  0.1482  0.0801 -0.4331
 6789TIP3    H144562   4.099   4.021  11.636 -1.0898 -0.4295  0.4838
 6789TIP3    H244563   4.080   3.877  11.679  0.0376 -1.1923 -1.4467
 6790TIP3   OH244564   4.408   4.547  12.674 -0.6748  0.7178 -0.4918
 6790TIP3    H144565   4.369   4.551  12.587  0.5785 -0.8104 -1.1680
 6790TIP3    H244566   4.381   4.463  12.710  0.1869  0.5944 -0.0939
 6791TIP3   OH244567   3.394   3.922  11.417 -0.1241 -0.3283 -0.3711
 6791TIP3    H144568   3.406   4.006  11.461 -0.5573  0.4424 -1.6514
 6791TIP3    H244569   3.430   3.858  11.477 -1.5658  0.5543  1.5409
 6792TIP3   OH244570   4.749   6.361  10.212  0.4343 -0.0222 -0.2489
 6792TIP3    H144571   4.818   6.327  10.269  1.4073  1.5926 -0.3675
 6792TIP3    H244572   4.723   6.287  10.157  0.1570 -1.3645  1.5999
 6793TIP3   OH244573   0.741   0.553  10.590  0.3916  0.1922  0.3465
 6793TIP3    H144574   0.724   0.626  10.650  1.7986  0.7786  0.0662
 6793TIP3    H244575   0.691   0.480  10.626 -1.0860  1.2956  0.6044
 6794TIP3   OH244576   2.137   1.029  11.460  0.1156  0.2004  0.2350
 6794TIP3    H144577   2.113   1.117  11.432  0.7229  0.2242 -0.2171
 6794TIP3    H244578   2.162   1.039  11.552 -0.2329  0.4182  0.3082
 6795TIP3   OH244579   1.552   6.530  12.675  0.8374 -0.8034 -0.2222
 6795TIP3    H144580   1.481   6.469  12.656  0.8652 -0.2471 -2.4417
 6795TIP3    H244581   1.508   6.613  12.692  0.9066 -0.6973 -0.5517
 6796TIP3   OH244582   4.196   1.039  10.755  0.6790  0.4889  0.7738
 6796TIP3    H144583   4.109   1.076  10.761  0.4678 -0.2284  3.8009
 6796TIP3    H244584   4.181   0.944  10.748  1.1177  0.1597  3.4262
 6797TIP3   OH244585   0.701   0.538  12.904  0.8313 -0.2019  0.4589
 6797TIP3    H144586   0.662   0.490  12.831  1.6547  0.1903 -0.2504
 6797TIP3    H244587   0.659   0.500  12.982  1.1642 -1.8105 -0.0980
 6798TIP3   OH244588   1.331   6.865  11.395  0.0500  0.3825 -0.5259
 6798TIP3    H144589   1.321   6.835  11.305 -0.5473  0.6020 -0.5368
 6798TIP3    H244590   1.280   6.945  11.400 -0.2470  0.1638  0.1092
 6799TIP3   OH244591   7.035   0.351  10.815 -0.3622 -0.5617  0.0565
 6799TIP3    H144592   6.956   0.311  10.779 -1.1829  1.7464 -0.9066
 6799TIP3    H244593   7.106   0.318  10.760 -0.9398 -1.0478 -0.4095
 6800TIP3   OH244594   5.044   6.637  13.349  0.1464 -0.7535 -0.3563
 6800TIP3    H144595   5.011   6.613  13.263 -2.5113  1.2223 -0.0271
 6800TIP3    H244596   5.003   6.575  13.409 -0.7338 -0.0992 -0.2476
 6801TIP3   OH244597   0.821   7.236  13.737 -0.3398  0.1073  0.3602
 6801TIP3    H144598   0.739   7.188  13.724  0.2399 -0.5783 -0.9242
 6801TIP3    H244599   0.867   7.187  13.805 -0.0144 -0.8444 -0.5224
 6802TIP3   OH244600   4.767   7.475  11.907 -0.6200 -0.4898 -0.0944
 6802TIP3    H144601   4.689   7.422  11.890 -2.9129  2.1373  1.3623
 6802TIP3    H244602   4.781   7.524  11.825  0.1353 -1.6618 -0.6842
 6803TIP3   OH244603   1.102   7.270  12.500  0.0162 -0.7540  0.0414
 6803TIP3    H144604   1.160   7.209  12.455  2.0805  1.0910  0.0610
 6803TIP3    H244605   1.064   7.218  12.572  1.0497 -2.2130 -0.4239
 6804TIP3   OH244606   6.567   7.512  12.515  0.1082  0.4958  0.2829
 6804TIP3    H144607   6.536   7.422  12.504 -0.5546  0.8096 -0.5144
 6804TIP3    H244608   6.647   7.504  12.566 -1.6755 -0.3060  3.2172
 6805TIP3   OH244609   7.101   0.670  12.670 -0.0717 -0.6539 -0.6318
 6805TIP3    H144610   7.146   0.666  12.586  1.3932  0.8392  0.0304
 6805TIP3    H244611   7.010   0.691  12.648  0.2126 -0.5907 -1.8319
 6806TIP3   OH244612   3.592   5.186  13.010  0.0652 -0.5368 -0.1222
 6806TIP3    H144613   3.587   5.167  13.104 -0.1892  0.4838  0.0768
 6806TIP3    H244614   3.509   5.229  12.989 -0.5339 -2.0929 -1.1422
 6807TIP3   OH244615   4.090   0.475  11.529  0.1564  0.5248 -0.2470
 6807TIP3    H144616   4.172   0.462  11.481 -0.7379 -2.3072 -1.2111
 6807TIP3    H244617   4.087   0.402  11.591 -1.9364  0.1177 -0.7649
 6808TIP3   OH244618   7.126   4.911  11.578 -0.0132  0.1612 -0.2207
 6808TIP3    H144619   7.199   4.857  11.550  0.2787  0.6090 -0.3410
 6808TIP3    H244620   7.120   4.896  11.672 -0.4468 -0.6872 -0.3808
 6809TIP3   OH244621   6.593   0.565  12.073 -0.4212 -0.2940 -0.2961
 6809TIP3    H144622   6.634   0.651  12.060 -1.8751  0.2414 -1.6230
 6809TIP3    H244623   6.504   0.585  12.102 -0.5350 -1.3845  0.1605
 6810TIP3   OH244624   0.562   0.712  13.087 -0.1841  0.6027 -0.2292
 6810TIP3    H144625   0.547   0.806  13.079  0.6736  0.7613 -0.0830
 6810TIP3    H244626   0.625   0.692  13.017  2.3551  0.8131  1.8183
 6811TIP3   OH244627   6.020   6.275  11.668 -0.3263  0.2457  0.0537
 6811TIP3    H144628   5.990   6.323  11.745  1.5242 -0.0378  1.0155
 6811TIP3    H244629   6.023   6.340  11.598  0.8975  1.2757  1.0049
 6812TIP3   OH244630   7.502   1.643  11.547  0.2773  0.9092 -0.0257
 6812TIP3    H144631   7.408   1.652  11.531  0.3242  1.4884  0.0197
 6812TIP3    H244632   7.507   1.610  11.637  0.1078  0.4429 -0.1813
 6813TIP3   OH244633   0.149   5.758  12.413  0.2656 -0.9398  0.0237
 6813TIP3    H144634   0.102   5.823  12.464  2.6306  1.3978 -0.5383
 6813TIP3    H244635   0.190   5.808  12.342  0.8837 -3.3205 -1.4138
 6814TIP3   OH244636   2.438   0.010  12.614  0.1676 -0.1767 -0.5464
 6814TIP3    H144637   2.356   0.050  12.642  1.0678  1.2088  0.2442
 6814TIP3    H244638   2.427  -0.003  12.520 -1.1755 -0.6105 -0.3554
 6815TIP3   OH244639   5.049   4.197  10.988 -0.3984  0.0029 -0.3959
 6815TIP3    H144640   4.998   4.124  11.024  0.1645  0.4036  1.3167
 6815TIP3    H244641   5.112   4.155  10.929  0.3518 -1.0062  1.0681
 6816TIP3   OH244642   5.879   4.052  12.314  0.4152  0.7335 -0.9354
 6816TIP3    H144643   5.840   4.119  12.370  0.5486  0.4964 -0.5537
 6816TIP3    H244644   5.886   3.975  12.370 -0.8818  0.0032 -1.7045
 6817TIP3   OH244645   4.805   4.458  10.666 -0.0804  0.3479  0.4832
 6817TIP3    H144646   4.823   4.544  10.627  0.5685 -0.3684 -0.8826
 6817TIP3    H244647   4.848   4.460  10.751  0.5477  1.1241  0.1569
 6818TIP3   OH244648   7.364   2.373  12.318  0.6726  0.4834 -0.3933
 6818TIP3    H144649   7.316   2.387  12.236 -1.1043  0.1026  0.5259
 6818TIP3    H244650   7.454   2.355  12.290 -0.0627 -0.5606 -2.3353
 6819TIP3   OH244651   2.904   0.185  12.239  0.4365 -0.1613 -0.8950
 6819TIP3    H144652   2.997   0.172  12.222  0.6760 -1.1644  0.9243
 6819TIP3    H244653   2.899   0.271  12.281  0.8140 -0.8198  0.5780
 6820TIP3   OH244654   2.320   7.077  11.508 -0.3685 -0.4054 -0.5134
 6820TIP3    H144655   2.375   7.108  11.581  0.0279 -0.9523 -0.5757
 6820TIP3    H244656   2.355   7.123  11.432 -1.8270  1.4564 -0.1584
 6821TIP3   OH244657   3.987   2.129  11.869 -0.1536  0.5273 -0.4673
 6821TIP3    H144658   3.967   2.161  11.957  0.1274 -1.7145  0.4720
 6821TIP3    H244659   3.914   2.159  11.815 -0.6684  1.3705  0.6527
 6822TIP3   OH244660   5.883   4.722  12.911 -0.4976  0.2139  0.4513
 6822TIP3    H144661   5.871   4.695  12.820 -0.0176  1.2731  0.0475
 6822TIP3    H244662   5.795   4.741  12.943 -0.6554 -0.0209  0.1605
 6823TIP3   OH244663   0.529   1.164  12.545  0.4170 -0.1307 -0.5105
 6823TIP3    H144664   0.604   1.218  12.568  0.0614 -0.1442  0.7774
 6823TIP3    H244665   0.566   1.077  12.528  0.8631  0.2477 -1.5091
 6824TIP3   OH244666   2.243   5.724  18.366 -0.3455  0.4682 -0.2598
 6824TIP3    H144667   2.332   5.691  18.368 -0.6046 -0.2327  0.0241
 6824TIP3    H244668   2.252   5.819  18.356  0.4119  0.3305 -0.8864
 6825TIP3   OH244669   5.488   5.369  11.972  0.5685 -0.4947  0.1749
 6825TIP3    H144670   5.481   5.438  11.905 -0.8034 -0.8315 -0.0580
 6825TIP3    H244671   5.476   5.288  11.923 -0.4510 -0.7463  0.8192
 6826TIP3   OH244672   6.807   5.246  12.222 -0.2050 -0.1080 -0.6535
 6826TIP3    H144673   6.723   5.204  12.206  0.5913 -1.1385 -2.3425
 6826TIP3    H244674   6.787   5.340  12.222 -1.2197 -0.3019 -1.9239
 6827TIP3   OH244675   1.345   3.834  11.052  0.4160  0.8973 -0.4493
 6827TIP3    H144676   1.272   3.870  11.102  0.7469  3.0548 -1.3923
 6827TIP3    H244677   1.420   3.839  11.111  0.1843  0.4751 -0.1183
 6828TIP3   OH244678   6.006   6.421  10.823  0.5642  0.2747  0.0436
 6828TIP3    H144679   5.978   6.422  10.732 -0.7145  0.4844  0.4194
 6828TIP3    H244680   5.946   6.481  10.868  0.9406 -0.1036  1.0879
 6829TIP3   OH244681   1.913   3.705  12.857 -0.2510 -0.1334  0.1976
 6829TIP3    H144682   1.826   3.739  12.876 -0.8714 -0.8925 -1.1092
 6829TIP3    H244683   1.904   3.663  12.771  1.7157  0.9294 -0.6056
 6830TIP3   OH244684   0.919   4.436  10.972 -0.3163 -0.0434  0.2670
 6830TIP3    H144685   1.004   4.473  10.948  0.9404 -3.8453 -2.0357
 6830TIP3    H244686   0.905   4.464  11.063  3.0125  1.3657  0.4718
 6831TIP3   OH244687   1.431   3.492  10.926  0.4601  0.4827  0.0559
 6831TIP3    H144688   1.339   3.498  10.954  0.2855  1.9834 -0.7566
 6831TIP3    H244689   1.443   3.566  10.867  1.5388 -1.0505 -1.7443
 6832TIP3   OH244690   4.536   1.248  11.011  0.1158  0.4460 -0.2593
 6832TIP3    H144691   4.564   1.163  11.045  2.4025  0.7112 -1.2729
 6832TIP3    H244692   4.448   1.234  10.978  0.4716 -1.5394 -0.4520
 6833TIP3   OH244693   2.462   4.257  11.366 -0.2201  0.2659 -0.0404
 6833TIP3    H144694   2.522   4.275  11.293 -1.0578 -0.2213 -0.8799
 6833TIP3    H244695   2.483   4.323  11.431  0.7553  0.5334 -0.5999
 6834TIP3   OH244696   6.720   1.192  12.836 -0.0372 -0.1598  0.2051
 6834TIP3    H144697   6.811   1.202  12.862  0.1488 -1.3016  0.0481
 6834TIP3    H244698   6.716   1.107  12.792 -0.4882  1.2523 -2.7828
 6835TIP3   OH244699   0.876   7.187  12.931 -0.0764 -0.2764 -0.1274
 6835TIP3    H144700   0.952   7.225  12.887  0.2708 -1.5513 -0.6839
 6835TIP3    H244701   0.885   7.092  12.916  0.8909 -1.0324  3.8937
 6836TIP3   OH244702   6.597   6.631  10.860 -0.4564 -0.1426  0.4994
 6836TIP3    H144703   6.607   6.709  10.805  1.9232  1.7219  3.2640
 6836TIP3    H244704   6.503   6.620  10.870 -0.8964  0.7100 -2.1185
 6837TIP3   OH244705   3.097   1.185  12.302 -0.4904  0.3480 -0.4040
 6837TIP3    H144706   3.031   1.136  12.351  0.7791 -0.2482  0.7837
 6837TIP3    H244707   3.141   1.238  12.368  0.2415  0.7160 -1.1655
 6838TIP3   OH244708   3.245   2.865  11.930 -0.6186 -0.2830 -0.4868
 6838TIP3    H144709   3.178   2.802  11.902  0.7665 -3.9231  3.4466
 6838TIP3    H244710   3.204   2.914  12.001 -0.1463 -0.1436 -0.3082
 6839TIP3   OH244711   4.532   3.250  10.626  0.0287 -0.2202 -0.1492
 6839TIP3    H144712   4.576   3.226  10.707 -1.1520 -0.5354  0.4278
 6839TIP3    H244713   4.505   3.167  10.587 -2.0577 -0.0176  0.7003
 6840TIP3   OH244714   3.162   7.031  12.524  0.1317  0.2004  0.0077
 6840TIP3    H144715   3.225   7.020  12.596 -0.5408 -0.1486  0.5510
 6840TIP3    H244716   3.198   6.978  12.453  1.0514  0.9242 -0.0849
 6841TIP3   OH244717   6.166   7.019  11.612 -0.0733  0.1473 -0.2380
 6841TIP3    H144718   6.237   7.036  11.550  0.6060 -1.4706  0.0202
 6841TIP3    H244719   6.208   7.024  11.698 -0.2995 -0.6149 -0.0723
 6842TIP3   OH244720   4.127   3.294  11.784  0.0444 -0.0364  0.1911
 6842TIP3    H144721   4.193   3.287  11.853 -0.2463 -1.1940  0.3839
 6842TIP3    H244722   4.045   3.269  11.828 -0.7216  2.2195  0.1863
 6843TIP3   OH244723   0.065   1.244  11.761  0.5438  0.4257 -0.1841
 6843TIP3    H144724   0.019   1.246  11.677  1.6637  0.1461 -0.8175
 6843TIP3    H244725   0.011   1.185  11.815  0.1759  0.0593 -0.9256
 6844TIP3   OH244726   4.857   6.408  12.133 -0.6276  0.1570 -0.2274
 6844TIP3    H144727   4.862   6.450  12.218 -1.5006 -0.2442  0.0366
 6844TIP3    H244728   4.895   6.321  12.148 -0.4494  0.2154 -0.3389
 6845TIP3   OH244729   6.149   1.205  10.714  0.1400  0.8111  0.2837
 6845TIP3    H144730   6.166   1.272  10.781 -1.5012  0.7590  0.8067
 6845TIP3    H244731   6.091   1.249  10.651 -0.5365  0.0389  0.3585
 6846TIP3   OH244732   3.108   1.756  12.960 -0.4029 -0.1563 -0.0517
 6846TIP3    H144733   3.046   1.778  12.891 -1.6329 -2.1514  0.3406
 6846TIP3    H244734   3.084   1.811  13.034 -1.2779 -0.4270 -0.1308
 6847TIP3   OH244735   4.277   4.326  10.905  0.5693 -0.3615  0.5282
 6847TIP3    H144736   4.359   4.286  10.876  0.5237  0.2826 -0.5271
 6847TIP3    H244737   4.304   4.410  10.942  0.4764 -0.5630  1.0636
 6848TIP3   OH244738   1.859   6.016  10.695  0.0763  0.4860 -0.7831
 6848TIP3    H144739   1.798   6.030  10.622 -1.0924 -0.7742 -0.1058
 6848TIP3    H244740   1.818   5.947  10.747  3.1966 -2.2691 -1.5797
 6849TIP3   OH244741   4.407   7.456  11.863  0.0492 -0.3132  0.1461
 6849TIP3    H144742   4.386   7.477  11.954 -1.1646  0.7779 -0.3510
 6849TIP3    H244743   4.468   7.382  11.869  2.1392  1.3915  1.9248
 6850TIP3   OH244744   1.089   4.740  11.517 -0.6541  0.4601  0.1076
 6850TIP3    H144745   1.114   4.811  11.577 -2.6106 -0.1697  1.7935
 6850TIP3    H244746   1.128   4.662  11.555 -0.3491  0.3163 -0.5002
 6851TIP3   OH244747   0.073   3.594  10.404  0.0917 -0.1734  0.3942
 6851TIP3    H144748  -0.008   3.576  10.450 -0.1508 -1.4616 -0.4757
 6851TIP3    H244749   0.047   3.648  10.329  0.0616 -0.3920  0.2451
 6852TIP3   OH244750   2.757   5.225  11.605  0.7816  0.3404  0.3726
 6852TIP3    H144751   2.747   5.263  11.518 -0.6800 -0.7411  0.0342
 6852TIP3    H244752   2.709   5.283  11.663 -0.8315 -0.5397 -0.0335
 6853TIP3   OH244753   1.905   1.413  13.091 -0.4268  0.2263  0.1211
 6853TIP3    H144754   1.853   1.424  13.171 -0.2776 -0.5068  0.3273
 6853TIP3    H244755   1.903   1.499  13.049 -3.9961 -0.3148 -1.2377
 6854TIP3   OH244756   6.051   2.211  11.744 -0.0470 -0.1460 -0.4155
 6854TIP3    H144757   6.071   2.152  11.672 -1.6954  0.8370 -1.7636
 6854TIP3    H244758   6.018   2.291  11.701  1.8675  1.7040  1.3063
 6855TIP3   OH244759   0.874   7.270  11.748  0.2294 -0.0695 -0.5802
 6855TIP3    H144760   0.922   7.346  11.780  1.8467 -0.4560 -1.9123
 6855TIP3    H244761   0.785   7.282  11.781  0.6650  1.9010  0.0338
 6856TIP3   OH244762   3.303   1.331  12.697  0.2744  0.4037 -0.0212
 6856TIP3    H144763   3.385   1.348  12.650 -0.1137  2.2495 -0.1087
 6856TIP3    H244764   3.329   1.333  12.790  0.7209 -1.4547 -0.0682
 6857TIP3   OH244765   5.738   6.480  10.935  0.0441  0.1105 -0.0734
 6857TIP3    H144766   5.734   6.411  10.868 -0.9590 -1.3489  1.4170
 6857TIP3    H244767   5.654   6.525  10.928  0.7457  1.3357 -1.1295
 6858TIP3   OH244768   4.315   2.294  11.451 -0.0555 -0.6662 -0.1420
 6858TIP3    H144769   4.273   2.379  11.438 -0.2565 -0.8782 -0.9385
 6858TIP3    H244770   4.280   2.262  11.534 -0.1177 -0.0587  0.0732
 6859TIP3   OH244771   3.025   4.174  11.271 -0.4638  0.2521 -0.2803
 6859TIP3    H144772   3.054   4.087  11.298 -1.9783  0.1566  1.1800
 6859TIP3    H244773   2.938   4.161  11.235 -1.6624  1.3724  1.9794
 6860TIP3   OH244774   3.778   3.255  11.578 -0.2081 -0.3483 -0.1402
 6860TIP3    H144775   3.816   3.270  11.664 -0.1783  2.6749 -0.5443
 6860TIP3    H244776   3.851   3.267  11.517 -0.3589 -1.8420 -0.6527
 6861TIP3   OH244777   6.410   5.333  12.208 -0.0753 -0.0499  0.2745
 6861TIP3    H144778   6.335   5.393  12.206  2.2205  3.0482 -0.7285
 6861TIP3    H244779   6.467   5.367  12.276  1.6779 -0.5768 -0.8469
 6862TIP3   OH244780   0.299   6.999  11.980  0.0231 -0.5759  0.4917
 6862TIP3    H144781   0.376   7.020  11.927 -0.3648  0.1559  0.1970
 6862TIP3    H244782   0.320   7.030  12.068  0.5632 -1.5465  0.7111
 6863TIP3   OH244783   6.332   6.572  11.641  0.2650 -0.5583  0.0221
 6863TIP3    H144784   6.243   6.604  11.650  0.4094 -0.2801  0.5531
 6863TIP3    H244785   6.387   6.651  11.646  0.5278 -0.6990 -0.5503
 6864TIP3   OH244786   4.341   2.603  11.970 -0.7046  0.1049  0.1555
 6864TIP3    H144787   4.315   2.650  12.049  0.0002  0.2163  0.3252
 6864TIP3    H244788   4.434   2.585  11.982 -0.1751  1.5550 -1.3415
 6865TIP3   OH244789   4.219   1.762  12.474  0.2006 -0.3457  0.1907
 6865TIP3    H144790   4.137   1.792  12.435  0.3959  0.2425  0.2261
 6865TIP3    H244791   4.197   1.746  12.566  0.2334  0.2641  0.3090
 6866TIP3   OH244792   4.464   6.673  11.570 -0.0214  0.3484  0.1368
 6866TIP3    H144793   4.369   6.679  11.559 -0.1809 -0.7786  0.8181
 6866TIP3    H244794   4.495   6.629  11.491  0.1055  1.8060 -0.6667
 6867TIP3   OH244795   4.200   6.264  11.770  0.2430  0.0428  0.4516
 6867TIP3    H144796   4.133   6.327  11.744  1.2768  0.1599 -2.2353
 6867TIP3    H244797   4.201   6.269  11.865 -2.3035  1.3141  0.5155
 6868TIP3   OH244798   6.446   6.578  11.335 -0.6600 -0.1088 -0.0324
 6868TIP3    H144799   6.509   6.541  11.397  0.4958  0.5990 -0.7435
 6868TIP3    H244800   6.486   6.661  11.308 -1.1185 -0.4176 -1.7323
 6869TIP3   OH244801   5.474   0.132  12.042 -0.4807  0.0400  0.3905
 6869TIP3    H144802   5.546   0.183  12.007 -0.8927  0.3962  0.0494
 6869TIP3    H244803   5.395   0.174  12.007 -0.8715 -0.1122  1.0562
 6870TIP3   OH244804   6.987   4.883  12.155  0.5313 -0.8845  0.1001
 6870TIP3    H144805   7.044   4.948  12.115 -1.4067 -0.6848 -2.6453
 6870TIP3    H244806   7.045   4.809  12.174  2.1574  0.3331  0.0669
 6871TIP3   OH244807   6.560   4.713  11.508  0.6125 -0.2610 -0.4324
 6871TIP3    H144808   6.655   4.706  11.516  0.5800 -0.5235 -0.2434
 6871TIP3    H244809   6.546   4.779  11.440  0.9204  0.2474 -0.0059
 6872TIP3   OH244810   7.449   4.554  10.333 -0.6177  0.1061 -0.1586
 6872TIP3    H144811   7.404   4.633  10.304 -0.7984  0.1600  0.2604
 6872TIP3    H244812   7.474   4.572  10.424  2.6118  1.1263 -1.1017
 6873TIP3   OH244813   6.553   0.221  12.369  0.0339 -0.8820 -0.0230
 6873TIP3    H144814   6.601   0.145  12.402 -1.3067 -2.6325 -1.8290
 6873TIP3    H244815   6.461   0.200  12.384 -0.3410  1.0966  0.7499
 6874TIP3   OH244816   1.596   5.065  11.105  0.1281  0.6356 -0.3568
 6874TIP3    H144817   1.634   5.100  11.186  0.2396  0.0337 -0.1446
 6874TIP3    H244818   1.654   5.095  11.036  0.0882  1.0726 -0.2082
 6875TIP3   OH244819   5.261   6.352  11.519 -0.1733  0.1874  0.3042
 6875TIP3    H144820   5.231   6.408  11.591 -2.1623  0.7026 -0.8471
 6875TIP3    H244821   5.348   6.386  11.498 -1.2711  2.9249 -0.3231
 6876TIP3   OH244822   6.174   4.249  11.231  0.3789  0.0049  0.2917
 6876TIP3    H144823   6.245   4.257  11.295  0.5800  1.1260 -0.0581
 6876TIP3    H244824   6.150   4.156  11.234  0.8682 -0.1013  1.4626
 6877TIP3   OH244825   7.071   0.051  12.259  0.2938  0.5654 -0.3023
 6877TIP3    H144826   6.999   0.111  12.239  0.7512  1.0505 -0.5130
 6877TIP3    H244827   7.127   0.055  12.182  0.3739 -0.0670 -0.2768
 6878TIP3   OH244828   0.220   7.353  11.481  0.1806 -0.4664  0.1248
 6878TIP3    H144829   0.204   7.403  11.561  1.0049 -0.8505  0.5407
 6878TIP3    H244830   0.310   7.322  11.490 -0.2006 -1.7317 -0.2909
 6879TIP3   OH244831   7.301   4.224  10.951 -1.1575 -0.3387 -0.2899
 6879TIP3    H144832   7.290   4.227  10.856 -2.2813 -0.6686 -0.1912
 6879TIP3    H244833   7.353   4.301  10.973 -1.2867 -0.0103 -1.1306
 6880TIP3   OH244834   2.458   0.510  10.833 -0.3344 -0.2417 -0.3785
 6880TIP3    H144835   2.368   0.499  10.801  0.6130  0.9124 -3.7536
 6880TIP3    H244836   2.452   0.583  10.895 -1.5184  0.7697 -1.6397
 6881TIP3   OH244837   0.199   7.076  11.388 -0.6163 -0.0009  0.7968
 6881TIP3    H144838   0.226   7.026  11.466  0.3253  1.5033  1.4910
 6881TIP3    H244839   0.224   7.166  11.408  1.2227  0.2087 -1.9429
 6882TIP3   OH244840   1.867   2.679  10.641 -0.0107 -0.1478 -0.0495
 6882TIP3    H144841   1.959   2.663  10.618 -0.0479 -2.0926  0.9494
 6882TIP3    H244842   1.856   2.636  10.726 -1.8818 -0.0234 -0.1916
 6883TIP3   OH244843   1.319   3.723  12.268 -0.1377  0.3873  0.1132
 6883TIP3    H144844   1.388   3.720  12.333 -0.0536 -0.0419  0.0122
 6883TIP3    H244845   1.238   3.731  12.318 -0.1530 -0.9269  0.3366
 6884TIP3   OH244846   5.102   7.284  12.337  0.1366  0.1858  0.2240
 6884TIP3    H144847   5.186   7.241  12.319 -1.1581 -2.5414  0.1095
 6884TIP3    H244848   5.070   7.310  12.250 -0.1314 -0.8975 -0.0249
 6885TIP3   OH244849   1.681   0.557  10.742  0.4345  0.0902 -0.3474
 6885TIP3    H144850   1.619   0.498  10.783 -0.0568  0.4283 -0.5984
 6885TIP3    H244851   1.664   0.548  10.648  0.4271  0.5565 -0.3913
 6886TIP3   OH244852   7.199   2.195  12.445 -0.0743 -0.4152  0.2408
 6886TIP3    H144853   7.235   2.266  12.391 -1.7417 -1.0230 -1.7812
 6886TIP3    H244854   7.104   2.205  12.440 -0.3664 -2.6526  0.0372
 6887TIP3   OH244855   7.193   4.732  12.795 -0.3746  0.0152  0.6081
 6887TIP3    H144856   7.235   4.647  12.782 -1.2778 -0.7196  2.1387
 6887TIP3    H244857   7.249   4.777  12.858 -0.6096 -0.0017  0.8304
 6888TIP3   OH244858   3.358   0.041  12.050  0.2924  0.4392  0.0659
 6888TIP3    H144859   3.443  -0.000  12.040 -0.2835 -1.1461  1.2500
 6888TIP3    H244860   3.319   0.038  11.963  0.3674 -1.4012  0.0515
 6889TIP3   OH244861   1.787   4.546  12.917  0.5896  0.0889  0.3844
 6889TIP3    H144862   1.698   4.573  12.896  0.7704  0.2146 -0.2526
 6889TIP3    H244863   1.842   4.614  12.878  0.9276  0.7704  1.9686
 6890TIP3   OH244864   7.520   0.701  12.254 -0.7113  0.2658  0.0772
 6890TIP3    H144865   7.523   0.750  12.171 -1.6550  0.0295 -0.1129
 6890TIP3    H244866   7.520   0.768  12.322 -1.8742  0.5556 -0.1771
 6891TIP3   OH244867   6.141   1.015  10.937  0.3066 -0.0590  0.3031
 6891TIP3    H144868   6.180   0.936  10.900 -2.4395 -1.8567  0.9500
 6891TIP3    H244869   6.120   1.069  10.861 -0.2695 -1.2336 -0.4100
 6892TIP3   OH244870   6.446   5.419  13.821 -0.1652 -0.3189  0.4191
 6892TIP3    H144871   6.476   5.481  13.886 -1.3844  0.7238  0.0275
 6892TIP3    H244872   6.397   5.471  13.758 -0.0493 -1.4757 -0.6878
 6893TIP3   OH244873   1.623   4.803  11.024  0.5574 -0.3478 -0.3047
 6893TIP3    H144874   1.604   4.884  11.071 -1.8449 -1.3815  0.6659
 6893TIP3    H244875   1.619   4.827  10.932 -0.8521  0.5338 -0.0458
 6894TIP3   OH244876   4.568   6.169  11.945 -0.2477  0.4750  0.5674
 6894TIP3    H144877   4.532   6.175  12.033  0.4224  1.6623  0.7816
 6894TIP3    H244878   4.564   6.259  11.912  0.5354  0.2354 -0.1922
 6895TIP3   OH244879   3.980   7.601  12.144 -0.5203 -0.0057  0.2252
 6895TIP3    H144880   3.916   7.563  12.084  0.0506  0.4498 -0.7092
 6895TIP3    H244881   4.043   7.646  12.086  0.1002  0.3693  1.1637
 6896TIP3   OH244882   2.578   2.022  10.564  0.0616  0.2360 -0.1514
 6896TIP3    H144883   2.591   1.933  10.596 -0.5308  0.4454  0.7281
 6896TIP3    H244884   2.660   2.045  10.522  1.1092  0.1060  1.7045
 6897TIP3   OH244885   7.580   4.121  11.859 -0.0614 -0.3261  0.9063
 6897TIP3    H144886   7.610   4.053  11.919 -0.1740 -0.6940  0.5502
 6897TIP3    H244887   7.612   4.094  11.773  0.0854  0.1884  0.7960
 6898TIP3   OH244888   7.368   4.735  10.600  0.0115 -0.4060  0.0055
 6898TIP3    H144889   7.399   4.653  10.640  0.8425 -0.9169 -1.6132
 6898TIP3    H244890   7.442   4.795  10.609  1.0743 -1.2061 -2.6454
 6899TIP3   OH244891   2.916   1.711  10.792  0.5523  0.4965  0.3074
 6899TIP3    H144892   2.991   1.655  10.813  0.6228  0.6940  0.5846
 6899TIP3    H244893   2.872   1.665  10.720  0.3750 -0.1192  0.8001
 6900TIP3   OH244894   2.427   2.526  10.722 -0.2940 -0.5083 -0.0753
 6900TIP3    H144895   2.452   2.435  10.703  0.3434 -0.4107  0.2638
 6900TIP3    H244896   2.510   2.573  10.728 -0.6168  0.0809 -0.1421
 6901TIP3   OH244897   5.933   0.185  12.308  0.0918  0.0767  0.2275
 6901TIP3    H144898   5.924   0.136  12.226  1.1806 -2.2472  1.3965
 6901TIP3    H244899   5.872   0.141  12.369 -1.1210  2.1034  0.5914
 6902TIP3   OH244900   4.857   0.735  11.323 -0.3256 -0.3830  0.1851
 6902TIP3    H144901   4.881   0.825  11.300 -1.5182 -0.2922 -0.7968
 6902TIP3    H244902   4.763   0.730  11.305 -0.1984 -1.9410 -0.1424
 6903TIP3   OH244903   5.579   7.297  11.402  0.0060 -0.4590  0.0261
 6903TIP3    H144904   5.522   7.351  11.457 -0.7332 -1.2388  0.0536
 6903TIP3    H244905   5.628   7.243  11.465  0.5093 -0.0534 -0.0137
 6904TIP3   OH244906   0.872   2.951  10.741 -0.8126  0.0552 -0.2360
 6904TIP3    H144907   0.916   2.956  10.656  0.0892 -0.7197  0.1540
 6904TIP3    H244908   0.807   3.021  10.740 -0.3923  0.4423 -1.3207
 6905TIP3   OH244909   3.534   1.996  11.628 -0.2320  0.0191 -0.1098
 6905TIP3    H144910   3.507   2.076  11.582 -2.2584  0.1298  1.1554
 6905TIP3    H244911   3.574   1.941  11.560 -1.5434  0.8722 -1.6369
 6906TIP3   OH244912   0.868   5.841  11.795 -0.3914 -0.0535 -0.1651
 6906TIP3    H144913   0.957   5.839  11.832  0.2060  1.2697 -1.4460
 6906TIP3    H244914   0.827   5.761  11.828  0.8564 -0.0919  1.4454
 6907TIP3   OH244915   5.333   7.168  12.304  0.6086 -0.1483  0.3035
 6907TIP3    H144916   5.393   7.096  12.285  0.0868 -0.6964  0.7098
 6907TIP3    H244917   5.332   7.220  12.224 -1.7525 -2.5441 -1.3785
 6908TIP3   OH244918   3.577   5.650  11.771 -0.5945  1.0559  0.2861
 6908TIP3    H144919   3.510   5.617  11.831 -2.0074  3.1436 -0.0445
 6908TIP3    H244920   3.628   5.573  11.748  0.3746  0.1660  4.5209
 6909TIP3   OH244921   1.353   6.870  13.481 -0.5627  0.1631 -0.5797
 6909TIP3    H144922   1.449   6.863  13.481 -0.6459 -2.1853  1.4666
 6909TIP3    H244923   1.336   6.954  13.524  0.6432 -0.4512  1.2688
 6910TIP3   OH244924   7.003   2.260  11.137 -1.1408 -0.3150 -0.1059
 6910TIP3    H144925   7.007   2.286  11.229 -0.7164 -1.6705  0.2870
 6910TIP3    H244926   7.010   2.164  11.139 -0.3349 -0.3108 -1.6005
 6911TIP3   OH244927   4.191   5.395  10.589  0.2743 -0.3808  0.2085
 6911TIP3    H144928   4.212   5.301  10.585 -0.0545 -0.4283 -0.7242
 6911TIP3    H244929   4.098   5.397  10.610 -0.1040 -0.3235 -1.3391
 6912TIP3   OH244930   4.233   0.976  13.524 -0.1216  0.7030 -0.1402
 6912TIP3    H144931   4.319   0.935  13.538  0.7051  1.4778 -2.4780
 6912TIP3    H244932   4.174   0.902  13.507 -0.1645  0.1065  2.2225
 6913TIP3   OH244933   7.611   6.313  11.156 -0.1007 -0.4365 -0.4077
 6913TIP3    H144934   7.567   6.232  11.130  0.3487 -1.2985  1.3797
 6913TIP3    H244935   7.704   6.293  11.148  0.0220 -0.2860  0.5306
 6914TIP3   OH244936   7.229   0.636  12.449 -0.0875  0.1417  0.7433
 6914TIP3    H144937   7.154   0.598  12.403  0.5477 -0.0890 -0.1365
 6914TIP3    H244938   7.301   0.575  12.432  0.0777 -0.1619  2.4004
 6915TIP3   OH244939   4.404   4.879  10.716  0.3006  0.1413  0.7599
 6915TIP3    H144940   4.439   4.791  10.732  1.2396  0.2878 -0.3309
 6915TIP3    H244941   4.464   4.937  10.763  0.8851  0.3167 -0.1790
 6916TIP3   OH244942   2.691   4.997  12.284 -0.2887 -0.2459 -0.3642
 6916TIP3    H144943   2.764   5.051  12.316  0.7281 -2.3709  1.1397
 6916TIP3    H244944   2.626   5.061  12.254  0.8137  1.8204  1.3284
 6917TIP3   OH244945   1.454   0.233  12.708  0.1398 -0.1636  0.1089
 6917TIP3    H144946   1.472   0.258  12.799  0.9096 -0.9640  0.1954
 6917TIP3    H244947   1.522   0.168  12.687  0.0183  0.0576 -1.0608
 6918TIP3   OH244948   6.706   0.442  12.294 -0.1443  0.4119  0.3537
 6918TIP3    H144949   6.666   0.483  12.217  0.5289  0.6930  0.1460
 6918TIP3    H244950   6.649   0.368  12.314 -2.2519  2.2450  1.6388
 6919TIP3   OH244951   1.069   4.848  13.291  0.3680 -0.7443 -0.0444
 6919TIP3    H144952   1.016   4.920  13.327  0.9185 -1.1570  1.7081
 6919TIP3    H244953   1.158   4.867  13.321  0.9241 -0.9775 -1.4848
 6920TIP3   OH244954   7.068   2.691  11.154 -0.0484 -0.4248 -0.0587
 6920TIP3    H144955   7.065   2.638  11.233 -2.6390 -0.9662 -0.4208
 6920TIP3    H244956   7.119   2.638  11.092  0.2312 -0.9595  0.6177
 6921TIP3   OH244957   6.919   2.267  12.389 -0.1705 -0.1521 -0.2424
 6921TIP3    H144958   6.844   2.314  12.352  1.9571  0.5237 -4.3065
 6921TIP3    H244959   6.896   2.174  12.378 -1.9444 -0.0871  2.3027
 6922TIP3   OH244960   3.386   0.986  13.069  0.0780  0.1803 -0.0645
 6922TIP3    H144961   3.305   1.019  13.107 -0.5027  0.0170 -1.1259
 6922TIP3    H244962   3.404   0.905  13.117 -0.6581 -0.0437 -0.1579
 6923TIP3   OH244963   2.913   4.756  10.721 -0.1540 -0.0032 -0.3451
 6923TIP3    H144964   2.921   4.852  10.719 -1.1302  0.1008  0.1829
 6923TIP3    H244965   2.954   4.731  10.804  0.7187 -0.1154 -0.8029
 6924TIP3   OH244966   3.357   3.119  13.154 -0.1547 -0.2114 -0.2408
 6924TIP3    H144967   3.350   3.036  13.201  1.5722 -0.7691 -0.8714
 6924TIP3    H244968   3.432   3.107  13.096  0.9780  2.2392  0.5743
 6925TIP3   OH244969   0.506   4.602  10.903  0.5645 -0.2267  0.1888
 6925TIP3    H144970   0.478   4.543  10.972  2.2682  0.1598  1.2885
 6925TIP3    H244971   0.563   4.549  10.847  0.7716 -0.0563  0.2331
 6926TIP3   OH244972   4.672   3.757  11.698  0.0211 -0.0952  0.4958
 6926TIP3    H144973   4.631   3.835  11.737 -0.6209 -0.2941  0.2432
 6926TIP3    H244974   4.722   3.791  11.624  0.4967  0.1804  0.9394
 6927TIP3   OH244975   0.784   3.155  12.081 -0.5382 -0.1738  0.0575
 6927TIP3    H144976   0.817   3.150  12.171 -0.9385 -2.0852  0.1267
 6927TIP3    H244977   0.854   3.200  12.033  0.1165 -0.0253  1.1221
 6928TIP3   OH244978   0.489   4.952  13.278  0.0250  0.3008 -0.4982
 6928TIP3    H144979   0.395   4.959  13.292  0.3112  1.3118  1.1798
 6928TIP3    H244980   0.518   5.042  13.261  0.9265  0.3209  0.9381
 6929TIP3   OH244981   0.121   2.868  12.414 -0.6134  0.0413  0.0356
 6929TIP3    H144982   0.061   2.941  12.405 -1.5219 -0.7075 -0.1579
 6929TIP3    H244983   0.065   2.790  12.418  0.1792 -0.5016  2.4260
 6930TIP3   OH244984   3.284   1.854  10.811 -0.1082 -0.1280  0.0477
 6930TIP3    H144985   3.260   1.917  10.743 -1.4376 -0.3399  0.2878
 6930TIP3    H244986   3.262   1.897  10.893 -0.4428 -0.6528  0.2385
 6931TIP3   OH244987   3.584   4.977  12.026  0.4760  0.0541  0.1098
 6931TIP3    H144988   3.527   5.052  12.043 -0.5464 -0.8495  0.8343
 6931TIP3    H244989   3.560   4.914  12.094  2.0681 -0.5182  0.1719
 6932TIP3   OH244990   5.960   1.794  12.031 -0.1676  0.3618 -0.1646
 6932TIP3    H144991   5.999   1.794  12.118  0.3071  1.0521 -0.3623
 6932TIP3    H244992   5.933   1.703  12.016  1.6877 -0.2294 -0.1456
 6933TIP3   OH244993   5.836   3.711  11.860 -0.6573 -0.0659  0.1245
 6933TIP3    H144994   5.814   3.622  11.891 -0.8846  0.0254  0.2289
 6933TIP3    H244995   5.815   3.767  11.935  0.7909 -0.0666  0.5704
 6934TIP3   OH244996   1.370   3.145  10.407  0.4282 -0.0111  0.0466
 6934TIP3    H144997   1.347   3.056  10.432 -1.8394 -0.4096 -2.8901
 6934TIP3    H244998   1.466   3.147  10.412  0.6681 -3.0754 -1.0298
 6935TIP3   OH244999   7.290   6.392  11.799 -0.2194 -0.2791 -0.0227
 6935TIP3    H145000   7.300   6.464  11.737 -2.5964 -1.0047 -1.3768
 6935TIP3    H245001   7.371   6.393  11.851  1.3355  1.1651 -2.2966
 6936TIP3   OH245002   6.917   4.243  12.231 -0.1511 -0.1443 -0.0888
 6936TIP3    H145003   6.943   4.260  12.140 -0.1089 -0.4782 -0.1424
 6936TIP3    H245004   6.958   4.159  12.252  0.9154  0.5562  0.6780
 6937TIP3   OH245005   7.263   0.863  12.832  0.4553  0.4952  0.1546
 6937TIP3    H145006   7.200   0.801  12.796  1.6112  0.3142 -1.7426
 6937TIP3    H245007   7.283   0.831  12.919  0.1130 -1.1138 -0.3330
 6938TIP3   OH245008   4.573   1.717  10.953 -0.3392 -0.2138  0.1326
 6938TIP3    H145009   4.570   1.624  10.932  0.4678 -0.6909  1.9402
 6938TIP3    H245010   4.565   1.720  11.049  2.3020  1.4031  0.3839
 6939TIP3   OH245011   5.923   5.122  11.062 -0.0382  0.0253 -0.2561
 6939TIP3    H145012   5.996   5.173  11.097 -0.0877  0.5099 -0.8352
 6939TIP3    H245013   5.904   5.163  10.977 -1.0327 -0.0417 -0.0728
 6940TIP3   OH245014   5.015   1.858  10.820  0.3802  0.0396  0.5579
 6940TIP3    H145015   5.089   1.813  10.779  0.9820  0.9226  0.6357
 6940TIP3    H245016   4.999   1.809  10.901  1.0889  0.0214  0.6946
 6941TIP3   OH245017   6.978   4.036  11.977 -0.1957  0.3054 -0.1427
 6941TIP3    H145018   6.957   4.098  11.907  0.3731 -0.2695 -0.8406
 6941TIP3    H245019   7.062   3.999  11.952 -0.5974 -0.8676  0.1636
 6942TIP3   OH245020   0.679   1.348  13.507  0.1382  0.4933 -0.0952
 6942TIP3    H145021   0.746   1.279  13.507  0.7053  1.0322 -0.4375
 6942TIP3    H245022   0.600   1.305  13.538  0.7128 -0.1011  0.5872
 6943TIP3   OH245023   4.231   5.598  10.776 -0.0544 -0.0149 -0.0817
 6943TIP3    H145024   4.155   5.597  10.833 -0.1337  0.0868 -0.1844
 6943TIP3    H245025   4.214   5.529  10.711 -0.6466  0.8379 -0.8614
 6944TIP3   OH245026   4.716   1.100  12.611  0.1055 -0.0010  0.4972
 6944TIP3    H145027   4.729   1.157  12.687  0.7529 -0.6182  0.8541
 6944TIP3    H245028   4.795   1.111  12.559 -0.3714  0.4887 -0.1539
 6945TIP3   OH245029   3.715   2.285  11.419 -0.0803 -0.4803  0.3282
 6945TIP3    H145030   3.789   2.330  11.377 -1.0282  1.0683  0.2486
 6945TIP3    H245031   3.714   2.198  11.378  0.5208  0.1366 -1.0656
 6946TIP3   OH245032   5.936   7.191  11.631 -0.5394 -0.1463 -0.3324
 6946TIP3    H145033   5.997   7.117  11.633  1.7292  1.6382  0.7331
 6946TIP3    H245034   5.991   7.267  11.616 -2.4888  1.5941  0.8286
 6947TIP3   OH245035   0.279   1.952  13.169  0.3192 -0.3506  0.1680
 6947TIP3    H145036   0.363   1.995  13.188  0.2164 -0.3005  0.5019
 6947TIP3    H245037   0.227   1.963  13.248  0.1769 -0.8254  0.1452
 6948TIP3   OH245038   5.984   1.033  11.564 -0.1962 -0.1380  0.0336
 6948TIP3    H145039   6.033   0.988  11.634  2.1933  0.6615 -1.0147
 6948TIP3    H245040   5.991   1.126  11.587 -1.9502 -0.0310  0.2470
 6949TIP3   OH245041   5.391   6.701  12.739 -0.5411  0.1777 -0.3953
 6949TIP3    H145042   5.449   6.773  12.765 -0.1240 -0.0908 -0.5701
 6949TIP3    H245043   5.359   6.665  12.821 -0.1156  0.0519 -0.2787
 6950TIP3   OH245044   4.374   4.231  11.422 -0.3815  0.0721 -0.0655
 6950TIP3    H145045   4.442   4.258  11.361  0.1274 -1.7118 -0.3543
 6950TIP3    H245046   4.296   4.277  11.393  0.8620  3.0120  0.9185
 6951TIP3   OH245047   6.933   6.550  12.042 -0.1704 -0.0127 -0.2477
 6951TIP3    H145048   6.939   6.628  12.097  1.4663 -0.0392 -0.3438
 6951TIP3    H245049   6.986   6.571  11.965  1.3010 -1.6254  0.2625
 6952TIP3   OH245050   4.760   6.567  12.333 -0.4289  0.4671 -0.2188
 6952TIP3    H145051   4.823   6.639  12.342  0.4250 -0.4654  2.0434
 6952TIP3    H245052   4.681   6.598  12.378  0.1605 -0.1685  1.3464
 6953TIP3   OH245053   4.331   2.644  12.752  0.2330  0.1268 -0.6522
 6953TIP3    H145054   4.359   2.675  12.838 -1.1844 -0.0640 -0.0952
 6953TIP3    H245055   4.316   2.724  12.702 -0.8626  0.3024 -0.0689
 6954TIP3   OH245056   0.907   5.023  11.263 -0.0062 -0.2918  0.3035
 6954TIP3    H145057   0.891   4.994  11.173  1.5073  0.1391 -0.1265
 6954TIP3    H245058   0.819   5.030  11.301 -0.7066 -0.1623 -1.2419
 6955TIP3   OH245059   5.501   2.162  12.419 -0.0004 -0.1226 -0.1959
 6955TIP3    H145060   5.468   2.243  12.457  1.4058  0.3500  0.0628
 6955TIP3    H245061   5.567   2.190  12.355 -1.9839 -0.8984 -2.7881
 6956TIP3   OH245062   3.898   0.263  11.951 -0.0071 -0.1219 -0.5554
 6956TIP3    H145063   3.966   0.274  12.018  1.1528 -2.3730 -1.2282
 6956TIP3    H245064   3.830   0.211  11.994  0.7732 -1.6347 -1.0597
 6957TIP3   OH245065   0.687   5.371  11.675  0.2938  0.2879 -0.1062
 6957TIP3    H145066   0.594   5.349  11.668  0.3277  0.2143 -0.3501
 6957TIP3    H245067   0.708   5.411  11.590  0.7165 -0.5819 -0.4266
 6958TIP3   OH245068   4.984   5.118  12.375  0.0749  0.2856 -0.5862
 6958TIP3    H145069   5.025   5.205  12.373 -1.2388  0.9301 -0.5106
 6958TIP3    H245070   4.970   5.097  12.283 -0.8218  0.7611 -0.5659
 6959TIP3   OH245071   7.570   2.684  12.681 -0.0821  0.2348 -0.7506
 6959TIP3    H145072   7.652   2.639  12.698 -0.3947 -0.7453 -1.7177
 6959TIP3    H245073   7.551   2.731  12.762  0.7033 -0.6779 -0.0189
 6960TIP3   OH245074   7.193   4.414  12.189  0.5863 -0.5254 -0.1247
 6960TIP3    H145075   7.277   4.400  12.146  0.0072 -2.3438 -0.7926
 6960TIP3    H245076   7.129   4.375  12.129 -0.7378  0.8147  0.3708
 6961TIP3   OH245077   3.646   1.782  10.907  0.5020  0.2068  0.2227
 6961TIP3    H145078   3.610   1.866  10.934  0.4156  0.5387 -0.8700
 6961TIP3    H245079   3.570   1.722  10.909  0.2995  0.4453 -0.1719
 6962TIP3   OH245080   6.099   6.622  12.590 -0.6010 -0.2536  0.4252
 6962TIP3    H145081   6.060   6.599  12.674 -0.7305 -0.8763  0.2019
 6962TIP3    H245082   6.162   6.552  12.573 -2.8322 -1.9406 -1.4924
 6963TIP3   OH245083   4.591   3.596  12.413 -0.0820  0.5427 -0.9825
 6963TIP3    H145084   4.580   3.689  12.390  0.1032  0.1568 -2.7626
 6963TIP3    H245085   4.580   3.549  12.330 -1.6058 -1.1711  0.1147
 6964TIP3   OH245086   5.208   5.410  10.359  0.0491 -0.5767 -0.4104
 6964TIP3    H145087   5.184   5.454  10.277 -1.2792 -0.2597  0.1399
 6964TIP3    H245088   5.163   5.458  10.427  0.7653 -1.1368  0.4799
 6965TIP3   OH245089   7.576   2.327  12.592 -0.0528 -0.2239  0.3976
 6965TIP3    H145090   7.505   2.269  12.617  0.2938 -0.6341  0.4286
 6965TIP3    H245091   7.586   2.313  12.497  0.2265 -0.4386  0.4565
 6966TIP3   OH245092   5.105   5.474  10.604 -0.1883 -0.5377  0.7338
 6966TIP3    H145093   5.130   5.392  10.646  0.2646 -0.5298  0.4781
 6966TIP3    H245094   5.105   5.538  10.675  1.4499 -0.3344  0.5851
 6967TIP3   OH245095   3.189   2.293  13.390  0.7959 -0.3497 -0.2377
 6967TIP3    H145096   3.126   2.364  13.379  1.8443  0.2515 -3.4234
 6967TIP3    H245097   3.142   2.214  13.364  0.5567 -0.3290  0.1331
 6968TIP3   OH245098   2.499   5.638  12.342 -0.1740  0.3323  0.9102
 6968TIP3    H145099   2.448   5.635  12.422  0.6654 -0.7941  1.4244
 6968TIP3    H245100   2.524   5.731  12.332  0.3393  0.3686  2.3505
 6969TIP3   OH245101   4.638   4.181  12.404  0.1458  0.0096  0.7399
 6969TIP3    H145102   4.585   4.130  12.465 -0.7206  0.4438  0.3812
 6969TIP3    H245103   4.683   4.245  12.458  0.3563 -0.4104  1.0609
 6970TIP3   OH245104   6.077   6.707  10.809 -0.2338 -0.0970  0.1736
 6970TIP3    H145105   6.119   6.625  10.783 -0.9837 -0.3277 -0.3445
 6970TIP3    H245106   6.150   6.764  10.834  0.2838 -1.0010  0.8029
 6971TIP3   OH245107   2.087   6.072  12.583  0.9437 -0.5412  0.3083
 6971TIP3    H145108   2.033   6.066  12.662  1.1117 -0.8101  0.4067
 6971TIP3    H245109   2.108   5.981  12.563 -0.0741 -0.5671 -0.7215
 6972TIP3   OH245110   5.933   4.191  11.538 -0.3061 -0.0676  0.2067
 6972TIP3    H145111   5.886   4.118  11.579 -2.0018  0.2814 -0.9980
 6972TIP3    H245112   6.023   4.159  11.528 -0.9657 -1.9678 -0.1542
 6973TIP3   OH245113   5.849   5.365  11.683 -0.6277  0.3496 -0.4664
 6973TIP3    H145114   5.898   5.345  11.763  0.0080  2.0581 -0.3817
 6973TIP3    H245115   5.839   5.281  11.639  0.1187 -0.4291  0.7971
 6974TIP3   OH245116   5.157   7.138  13.212  0.4587 -0.1443 -0.2568
 6974TIP3    H145117   5.210   7.212  13.243  2.3665 -0.7666 -1.7854
 6974TIP3    H245118   5.125   7.097  13.292 -0.1734  1.9708  0.6379
 6975TIP3   OH245119   6.150   5.889  13.439  0.1570  0.3127 -0.0546
 6975TIP3    H145120   6.086   5.868  13.370  0.5991  0.4828 -0.5183
 6975TIP3    H245121   6.233   5.898  13.393  1.1215 -2.6939  0.8476
 6976TIP3   OH245122   1.216   1.464  11.730 -0.5121  0.2670 -0.0354
 6976TIP3    H145123   1.249   1.386  11.774  0.8637  1.3196  0.8750
 6976TIP3    H245124   1.125   1.471  11.759  0.0402  0.3119  1.8291
 6977TIP3   OH245125   4.128   4.209  12.013  0.0175  0.6565 -0.3761
 6977TIP3    H145126   4.046   4.220  12.060  1.2250  0.3424  1.9912
 6977TIP3    H245127   4.165   4.298  12.009  0.2032  0.5892 -0.1618
 6978TIP3   OH245128   3.857   0.098  12.549  0.3514 -0.7898 -0.3003
 6978TIP3    H145129   3.921   0.137  12.490 -0.1797  0.4261 -0.0933
 6978TIP3    H245130   3.780   0.084  12.495  0.8459 -2.5344 -0.6252
 6979TIP3   OH245131   4.044   2.220  12.633 -0.1149 -0.0974  0.3556
 6979TIP3    H145132   3.978   2.161  12.671  0.2071  0.2142  1.4325
 6979TIP3    H245133   4.127   2.174  12.644  0.0829  0.3533  0.7970
 6980TIP3   OH245134   6.013   1.368  11.557 -0.1464 -0.3699  0.7219
 6980TIP3    H145135   6.048   1.376  11.646 -0.3315 -2.8400  1.0947
 6980TIP3    H245136   6.089   1.346  11.503 -0.1159  0.6337  0.3469
 6981TIP3   OH245137   0.144   7.301  12.489  0.4222 -0.2506  0.4541
 6981TIP3    H145138   0.192   7.269  12.412 -0.2875  1.6962 -0.8779
 6981TIP3    H245139   0.198   7.373  12.521  1.3295 -1.7795  2.5950
 6982TIP3   OH245140   7.301   3.749  12.205  0.1993  0.0502  0.7355
 6982TIP3    H145141   7.205   3.743  12.200  0.0006  1.0525  2.4502
 6982TIP3    H245142   7.318   3.841  12.221  1.4680 -0.1371  0.5277
 6983TIP3   OH245143   4.545   7.461  10.489  0.0232  0.1578 -0.1724
 6983TIP3    H145144   4.562   7.416  10.406 -2.0866  1.5173 -1.4096
 6983TIP3    H245145   4.590   7.545  10.481 -1.3192  0.8573 -0.5349
 6984TIP3   OH245146   3.095   0.916  12.133 -0.4737  0.8201 -0.4019
 6984TIP3    H145147   3.140   0.970  12.068  1.0883  1.7185  1.3193
 6984TIP3    H245148   3.002   0.929  12.115 -0.1165  2.9193 -0.9871
 6985TIP3   OH245149   3.335   1.671  11.077  0.3037  0.3747  0.1062
 6985TIP3    H145150   3.288   1.752  11.056 -0.6165 -0.3614 -0.8002
 6985TIP3    H245151   3.369   1.640  10.993 -2.3103 -1.9327 -0.2668
 6986TIP3   OH245152   6.065   0.240  10.913  0.0903 -0.0591  0.3300
 6986TIP3    H145153   6.081   0.245  10.818 -1.0783  0.3912  0.1451
 6986TIP3    H245154   5.983   0.288  10.926 -1.2046 -2.3560  1.1981
 6987TIP3   OH245155   1.380   3.336  11.617 -0.0334  0.4589  0.1991
 6987TIP3    H145156   1.354   3.247  11.592  0.7615  0.1637  0.3965
 6987TIP3    H245157   1.318   3.361  11.686  0.4336 -0.3851  0.9474
 6988TIP3   OH245158   7.133   6.027  12.599  0.0069 -0.4452 -0.4767
 6988TIP3    H145159   7.073   6.007  12.527  0.1004 -0.3279 -0.5882
 6988TIP3    H245160   7.216   5.986  12.573  0.0982 -0.2256 -0.5355
 6989TIP3   OH245161   4.296   1.538  11.311  0.1418 -0.1613  0.1906
 6989TIP3    H145162   4.288   1.628  11.278  2.4398  0.2327  0.5745
 6989TIP3    H245163   4.252   1.540  11.396 -0.2626  0.4455 -0.0206
 6990TIP3   OH245164   0.175   5.077  11.267 -0.3604  0.0872 -0.1638
 6990TIP3    H145165   0.166   5.060  11.173  0.4005  3.9574 -1.1269
 6990TIP3    H245166   0.265   5.050  11.287 -0.7360 -1.3769 -0.3082
 6991TIP3   OH245167   5.300   4.156  11.273 -0.1525 -0.2910  0.3461
 6991TIP3    H145168   5.375   4.123  11.323 -0.0040  1.3823  1.2983
 6991TIP3    H245169   5.241   4.081  11.266  1.4621 -1.5762 -0.1749
 6992TIP3   OH245170   2.222   7.101  10.485  0.2734 -1.1265 -0.0914
 6992TIP3    H145171   2.156   7.149  10.535  0.2182  0.0259 -1.2298
 6992TIP3    H245172   2.189   7.011  10.482 -1.0123 -0.6724 -0.2191
 6993TIP3   OH245173   3.607   3.676  12.438  0.6951  0.4014  0.3623
 6993TIP3    H145174   3.568   3.723  12.512  0.8608  2.2998 -0.6769
 6993TIP3    H245175   3.682   3.630  12.476  0.8354  1.4088  1.3924
 6994TIP3   OH245176   5.214   0.466  10.972 -0.4815 -0.1746  0.2235
 6994TIP3    H145177   5.267   0.452  10.893  0.6232  1.2885  0.6532
 6994TIP3    H245178   5.126   0.438  10.947  0.1319 -1.0618 -1.0723
 6995TIP3   OH245179   0.520   6.666  12.254 -0.2998  0.2343 -0.0586
 6995TIP3    H145180   0.584   6.643  12.186 -1.3023 -0.5740 -0.7505
 6995TIP3    H245181   0.571   6.666  12.335  0.6682  0.0280 -0.6476
 6996TIP3   OH245182   2.036   2.955  11.797 -0.5024 -0.2589 -0.2193
 6996TIP3    H145183   2.029   2.863  11.823  0.3763  0.0097  1.0255
 6996TIP3    H245184   1.963   2.967  11.736 -2.0583 -1.2139  1.3152
 6997TIP3   OH245185   7.078   4.675  11.355  0.7395  0.1648 -0.1662
 6997TIP3    H145186   7.112   4.722  11.278  0.2554  0.2273 -0.3458
 6997TIP3    H245187   7.129   4.709  11.428  1.4878 -0.1970 -0.5136
 6998TIP3   OH245188   6.444   3.893  11.900 -0.1935  0.2038  0.8380
 6998TIP3    H145189   6.490   3.879  11.817 -2.2302 -1.2293 -0.1428
 6998TIP3    H245190   6.463   3.984  11.923 -0.1545  0.8932 -1.6303
 6999TIP3   OH245191   5.187   4.611  11.255 -0.8235 -0.5262  0.3448
 6999TIP3    H145192   5.213   4.525  11.224  1.5971  0.8160 -1.8086
 6999TIP3    H245193   5.183   4.665  11.176  2.3348  2.3436  1.8622
 7000TIP3   OH245194   4.453   1.520  11.904 -0.0146 -0.0795  0.3927
 7000TIP3    H145195   4.488   1.529  11.816 -1.1748  1.2378  0.0146
 7000TIP3    H245196   4.422   1.430  11.910  0.4852 -0.3039 -0.3791
 7001TIP3   OH245197   2.946   3.589  10.677  0.0882 -0.0038  0.7008
 7001TIP3    H145198   2.982   3.658  10.621  0.3568 -0.5516  0.1836
 7001TIP3    H245199   2.872   3.554  10.628 -0.0946 -0.0341  0.9951
 7002TIP3   OH245200   1.120   2.730  12.725  0.0377  0.1574 -0.8709
 7002TIP3    H145201   1.127   2.678  12.805 -1.0206 -1.2558 -1.6532
 7002TIP3    H245202   1.135   2.668  12.654 -0.5046  1.0693 -1.8166
 7003TIP3   OH245203   4.986   7.228  10.574 -0.1052  0.5261  0.2193
 7003TIP3    H145204   5.043   7.153  10.555 -0.0502  1.1348 -2.4894
 7003TIP3    H245205   4.912   7.191  10.621  1.2241 -0.7360  1.4136
 7004TIP3   OH245206   0.260   6.830  13.120 -0.2939  0.4965 -0.3342
 7004TIP3    H145207   0.173   6.838  13.082  0.1232 -1.3127 -1.8503
 7004TIP3    H245208   0.246   6.785  13.203 -0.6293 -3.6255 -2.3580
 7005TIP3   OH245209   4.245   4.786  12.806  0.0302 -0.5492  0.2323
 7005TIP3    H145210   4.308   4.716  12.815  0.6566 -0.0932 -0.5023
 7005TIP3    H245211   4.295   4.866  12.820 -0.1858 -0.1357 -1.2341
 7006TIP3   OH245212   5.662   5.038  11.092  0.3296  0.3071  0.5288
 7006TIP3    H145213   5.756   5.055  11.098  0.2935  0.1753  1.6042
 7006TIP3    H245214   5.641   4.990  11.172 -0.7017  0.5366  0.4078
 7007TIP3   OH245215   2.579   6.664  10.927  0.2269 -0.1165 -0.3728
 7007TIP3    H145216   2.672   6.679  10.910  0.3033 -0.4918 -0.3135
 7007TIP3    H245217   2.534   6.704  10.853  0.4292  0.1764 -0.3394
 7008TIP3   OH245218   4.952   1.007  11.241  0.4807  0.1704  0.1459
 7008TIP3    H145219   4.955   1.091  11.195 -2.0733  0.6770  0.7298
 7008TIP3    H245220   4.903   1.026  11.322 -0.7857 -1.9777 -0.0317
 7009TIP3   OH245221   6.219   7.506  11.132 -0.8981  0.1151  0.3050
 7009TIP3    H145222   6.146   7.519  11.192 -2.1350  0.5588 -1.2323
 7009TIP3    H245223   6.212   7.578  11.070  1.7141  1.0227  0.9043
 7010TIP3   OH245224   5.281   0.111  11.151  0.4535  0.2230  0.4367
 7010TIP3    H145225   5.205   0.052  11.158  0.9887 -0.6920 -0.9278
 7010TIP3    H245226   5.310   0.124  11.242 -1.2711  0.5411  0.9776
 7011TIP3   OH245227   2.704   4.903  11.518  0.6420 -0.8638 -0.2609
 7011TIP3    H145228   2.653   4.982  11.530  2.5479  0.6387 -1.4374
 7011TIP3    H245229   2.771   4.927  11.454  2.6321 -2.7747  0.9478
 7012TIP3   OH245230   7.534   3.343  12.366 -0.1224 -0.0261 -0.2023
 7012TIP3    H145231   7.474   3.306  12.302 -1.2722 -0.2300  0.9584
 7012TIP3    H245232   7.581   3.412  12.318  0.3392 -1.3453 -1.7312
 7013TIP3   OH245233   0.766   4.928  11.010  0.1578  0.0219  0.0626
 7013TIP3    H145234   0.808   4.996  10.958  0.4380 -0.6412 -0.5917
 7013TIP3    H245235   0.673   4.951  11.008  0.0009 -0.5954 -1.7010
 7014TIP3   OH245236   6.971   0.416  11.313 -0.1742  0.2985  0.0426
 7014TIP3    H145237   6.952   0.393  11.222 -3.5775 -0.6211  0.8666
 7014TIP3    H245238   6.906   0.481  11.337  1.4765  1.5243  1.5138
 7015TIP3   OH245239   1.710   4.160  11.982 -0.0187 -0.3097  0.6153
 7015TIP3    H145240   1.688   4.081  12.031  0.9026 -1.1400 -0.2461
 7015TIP3    H245241   1.801   4.178  12.006 -0.1505  0.3724  0.6297
 7016TIP3   OH245242   1.470   1.751  11.512 -0.3843 -0.3168  0.1594
 7016TIP3    H145243   1.511   1.665  11.519 -0.9521 -0.8047 -1.7470
 7016TIP3    H245244   1.438   1.771  11.600  1.7649 -1.0037  1.1440
 7017TIP3   OH245245   4.508   3.579  11.483  0.1333 -0.0565 -0.1522
 7017TIP3    H145246   4.481   3.663  11.520 -0.9295 -0.4164 -0.0824
 7017TIP3    H245247   4.528   3.525  11.559 -1.2480 -0.5295 -0.0935
 7018TIP3   OH245248   2.363   0.042  11.018 -0.5126 -0.6149 -0.1096
 7018TIP3    H145249   2.299  -0.022  10.986 -1.1483  0.2658 -0.6527
 7018TIP3    H245250   2.346   0.046  11.113 -0.3532 -1.3579 -0.0409
 7019TIP3   OH245251   6.585   5.756  12.733  0.1691  0.1776 -0.5640
 7019TIP3    H145252   6.604   5.740  12.825 -1.8999 -1.6695 -0.3842
 7019TIP3    H245253   6.519   5.826  12.734  0.6063  0.6016 -0.7086
 7020TIP3   OH245254   6.744   6.298  11.222 -0.1516  0.4322  0.1001
 7020TIP3    H145255   6.838   6.281  11.225 -0.0974  0.6499 -0.2997
 7020TIP3    H245256   6.703   6.215  11.248  0.1509  0.4248  0.5677
 7021TIP3   OH245257   0.013   3.946  12.043 -0.0189 -0.1139 -0.2622
 7021TIP3    H145258  -0.019   3.967  12.130  0.4428 -0.3422 -0.0340
 7021TIP3    H245259   0.105   3.973  12.044 -0.1080  0.2394 -0.8023
 7022TIP3   OH245260   0.943   4.131  11.951 -0.8112  0.4413  0.4472
 7022TIP3    H145261   0.993   4.200  11.995 -1.5160  0.6107  0.9874
 7022TIP3    H245262   0.951   4.055  12.009 -2.1484  0.8052  1.1296
 7023TIP3   OH245263   3.971   7.607  12.979 -0.0359 -0.3809  0.3499
 7023TIP3    H145264   3.940   7.577  12.893  0.6535 -0.9971  0.3064
 7023TIP3    H245265   3.896   7.594  13.037 -0.1517 -1.0343  0.0661
 7024TIP3   OH245266   0.880   4.341  10.562 -0.4005  0.5721 -0.0109
 7024TIP3    H145267   0.897   4.325  10.469 -2.2793  1.0028 -0.4786
 7024TIP3    H245268   0.949   4.294  10.608  0.2799 -0.0661 -1.6120
 7025TIP3   OH245269   2.368   0.571  12.791 -0.3576 -0.0660 -0.0499
 7025TIP3    H145270   2.413   0.655  12.779 -0.1188 -0.2699 -0.5967
 7025TIP3    H245271   2.434   0.505  12.769 -0.1430 -0.4500  1.6073
 7026TIP3   OH245272   1.680   3.057  10.392  0.0879 -0.0599  0.1497
 7026TIP3    H145273   1.735   3.107  10.332 -2.1579  1.8412 -0.4856
 7026TIP3    H245274   1.702   3.091  10.479  1.8051 -1.2905  0.2424
 7027TIP3   OH245275   3.002   6.593  12.363 -0.1151  0.7230  0.7207
 7027TIP3    H145276   3.014   6.661  12.297 -0.4430  2.0829  1.9973
 7027TIP3    H245277   3.090   6.563  12.383 -0.1348 -2.0316 -2.5505
 7028TIP3   OH245278   6.352   5.288  10.516 -0.1664  0.1708 -0.0536
 7028TIP3    H145279   6.290   5.320  10.582  1.4453 -1.4153  2.3853
 7028TIP3    H245280   6.298   5.236  10.456 -1.2907 -1.0544  1.9246
 7029TIP3   OH245281   7.395   2.595  11.761 -0.0818  0.2241  0.1085
 7029TIP3    H145282   7.356   2.586  11.674  1.2609 -0.7336 -0.4345
 7029TIP3    H245283   7.329   2.560  11.820  0.5059 -3.0907 -0.9556
 7030TIP3   OH245284   2.453   3.633  12.533  0.0305 -0.5709 -0.5892
 7030TIP3    H145285   2.458   3.548  12.576 -2.9837 -0.1139  0.9497
 7030TIP3    H245286   2.518   3.687  12.578  2.4718 -2.1219 -2.0426
 7031TIP3   OH245287   4.250   3.207  12.853 -0.1872 -0.4080 -0.8190
 7031TIP3    H145288   4.172   3.157  12.828 -0.8533  0.8697 -1.3516
 7031TIP3    H245289   4.230   3.243  12.939 -0.1576 -0.1343 -0.9263
 7032TIP3   OH245290   4.741   0.575  12.658  0.1813  0.5962  0.0472
 7032TIP3    H145291   4.713   0.594  12.748 -0.0188  0.2667  0.0556
 7032TIP3    H245292   4.660   0.553  12.612  0.4584 -0.7698  0.1695
 7033TIP3   OH245293   3.681   2.403  13.221  0.4415  0.0882 -0.6126
 7033TIP3    H145294   3.697   2.320  13.266 -0.0430  0.2160 -0.1851
 7033TIP3    H245295   3.648   2.378  13.135 -0.4301 -0.1783 -0.2146
 7034TIP3   OH245296   1.019   1.789  12.146  0.0422  0.5068  0.1772
 7034TIP3    H145297   1.046   1.698  12.142  0.8924  0.7649 -0.1368
 7034TIP3    H245298   0.925   1.786  12.165  0.0385 -0.4278  0.0130
 7035TIP3   OH245299   7.178   6.666  13.129 -0.1163 -0.2774  0.0967
 7035TIP3    H145300   7.164   6.758  13.153  2.0172  0.3855 -0.9770
 7035TIP3    H245301   7.096   6.640  13.087 -0.2476  1.6403 -0.9786
 7036TIP3   OH245302   3.422   3.693  12.237  0.3642  0.0686 -0.6938
 7036TIP3    H145303   3.477   3.671  12.313 -0.3538 -0.1361 -0.2162
 7036TIP3    H245304   3.360   3.758  12.271  1.3302  1.5502 -1.6432
 7037TIP3   OH245305   6.222   4.303  12.416 -0.4529  0.4645  0.1720
 7037TIP3    H145306   6.248   4.264  12.500 -0.6099 -0.1352 -0.0521
 7037TIP3    H245307   6.172   4.380  12.440 -2.4875 -0.9415  0.6926
 7038TIP3   OH245308   2.903   1.789  16.994 -0.3814  0.0133  0.0461
 7038TIP3    H145309   2.848   1.734  16.939  1.2582 -0.3939 -1.2865
 7038TIP3    H245310   2.906   1.873  16.949  1.2551 -0.4258 -0.7551
 7039TIP3   OH245311   4.245   0.444  12.270 -0.0902  0.2475  0.5534
 7039TIP3    H145312   4.227   0.459  12.177  1.0515  2.5882  0.6472
 7039TIP3    H245313   4.170   0.483  12.315 -1.0712 -1.6392  0.6623
 7040TIP3   OH245314   6.109   2.943  10.680 -0.0170  0.5110  0.5900
 7040TIP3    H145315   6.084   2.887  10.606  1.5475  1.4641 -0.7167
 7040TIP3    H245316   6.126   2.881  10.752  1.3844 -0.7380 -0.7308
 7041TIP3   OH245317   0.235   2.567  12.868 -0.2304 -0.5146 -0.0650
 7041TIP3    H145318   0.226   2.471  12.872  0.9089 -0.8774 -3.1142
 7041TIP3    H245319   0.216   2.588  12.777 -2.2062  2.4620  0.9029
 7042TIP3   OH245320   0.852   7.283  13.387 -0.2215  0.4429 -0.2779
 7042TIP3    H145321   0.930   7.306  13.437 -0.3968  0.1024  0.1625
 7042TIP3    H245322   0.795   7.360  13.395 -0.8196 -0.1021  1.2217
 7043TIP3   OH245323   7.583   2.191  10.780  0.0716 -0.5143  0.1370
 7043TIP3    H145324   7.647   2.176  10.850  0.1354 -0.4833  0.0851
 7043TIP3    H245325   7.615   2.268  10.734 -0.1176 -0.3731  0.2399
 7044TIP3   OH245326   2.435   6.746  12.574  0.5903  0.2684 -0.3388
 7044TIP3    H145327   2.521   6.777  12.547 -0.3903  0.9849 -2.9312
 7044TIP3    H245328   2.404   6.693  12.500 -1.9658  1.6360 -0.3579
 7045TIP3   OH245329   0.657   3.995  12.863 -0.3021  0.0163 -0.4901
 7045TIP3    H145330   0.703   3.949  12.793  0.9498  0.2491  0.1507
 7045TIP3    H245331   0.703   4.078  12.872 -0.1578 -0.1924  0.8931
 7046TIP3   OH245332   7.601   3.257  11.925  0.0604  0.4326 -0.4859
 7046TIP3    H145333   7.625   3.336  11.974 -0.8480  0.0231  0.6557
 7046TIP3    H245334   7.584   3.289  11.836  0.2939  1.4286 -0.1869
 7047TIP3   OH245335   2.513   4.384  12.162  0.7376 -0.2089 -0.3350
 7047TIP3    H145336   2.511   4.290  12.177  2.6397 -0.0292  1.6037
 7047TIP3    H245337   2.593   4.398  12.111  0.3854  0.3497 -0.7428
 7048TIP3   OH245338   6.903   5.497  11.510 -0.2871  0.0369 -0.2065
 7048TIP3    H145339   6.949   5.572  11.549  1.5025 -0.9386 -0.3154
 7048TIP3    H245340   6.966   5.460  11.447 -0.6185 -2.2368  0.6894
 7049TIP3   OH245341   3.365   1.076  12.591 -0.4366 -0.0884  0.6386
 7049TIP3    H145342   3.434   1.080  12.525  1.0390 -1.3163  2.0141
 7049TIP3    H245343   3.348   1.167  12.614 -0.2875  0.3034 -0.6950
 7050TIP3   OH245344   2.950   3.267  12.456 -0.2062 -0.3572  0.5471
 7050TIP3    H145345   2.932   3.273  12.362  0.3077  1.7041  0.5433
 7050TIP3    H245346   2.877   3.313  12.497 -0.0931 -0.6919  1.1251
 7051TIP3   OH245347   1.196   0.312  12.791 -0.1012 -0.6067  0.0039
 7051TIP3    H145348   1.239   0.378  12.846  0.1312 -1.5129  0.9475
 7051TIP3    H245349   1.269   0.268  12.746 -0.3139  0.4147 -1.4033
 7052TIP3   OH245350   3.976   7.547  12.675  0.6480  0.6532  0.6135
 7052TIP3    H145351   3.951   7.456  12.658  0.5585  0.6718  0.6435
 7052TIP3    H245352   3.911   7.599  12.627  0.0179  0.7169  1.5061
 7053TIP3   OH245353   1.449   0.457  10.890  0.2812 -0.3304 -0.1099
 7053TIP3    H145354   1.493   0.499  10.964  2.3506  0.9176 -1.9480
 7053TIP3    H245355   1.355   0.468  10.909  0.7246  0.1011  2.1970
 7054TIP3   OH245356   2.133   5.499  11.520 -0.3691 -0.4319  0.0405
 7054TIP3    H145357   2.193   5.474  11.450 -1.2220 -2.0743 -0.1551
 7054TIP3    H245358   2.187   5.499  11.599  0.7592  2.0820 -0.6226
 7055TIP3   OH245359   0.343   6.401  11.767  0.3756 -0.1603  0.6627
 7055TIP3    H145360   0.386   6.360  11.692  0.2569  0.5561  0.1932
 7055TIP3    H245361   0.414   6.416  11.829  0.7785  0.7671 -0.0005
 7056TIP3   OH245362   3.406   4.878  11.272  0.1428  0.0258 -0.1483
 7056TIP3    H145363   3.428   4.911  11.359  0.2658 -1.5670  0.4610
 7056TIP3    H245364   3.338   4.813  11.287 -0.6888  0.5728 -1.3869
 7057TIP3   OH245365   5.978   2.066  10.883  0.1811 -0.3403 -0.1006
 7057TIP3    H145366   6.064   2.082  10.921  0.2649  0.0841 -0.4651
 7057TIP3    H245367   5.996   2.025  10.799  0.0053 -0.9171  0.1419
 7058TIP3   OH245368   5.447   3.913  13.111 -0.5076 -0.1239 -0.0902
 7058TIP3    H145369   5.535   3.882  13.132 -0.6658  0.3161  1.3201
 7058TIP3    H245370   5.395   3.833  13.105 -0.3098 -0.3036  0.5431
 7059TIP3   OH245371   1.482   1.058  12.093  0.3253  0.2541  0.0761
 7059TIP3    H145372   1.552   1.079  12.154  1.7320 -3.3813 -0.0665
 7059TIP3    H245373   1.521   0.998  12.030 -2.6079 -1.0298 -0.7167
 7060TIP3   OH245374   4.319   4.553  12.435 -0.1542  0.4460  0.3483
 7060TIP3    H145375   4.326   4.638  12.392  1.5106 -0.8250 -2.1274
 7060TIP3    H245376   4.252   4.506  12.385 -0.3515 -0.0585  1.0678
 7061TIP3   OH245377   0.179   2.540  12.184  0.3722  0.1341  0.2206
 7061TIP3    H145378   0.097   2.498  12.158  0.2904 -0.2684  1.0950
 7061TIP3    H245379   0.161   2.634  12.177 -0.3895  0.0671  1.0066
 7062TIP3   OH245380   4.222   6.808  12.116 -0.0331 -0.0745 -0.1402
 7062TIP3    H145381   4.161   6.863  12.166  0.1149 -0.8202  0.9050
 7062TIP3    H245382   4.248   6.862  12.041 -0.8088  0.8163  0.2156
 7063TIP3   OH245383   1.015   0.597  12.212  0.2861  0.3823 -0.3626
 7063TIP3    H145384   1.039   0.571  12.301 -0.3942 -0.3246 -0.3753
 7063TIP3    H245385   1.078   0.550  12.156 -1.5655 -2.2351 -0.4548
 7064TIP3   OH245386   4.009   0.514  12.770  0.5869  0.1940 -0.4039
 7064TIP3    H145387   4.079   0.472  12.720 -0.1080  0.9064 -2.0313
 7064TIP3    H245388   3.940   0.448  12.774  0.4209  0.3331 -0.8997
 7065TIP3   OH245389   3.652   0.831  11.401 -0.1943 -0.1336  0.0605
 7065TIP3    H145390   3.725   0.780  11.437 -0.9029 -0.7777  0.6208
 7065TIP3    H245391   3.679   0.922  11.412  0.1199 -0.3438  1.1446
 7066TIP3   OH245392   5.585   5.781  13.008 -0.4558  0.1064  0.1134
 7066TIP3    H145393   5.634   5.742  13.080  0.3489  0.5141 -0.2042
 7066TIP3    H245394   5.607   5.874  13.011 -0.3606  0.1164 -0.6944
 7067TIP3   OH245395   5.237   5.814  11.734 -0.3221 -0.2511 -0.3127
 7067TIP3    H145396   5.143   5.830  11.740 -0.2522 -0.2309  0.7638
 7067TIP3    H245397   5.263   5.860  11.653 -1.6160 -2.1629 -1.9225
 7068TIP3   OH245398   1.211   3.144  11.925  0.6509  0.0591  0.1482
 7068TIP3    H145399   1.195   3.052  11.943 -0.0748  0.1019 -0.2399
 7068TIP3    H245400   1.274   3.171  11.992  1.7876 -0.9984 -0.4479
 7069TIP3   OH245401   6.100   5.868  10.819 -0.0785 -0.3904  0.1109
 7069TIP3    H145402   6.014   5.898  10.846  0.3347 -0.9380  2.2379
 7069TIP3    H245403   6.153   5.947  10.812 -0.7815 -0.0325 -1.4363
 7070TIP3   OH245404   4.989   0.465  13.237  0.1927  0.2781  0.9893
 7070TIP3    H145405   5.055   0.407  13.273  0.5504 -0.3370 -0.5620
 7070TIP3    H245406   4.938   0.494  13.313  1.2938 -0.4161  2.0298
 7071TIP3   OH245407   1.634   5.679  13.064 -0.1778  0.4062  0.1028
 7071TIP3    H145408   1.652   5.678  13.158  1.7037  0.4791 -0.2174
 7071TIP3    H245409   1.565   5.744  13.053  0.3181  1.1651  1.3257
 7072TIP3   OH245410   2.638   4.960  10.788  0.1821 -0.1034  0.5215
 7072TIP3    H145411   2.726   4.974  10.752 -0.4874  0.5981 -0.9443
 7072TIP3    H245412   2.628   5.029  10.854 -0.5797  2.3547 -1.9254
 7073TIP3   OH245413   1.426   1.298  11.588  0.6540 -0.3241 -0.2696
 7073TIP3    H145414   1.360   1.261  11.530 -0.6524 -0.3876  1.1907
 7073TIP3    H245415   1.377   1.355  11.647  2.0754  0.5737  0.1014
 7074TIP3   OH245416   1.925   6.464  10.701  0.5589 -0.3308 -0.4195
 7074TIP3    H145417   1.944   6.430  10.788 -1.7173  1.8128  1.0858
 7074TIP3    H245418   1.846   6.417  10.674 -1.4027  1.9708  0.7967
 7075TIP3   OH245419   6.955   5.119  11.716  0.1605  0.5291 -0.5836
 7075TIP3    H145420   6.997   5.051  11.768  0.0524  0.8968 -0.0099
 7075TIP3    H245421   6.982   5.202  11.756 -1.7109  0.7755  0.3133
 7076TIP3   OH245422   1.205   7.436  11.560 -0.2238 -0.1591 -0.2698
 7076TIP3    H145423   1.245   7.474  11.482  2.3334 -1.0388  0.5465
 7076TIP3    H245424   1.235   7.346  11.561  0.2068 -0.0354  1.9653
 7077TIP3   OH245425   7.303   2.083  11.100 -0.0670  0.2553  0.4791
 7077TIP3    H145426   7.303   2.142  11.024  4.0972 -1.1092 -0.8685
 7077TIP3    H245427   7.311   2.142  11.175 -3.1110  1.5856 -0.0969
 7078TIP3   OH245428   1.996   6.525  11.461  0.0645  0.4415  0.2392
 7078TIP3    H145429   2.067   6.534  11.525  0.2836 -0.0907  0.0757
 7078TIP3    H245430   1.923   6.573  11.499  0.2374  0.2400  0.8315
 7079TIP3   OH245431   2.518   6.025  11.291 -0.2172  0.3446  0.4494
 7079TIP3    H145432   2.595   6.071  11.325 -1.2494  2.6783 -0.1466
 7079TIP3    H245433   2.541   6.005  11.200  0.0228  0.1486  0.5495
 7080TIP3   OH245434   1.453   7.659  11.603  0.6376  0.2210  0.5306
 7080TIP3    H145435   1.548   7.649  11.607  0.4283 -1.8616  1.3350
 7080TIP3    H245436   1.421   7.623  11.685 -0.8636  0.8487  0.2531
 7081TIP3   OH245437   5.511   6.769  13.392 -0.1381  0.2623 -0.1411
 7081TIP3    H145438   5.482   6.844  13.444  0.1090  2.0446 -2.4200
 7081TIP3    H245439   5.606   6.775  13.392 -0.1551  1.0276 -1.7338
 7082TIP3   OH245440   6.987   1.953  11.988  0.3325 -0.6068 -0.0395
 7082TIP3    H145441   6.922   2.009  11.946  0.2041  0.2553  1.2560
 7082TIP3    H245442   6.940   1.872  12.007 -1.1092  0.7476  2.8254
 7083TIP3   OH245443   1.283   3.535  10.533  0.3195 -0.3814  0.5045
 7083TIP3    H145444   1.256   3.457  10.485 -0.0743 -1.1428  1.9180
 7083TIP3    H245445   1.206   3.592  10.531  0.2928 -0.4209  0.2936
 7084TIP3   OH245446   2.101   2.160  12.534  0.1777  0.1781  0.3548
 7084TIP3    H145447   2.076   2.094  12.599  0.9112  0.0359  0.4975
 7084TIP3    H245448   2.124   2.109  12.456 -2.2177  0.3900 -0.6069
 7085TIP3   OH245449   7.613   3.089  12.348  0.0057 -0.0535 -0.1855
 7085TIP3    H145450   7.578   3.107  12.261 -1.5951 -2.4779 -0.1683
 7085TIP3    H245451   7.592   3.167  12.399 -2.3659  0.0233 -1.1260
 7086TIP3   OH245452   2.284   6.996  12.655 -0.5163 -0.5970 -0.0064
 7086TIP3    H145453   2.317   6.909  12.679 -3.1681 -1.1381  2.0965
 7086TIP3    H245454   2.351   7.056  12.687  0.3542 -1.7537  0.4379
 7087TIP3   OH245455   1.512   7.356  11.882  0.0647 -0.1049  0.2381
 7087TIP3    H145456   1.569   7.426  11.913  2.0859 -0.2329 -2.7459
 7087TIP3    H245457   1.430   7.399  11.860  1.1518  1.3647 -1.2080
 7088TIP3   OH245458   7.355   5.777  10.498  0.0782 -0.5065 -0.2422
 7088TIP3    H145459   7.281   5.733  10.539 -0.2913  1.2399  1.0783
 7088TIP3    H245460   7.425   5.711  10.499 -0.3149 -0.9910  2.0636
 7089TIP3   OH245461   7.047   0.650  11.813 -0.2016 -0.1685 -0.4880
 7089TIP3    H145462   7.032   0.638  11.719  1.1635 -1.2221 -0.6147
 7089TIP3    H245463   7.072   0.563  11.844  0.9607  0.4997  0.5174
 7090TIP3   OH245464   4.860   4.726  10.594 -0.2832  0.3360 -0.0483
 7090TIP3    H145465   4.788   4.774  10.552  1.2972  1.8027 -1.2031
 7090TIP3    H245466   4.917   4.794  10.629  1.0227 -0.7640  0.0295
 7091TIP3   OH245467   7.234   1.849  11.512 -0.1961 -0.3560  0.7861
 7091TIP3    H145468   7.171   1.918  11.494  1.3684  0.5090 -1.9790
 7091TIP3    H245469   7.194   1.770  11.475  0.2875  0.1985 -1.0173
 7092TIP3   OH245470   6.302   0.410  11.623  0.1368  0.2165 -0.2928
 7092TIP3    H145471   6.215   0.387  11.592  0.7820 -0.8682 -1.4028
 7092TIP3    H245472   6.291   0.422  11.718 -0.5648 -3.8125  0.3483
 7093TIP3   OH245473   7.640   0.369  12.991 -0.1786  0.7524 -0.5055
 7093TIP3    H145474   7.591   0.368  13.074  0.3675  1.5978 -0.1572
 7093TIP3    H245475   7.583   0.324  12.929  0.9922 -3.5337  1.1637
 7094TIP3   OH245476   4.209   1.281  13.877  0.6175  0.3075  0.4263
 7094TIP3    H145477   4.154   1.216  13.920  1.8144 -1.1777 -0.2238
 7094TIP3    H245478   4.195   1.267  13.784  1.1401  0.7528  0.2755
 7095TIP3   OH245479   6.502   4.451  11.586 -0.0578  0.3036 -0.0923
 7095TIP3    H145480   6.474   4.477  11.673 -1.7183  0.7864 -0.7310
 7095TIP3    H245481   6.540   4.531  11.549  2.3571 -0.3482  0.7702
 7096TIP3   OH245482   3.523   3.732  11.972 -0.1527 -0.2230  0.0769
 7096TIP3    H145483   3.499   3.741  12.064  1.0214  1.3093  0.2711
 7096TIP3    H245484   3.605   3.780  11.964 -0.1535 -0.4718 -1.7411
 7097TIP3   OH245485   6.517   1.266  13.014  0.6310 -0.1793 -0.0117
 7097TIP3    H145486   6.435   1.266  12.964  0.7923 -1.2316 -0.2914
 7097TIP3    H245487   6.584   1.242  12.950  0.9106 -1.0217  0.5795
 7098TIP3   OH245488   0.740   5.051  10.648  0.1104 -0.2231 -0.2277
 7098TIP3    H145489   0.658   5.072  10.693  0.4805  0.2650  0.2341
 7098TIP3    H245490   0.715   4.987  10.581 -0.5594 -0.4704  0.2462
 7099TIP3   OH245491   3.407   7.453  12.482  0.7132 -0.4127  0.4395
 7099TIP3    H145492   3.488   7.412  12.450  0.6253  0.3725 -0.8909
 7099TIP3    H245493   3.386   7.406  12.562  1.5878 -1.7446 -0.0741
 7100TIP3   OH245494   1.611   3.089  12.228  0.9264 -0.2254 -0.8558
 7100TIP3    H145495   1.592   3.114  12.318 -3.1546 -0.7592 -1.3546
 7100TIP3    H245496   1.574   3.002  12.219  1.9196 -0.5023 -2.8765
 7101TIP3   OH245497   6.269   1.001  12.053  0.5362  0.1322 -0.4110
 7101TIP3    H145498   6.196   1.008  12.115 -1.3179 -1.8209 -2.1650
 7101TIP3    H245499   6.314   1.085  12.059 -1.0211  0.9049  1.7817
 7102TIP3   OH245500   2.461   1.520  10.630  0.3871  0.3298  0.2047
 7102TIP3    H145501   2.526   1.474  10.576 -0.8243 -0.0263 -0.9858
 7102TIP3    H245502   2.506   1.533  10.714  1.9453 -0.0462 -0.5187
 7103TIP3   OH245503   7.091   7.431  12.816  0.1103 -0.4312  0.2274
 7103TIP3    H145504   7.116   7.383  12.737 -1.2513  0.8464 -1.0429
 7103TIP3    H245505   7.172   7.471  12.846  0.8542 -1.7859  0.1057
 7104TIP3   OH245506   3.234   7.677  11.206  0.1549  0.1536 -0.7073
 7104TIP3    H145507   3.155   7.724  11.179  0.0416  0.0368 -0.5806
 7104TIP3    H245508   3.273   7.733  11.273  0.1254  0.1624 -0.6971
 7105TIP3   OH245509   3.448   5.259  10.576  0.6138  0.3231 -0.6555
 7105TIP3    H145510   3.359   5.232  10.601  1.0685  0.0052  0.7609
 7105TIP3    H245511   3.438   5.347  10.540 -0.0267  1.4818  2.0328
 7106TIP3   OH245512   4.298   5.114  11.028 -0.9724 -0.6027 -0.1982
 7106TIP3    H145513   4.334   5.153  10.948  0.9138 -0.4714  0.6385
 7106TIP3    H245514   4.239   5.181  11.063 -1.0755 -0.2697 -0.9980
 7107TIP3   OH245515   1.845   5.879  11.408  0.4101 -0.1466  1.0561
 7107TIP3    H145516   1.782   5.824  11.454  0.6923 -0.5504  0.9638
 7107TIP3    H245517   1.930   5.854  11.444  0.7135 -0.9971 -0.1760
 7108TIP3   OH245518   3.799   4.393  11.790 -0.1811  0.0648 -0.1072
 7108TIP3    H145519   3.862   4.465  11.787  0.3762 -0.4286 -2.7724
 7108TIP3    H245520   3.738   4.412  11.719 -0.5926 -1.5633 -0.2298
 7109TIP3   OH245521   0.919   2.565  10.759 -0.0768  0.4133 -1.0405
 7109TIP3    H145522   0.896   2.474  10.777 -0.0632  0.6647  0.3247
 7109TIP3    H245523   1.011   2.562  10.735 -0.1696  0.0304 -1.3614
 7110TIP3   OH245524   5.371   0.993  11.967 -0.1610 -0.0293 -0.1194
 7110TIP3    H145525   5.377   1.089  11.972  1.8249 -0.1338  0.6963
 7110TIP3    H245526   5.381   0.964  12.058  1.5241 -1.0457 -0.5803
 7111TIP3   OH245527   3.434   3.266  11.385 -0.4160  0.7441 -0.2082
 7111TIP3    H145528   3.469   3.215  11.312 -0.7138 -0.0072  0.1571
 7111TIP3    H245529   3.435   3.356  11.355  0.4426  0.5613 -0.7506
 7112TIP3   OH245530   4.338   2.796  11.771 -0.2426 -0.2637  0.5463
 7112TIP3    H145531   4.363   2.744  11.847  2.1520 -0.5168 -0.3090
 7112TIP3    H245532   4.338   2.734  11.698 -1.4260  0.1798  0.1464
 7113TIP3   OH245533   6.146   4.664  12.737  0.7632  0.5099 -0.2649
 7113TIP3    H145534   6.124   4.655  12.830 -0.7782  0.7197 -0.5746
 7113TIP3    H245535   6.212   4.733  12.735  0.1186  1.1874  0.6179
 7114TIP3   OH245536   3.697   6.426  12.540  0.2947  0.1929 -0.5808
 7114TIP3    H145537   3.618   6.405  12.589  0.2051  0.0060 -0.8017
 7114TIP3    H245538   3.731   6.505  12.581  0.4518 -0.1928  0.0528
 7115TIP3   OH245539   4.398   2.658  11.439  0.0620  1.0214  0.3007
 7115TIP3    H145540   4.365   2.657  11.349  0.3450 -0.3784  0.1864
 7115TIP3    H245541   4.493   2.661  11.430  0.2943 -2.4669  0.4037
 7116TIP3   OH245542   5.436   2.932  12.096 -0.1661  0.0800 -0.1537
 7116TIP3    H145543   5.487   2.889  12.165 -0.3011  0.5700  0.2593
 7116TIP3    H245544   5.500   2.949  12.027  0.5879  1.9833  0.9345
 7117TIP3   OH245545   2.416   0.071  11.618 -0.2039 -0.5059 -0.2172
 7117TIP3    H145546   2.396   0.029  11.702  1.4544 -1.7465 -0.4183
 7117TIP3    H245547   2.450   0.157  11.643 -1.9613  0.1113  0.2489
 7118TIP3   OH245548   2.992   7.090  11.411 -0.3803  0.1015 -0.5321
 7118TIP3    H145549   2.954   7.025  11.471 -0.1882  1.3344  0.9965
 7118TIP3    H245550   3.083   7.062  11.401 -0.4071 -0.1122 -0.2243
 7119TIP3   OH245551   4.807   1.975  11.098 -0.1995 -0.4471  0.6104
 7119TIP3    H145552   4.735   1.913  11.109 -0.6427  0.2693  1.9917
 7119TIP3    H245553   4.883   1.920  11.079 -1.3183 -1.1499 -2.4926
 7120TIP3   OH245554   0.999   6.472  10.549  0.3755  0.3009 -0.0238
 7120TIP3    H145555   0.932   6.419  10.593  1.4156 -0.0791  1.1727
 7120TIP3    H245556   1.025   6.537  10.614  0.3650  1.1792 -0.8759
 7121TIP3   OH245557   4.532   7.467  11.302  0.3233 -0.2560 -0.4608
 7121TIP3    H145558   4.507   7.375  11.310  0.5262 -0.2954 -0.2519
 7121TIP3    H245559   4.601   7.478  11.367 -1.4953  0.6945  1.3992
 7122TIP3   OH245560   2.464   1.106  11.559 -0.0039 -0.0444 -0.4848
 7122TIP3    H145561   2.527   1.163  11.603  0.5999 -0.0668 -1.3079
 7122TIP3    H245562   2.386   1.111  11.614  0.6904  0.0178  0.5166
 7123TIP3   OH245563   7.491   6.211  12.116 -0.6084 -0.1023  0.3286
 7123TIP3    H145564   7.523   6.229  12.027  0.5678  1.2235  0.9731
 7123TIP3    H245565   7.461   6.120  12.113  3.8097 -1.8018 -0.2678
 7124TIP3   OH245566   6.121   3.806  12.686  0.0675 -0.1638 -0.2406
 7124TIP3    H145567   6.159   3.870  12.746  0.2337  1.1606 -1.7029
 7124TIP3    H245568   6.190   3.789  12.622  0.2564 -2.3307  0.4349
 7125TIP3   OH245569   4.579   3.890  11.296 -0.1771 -0.1980  0.1130
 7125TIP3    H145570   4.487   3.905  11.322 -0.2730  1.0955 -0.8510
 7125TIP3    H245571   4.621   3.975  11.312  1.1635 -1.1082  1.6705
 7126TIP3   OH245572   1.287   4.927  12.856 -0.0720 -0.0021  0.1818
 7126TIP3    H145573   1.294   4.973  12.940 -0.2417 -0.1852  0.2981
 7126TIP3    H245574   1.255   4.839  12.880 -0.5922  0.0996 -0.1195
 7127TIP3   OH245575   6.317   1.452  11.051  0.4703  0.2573 -0.2179
 7127TIP3    H145576   6.231   1.456  11.010  0.5307 -1.6361 -0.6307
 7127TIP3    H245577   6.312   1.512  11.125 -1.4111 -0.2244  0.0889
 7128TIP3   OH245578   2.389   5.245  10.816  0.3018  0.2828 -0.5580
 7128TIP3    H145579   2.453   5.229  10.885 -1.7433 -1.8366  1.0107
 7128TIP3    H245580   2.426   5.317  10.764  3.7011 -0.6002  0.4481
 7129TIP3   OH245581   1.986   7.379  11.114  0.1246  0.2882  0.3784
 7129TIP3    H145582   1.908   7.396  11.061  0.1923 -1.0546 -0.2007
 7129TIP3    H245583   2.045   7.452  11.095 -0.8720  1.1818  0.6207
 7130TIP3   OH245584   7.197   5.875  12.010 -0.7317  0.1588  0.0345
 7130TIP3    H145585   7.236   5.790  11.992 -1.8568 -0.2253 -0.6552
 7130TIP3    H245586   7.253   5.937  11.962  0.1371 -0.1653  0.6071
 7131TIP3   OH245587   5.539   3.776  12.071  0.0105 -0.1907  0.4647
 7131TIP3    H145588   5.559   3.686  12.096  1.5109 -0.2655 -0.8579
 7131TIP3    H245589   5.594   3.830  12.128  0.8929 -0.2304 -0.3234
 7132TIP3   OH245590   2.654   4.078  10.598  0.1371 -0.3128 -0.1379
 7132TIP3    H145591   2.560   4.084  10.582 -0.4821 -0.3669  2.9084
 7132TIP3    H245592   2.689   4.160  10.564 -1.2425  0.3603 -0.0130
 7133TIP3   OH245593   0.713   6.921  12.462  0.0994  0.2996  0.1381
 7133TIP3    H145594   0.638   6.977  12.480 -0.1511  0.1963 -0.5400
 7133TIP3    H245595   0.729   6.875  12.544 -0.7703  0.1041  0.2120
 7134TIP3   OH245596   7.034   4.002  12.253 -0.4329 -0.2323  0.1245
 7134TIP3    H145597   7.126   4.017  12.275 -0.7570 -1.3056  2.5361
 7134TIP3    H245598   7.030   4.015  12.158  2.3337 -0.7384 -0.1629
 7135TIP3   OH245599   3.440   0.324  10.725 -0.2699  0.5774 -0.1485
 7135TIP3    H145600   3.408   0.242  10.762  0.9752  0.1481  0.0424
 7135TIP3    H245601   3.394   0.332  10.641  0.5747 -1.0295 -0.8161
 7136TIP3   OH245602   3.780   3.975  10.603  0.3515  0.2848  0.2195
 7136TIP3    H145603   3.822   4.031  10.668  0.1416  0.6193  0.0699
 7136TIP3    H245604   3.688   3.971  10.630  0.5244 -0.6753  0.7077
 7137TIP3   OH245605   7.029   1.230  12.346 -0.1819  0.3136  0.3824
 7137TIP3    H145606   7.122   1.251  12.346 -0.1601  0.2743  1.4440
 7137TIP3    H245607   6.986   1.308  12.311  0.2734  0.2006 -0.4352
 7138TIP3   OH245608   4.053   3.748  11.393 -0.3039  0.3555  0.3042
 7138TIP3    H145609   4.082   3.666  11.433  1.0801  0.5510 -0.2587
 7138TIP3    H245610   4.046   3.809  11.467  1.1984  0.4229  0.4247
 7139TIP3   OH245611   1.843   1.488  11.525  0.4557  0.1963 -0.4376
 7139TIP3    H145612   1.832   1.405  11.479 -1.3548 -0.1567  0.5037
 7139TIP3    H245613   1.937   1.497  11.537  0.6662 -2.8581  1.3656
 7140TIP3   OH245614   4.827   4.254  12.213  0.1250 -0.2152  0.4509
 7140TIP3    H145615   4.790   4.216  12.293  0.5659 -0.8528  0.3638
 7140TIP3    H245616   4.862   4.179  12.166 -1.2544 -0.0289 -0.9614
 7141TIP3   OH245617   7.114   4.645  12.294 -0.0714  0.1853 -0.6616
 7141TIP3    H145618   7.175   4.588  12.247 -0.8407  0.0415 -1.5295
 7141TIP3    H245619   7.033   4.594  12.299 -0.5757  0.9417 -0.8894
 7142TIP3   OH245620   2.710   7.657  12.691 -0.1620  0.3674  0.6276
 7142TIP3    H145621   2.620   7.666  12.661 -0.0609 -0.2252  0.1324
 7142TIP3    H245622   2.702   7.622  12.780 -0.4377  1.3047  0.9853
 7143TIP3   OH245623   4.211   3.304  11.142 -0.2187  0.8204  0.1911
 7143TIP3    H145624   4.126   3.275  11.107  0.2289  2.7339 -2.8566
 7143TIP3    H245625   4.188   3.376  11.201 -0.7715  1.4550 -0.7595
 7144TIP3   OH245626   7.419   5.484  12.766  0.4950 -0.2297  0.2721
 7144TIP3    H145627   7.378   5.519  12.844 -1.2009  0.5395 -0.9158
 7144TIP3    H245628   7.444   5.395  12.790 -0.6188 -0.2480  1.4670
 7145TIP3   OH245629   1.461   1.079  13.350 -0.3104  0.3723 -0.0946
 7145TIP3    H145630   1.370   1.108  13.352 -0.2894  0.4369  1.6899
 7145TIP3    H245631   1.459   0.994  13.394  0.6413  0.8480  0.8895
 7146TIP3   OH245632   3.903   6.761  11.276 -0.0889  0.0811  0.4574
 7146TIP3    H145633   3.919   6.845  11.320  0.8350 -0.4837  1.2428
 7146TIP3    H245634   3.957   6.764  11.198 -0.8998  0.6496 -0.0972
 7147TIP3   OH245635   6.300   7.371  10.851  0.2340 -0.0989  0.0751
 7147TIP3    H145636   6.340   7.286  10.870 -0.4029 -0.6726 -1.0772
 7147TIP3    H245637   6.212   7.350  10.819 -1.5743  1.1515  3.6251
 7148TIP3   OH245638   7.296   7.211  11.555  0.9734  0.7889  0.2841
 7148TIP3    H145639   7.360   7.156  11.509 -0.4455 -0.5026 -0.2506
 7148TIP3    H245640   7.312   7.194  11.648 -0.2608 -1.6587  0.1341
 7149TIP3   OH245641   1.753   4.773  11.600  0.3073  0.9043 -0.3198
 7149TIP3    H145642   1.756   4.692  11.548 -0.2884 -0.1567  1.2133
 7149TIP3    H245643   1.661   4.800  11.597  0.3601  1.1012 -0.2084
 7150TIP3   OH245644   1.021   2.296  11.694 -0.3411  0.1749  0.3751
 7150TIP3    H145645   1.050   2.206  11.698  1.6023  0.5896 -1.8710
 7150TIP3    H245646   0.993   2.308  11.603 -0.9000  1.7192  0.7126
 7151TIP3   OH245647   5.215   7.122  12.590 -0.0969  0.2889 -0.3887
 7151TIP3    H145648   5.200   7.159  12.503 -0.3970  0.8222 -0.1181
 7151TIP3    H245649   5.210   7.027  12.577  0.7739  0.3332 -1.1104
 7152TIP3   OH245650   0.252   2.803  11.672  0.3406  0.5356 -0.1391
 7152TIP3    H145651   0.300   2.753  11.739 -0.1772 -1.7516 -1.3616
 7152TIP3    H245652   0.312   2.873  11.648  1.5995 -0.1226  0.8942
 7153TIP3   OH245653   5.648   1.238  13.073  0.0267  0.1411  0.3318
 7153TIP3    H145654   5.713   1.238  13.003  1.1116 -0.6356  1.2863
 7153TIP3    H245655   5.601   1.321  13.063 -0.0146 -0.0635 -1.4386
 7154TIP3   OH245656   4.447   7.480  13.154 -0.2316  0.0051  0.2921
 7154TIP3    H145657   4.466   7.572  13.137  0.7658 -0.4959 -1.7022
 7154TIP3    H245658   4.356   7.469  13.125  0.3306 -0.0497 -1.6270
 7155TIP3   OH245659   3.517   3.379  11.657  0.1021 -0.3335  0.2233
 7155TIP3    H145660   3.595   3.333  11.689  0.0601 -0.2040  0.5173
 7155TIP3    H245661   3.516   3.361  11.563  0.8720  0.2407  0.0943
 7156TIP3   OH245662   4.034   4.392  10.749 -0.3469  0.5005  0.0660
 7156TIP3    H145663   4.077   4.431  10.825  0.9189 -0.1479 -0.2948
 7156TIP3    H245664   4.091   4.320  10.723 -2.2764 -1.2185  0.3099
 7157TIP3   OH245665   1.520   7.174  10.648  0.4592  0.1970  0.2075
 7157TIP3    H145666   1.468   7.102  10.612  0.6132  1.2135 -2.2112
 7157TIP3    H245667   1.588   7.131  10.700  0.0774 -1.3593 -0.5284
 7158TIP3   OH245668   1.005   7.515  12.488 -0.0916  0.1342  0.4328
 7158TIP3    H145669   1.046   7.429  12.495  1.2604  0.4822 -1.8850
 7158TIP3    H245670   0.998   7.530  12.393 -1.9739  1.8103  0.7754
 7159TIP3   OH245671   2.033   4.074  12.446  0.0942  0.3762 -0.7925
 7159TIP3    H145672   2.002   4.048  12.533  2.5853 -0.0821  0.0610
 7159TIP3    H245673   2.016   3.997  12.391  1.0732 -0.4709  0.0296
 7160TIP3   OH245674   0.840   7.510  13.674  0.3843  0.1869  0.0505
 7160TIP3    H145675   0.906   7.524  13.606  0.2295  0.1710 -0.1024
 7160TIP3    H245676   0.843   7.415  13.689 -0.2840  0.0456 -0.6487
 7161TIP3   OH245677   5.019   2.491  12.021 -0.5256  0.1945 -0.1308
 7161TIP3    H145678   5.111   2.517  12.018 -0.8687  1.6459  0.8370
 7161TIP3    H245679   5.020   2.408  12.069  0.1077  1.2786  1.8322
 7162TIP3   OH245680   5.947   1.226  13.159  0.0655 -0.0097  0.5418
 7162TIP3    H145681   5.889   1.298  13.181 -0.6664 -0.5281  0.3635
 7162TIP3    H245682   5.894   1.147  13.173  0.5846 -0.4748 -0.0261
 7163TIP3   OH245683   0.376   0.528  12.178  0.4644 -0.0435 -0.0137
 7163TIP3    H145684   0.328   0.540  12.097  0.2402 -1.0368 -0.0426
 7163TIP3    H245685   0.318   0.562  12.246  0.0300 -0.5597 -0.1236
 7164TIP3   OH245686   3.161   0.289  11.412  0.1956 -0.1962 -0.3034
 7164TIP3    H145687   3.177   0.368  11.360  0.1492 -0.1743 -0.2840
 7164TIP3    H245688   3.248   0.252  11.426  0.5455  1.1761  1.7925
 7165TIP3   OH245689   5.248   5.510  11.062 -0.2074  0.2112  0.7081
 7165TIP3    H145690   5.326   5.486  11.112 -0.1149  1.0445  0.9899
 7165TIP3    H245691   5.278   5.583  11.006 -1.2041  1.7747  2.1157
 7166TIP3   OH245692   5.825   7.557  11.746  0.2818  0.4117  0.4940
 7166TIP3    H145693   5.793   7.467  11.742 -0.1157  0.5741 -2.4723
 7166TIP3    H245694   5.776   7.597  11.817  1.1392 -1.8789  2.5391
 7167TIP3   OH245695   0.157   3.756  12.486  0.0859  0.0873 -0.4731
 7167TIP3    H145696   0.136   3.841  12.525 -1.2366 -0.1679 -0.5753
 7167TIP3    H245697   0.176   3.775  12.395 -1.0407  0.1993 -0.7017
 7168TIP3   OH245698   4.220   6.520  10.596 -0.5725  0.2968  0.4261
 7168TIP3    H145699   4.165   6.483  10.666  0.2151 -0.3047  0.7467
 7168TIP3    H245700   4.193   6.611  10.590 -0.2704  0.5103  1.9129
 7169TIP3   OH245701   3.009   6.347  10.609  0.0251  0.0646 -0.3474
 7169TIP3    H145702   2.972   6.283  10.547 -2.5026 -1.8896  2.8809
 7169TIP3    H245703   2.944   6.417  10.612 -0.0157 -0.0027  0.3287
 7170TIP3   OH245704   7.463   3.181  12.162  0.1671 -0.4504 -0.0101
 7170TIP3    H145705   7.400   3.109  12.167  0.9955 -1.1210  1.2997
 7170TIP3    H245706   7.469   3.201  12.069  2.3258 -4.2918 -0.9134
 7171TIP3   OH245707   3.176   0.401  12.007  0.2687  0.3551  0.2841
 7171TIP3    H145708   3.119   0.469  12.044  1.2974  0.9692  0.7871
 7171TIP3    H245709   3.244   0.388  12.073  0.0239 -1.2754  0.2466
 7172TIP3   OH245710   7.474   5.887  11.901 -0.3371  0.4210 -0.3007
 7172TIP3    H145711   7.541   5.860  11.964 -0.3410 -2.4516 -1.3800
 7172TIP3    H245712   7.514   5.959  11.853  0.9364  0.5083  0.8310
 7173TIP3   OH245713   4.772   5.378  11.611  0.2966  0.2185 -0.1308
 7173TIP3    H145714   4.738   5.406  11.526  0.1989 -0.0059 -0.1684
 7173TIP3    H245715   4.754   5.451  11.670  1.1956  0.7599 -0.5007
 7174TIP3   OH245716   1.058   6.621  10.775 -0.2287  0.0095  0.2156
 7174TIP3    H145717   1.128   6.682  10.753 -0.2637 -0.5190 -1.4515
 7174TIP3    H245718   0.995   6.674  10.824  0.6663  0.8226  0.5201
 7175TIP3   OH245719   2.294   1.923  10.497  0.4401  0.0981 -0.0480
 7175TIP3    H145720   2.383   1.955  10.482  0.0236  0.5859 -1.6653
 7175TIP3    H245721   2.291   1.839  10.451  0.2518 -0.2250  0.5472
 7176TIP3   OH245722   5.849   1.970  12.540  0.0542 -0.5115 -0.0309
 7176TIP3    H145723   5.829   2.019  12.620  1.4947 -1.4691  0.9604
 7176TIP3    H245724   5.764   1.945  12.506 -0.6368  0.8778  0.5752
 7177TIP3   OH245725   2.801   5.289  11.241 -0.5790 -0.2705  0.1785
 7177TIP3    H145726   2.753   5.355  11.291 -0.7932 -0.1455 -0.1877
 7177TIP3    H245727   2.763   5.293  11.153  0.7928  0.5858 -0.4156
 7178TIP3   OH245728   3.886   3.439  11.200  0.3691  0.8173 -0.0729
 7178TIP3    H145729   3.925   3.373  11.258 -1.3742  1.1506  1.5705
 7178TIP3    H245730   3.912   3.411  11.112  0.3319 -1.6324  0.6194
 7179TIP3   OH245731   5.714   2.551  12.263  0.4209 -0.3227  0.6142
 7179TIP3    H145732   5.733   2.598  12.343  0.0406  0.3223  0.3334
 7179TIP3    H245733   5.748   2.606  12.193 -0.0736 -0.4341  0.2778
 7180TIP3   OH245734   6.213   3.097  11.621 -0.1864  0.1539 -0.4718
 7180TIP3    H145735   6.290   3.128  11.572  0.7454 -0.1386  0.7527
 7180TIP3    H245736   6.250   3.053  11.697 -1.5901  0.9394  0.7071
 7181TIP3   OH245737   4.915   2.226  10.710 -0.1549 -0.3506 -0.4474
 7181TIP3    H145738   4.879   2.298  10.658  0.7010 -0.4930 -1.2665
 7181TIP3    H245739   4.880   2.147  10.669  0.3667 -0.4583 -0.6870
 7182TIP3   OH245740   4.058   6.650  13.229 -0.2715 -0.3468  0.6132
 7182TIP3    H145741   4.038   6.607  13.312  0.3031 -0.7299  0.5593
 7182TIP3    H245742   4.079   6.578  13.169 -0.4288 -0.0575  0.2050
 7183TIP3   OH245743   2.383   0.532  12.200 -0.4135  0.2894  0.3121
 7183TIP3    H145744   2.314   0.473  12.170  0.1865 -0.7579  0.9424
 7183TIP3    H245745   2.356   0.619  12.169 -1.3938 -0.2852 -0.4843
 7184TIP3   OH245746   4.872   2.656  11.161 -0.4439 -0.4536  0.1789
 7184TIP3    H145747   4.867   2.673  11.067 -1.9371 -0.2147  0.2792
 7184TIP3    H245748   4.939   2.717  11.193 -0.5495  0.0810 -0.5911
 7185TIP3   OH245749   5.633   4.379  13.128  0.7699 -0.5257 -0.3324
 7185TIP3    H145750   5.630   4.449  13.062 -0.7465  0.0614  0.3082
 7185TIP3    H245751   5.703   4.406  13.188 -0.2499  0.8446  0.2980
 7186TIP3   OH245752   1.149   3.420  12.420 -0.0164 -0.5625  0.9376
 7186TIP3    H145753   1.163   3.325  12.421  1.6527 -0.4052 -0.8064
 7186TIP3    H245754   1.234   3.457  12.447 -0.5914  0.4582  1.4295
 7187TIP3   OH245755   6.002   4.971  10.846  0.1670  0.1202  0.0168
 7187TIP3    H145756   5.953   5.053  10.847  0.1415  0.1252  1.6946
 7187TIP3    H245757   5.955   4.914  10.907  0.8845 -0.7067 -0.1803
 7188TIP3   OH245758   4.070   5.583  10.999  0.2921  0.2955 -0.4197
 7188TIP3    H145759   3.993   5.553  11.047  0.4050 -1.5638 -1.3070
 7188TIP3    H245760   4.127   5.621  11.065 -0.0736 -1.1067  0.7419
 7189TIP3   OH245761   6.213   6.447  12.853  0.1381  0.2462 -0.1987
 7189TIP3    H145762   6.136   6.503  12.850 -1.2640 -1.6149 -0.4265
 7189TIP3    H245763   6.266   6.483  12.924 -1.4445  0.9614  0.6689
 7190TIP3   OH245764   3.925   2.041  12.802 -0.0065  0.3349 -0.3588
 7190TIP3    H145765   4.000   2.034  12.861  0.0982 -0.8675 -0.5981
 7190TIP3    H245766   3.849   2.042  12.860  0.1642  1.1139 -0.1353
 7191TIP3   OH245767   5.505   6.357  13.123  0.2749  0.1092  0.0065
 7191TIP3    H145768   5.576   6.413  13.155  0.1386  0.7370 -0.7689
 7191TIP3    H245769   5.494   6.291  13.192  1.1838  0.3758  0.4227
 7192TIP3   OH245770   6.935   0.309  12.023 -0.0315  0.1542 -0.0546
 7192TIP3    H145771   6.974   0.341  11.942 -1.6037  1.0268 -0.5023
 7192TIP3    H245772   6.843   0.336  12.019 -0.5588 -1.2551  1.2525
 7193TIP3   OH245773   5.583   4.520  11.601  0.2219  0.0523  0.2595
 7193TIP3    H145774   5.641   4.447  11.625  0.0761  0.2061  1.0950
 7193TIP3    H245775   5.569   4.509  11.507 -1.7442 -2.4644  0.7233
 7194TIP3   OH245776   6.151   4.601  12.450 -0.0569  0.5218  0.7302
 7194TIP3    H145777   6.078   4.572  12.395  1.8165  1.6161 -2.5733
 7194TIP3    H245778   6.112   4.663  12.511 -1.9509  0.8666 -0.7501
 7195TIP3   OH245779   5.027   6.416  11.251 -0.1719 -0.4187  0.8467
 7195TIP3    H145780   4.935   6.396  11.235  0.0909 -1.6045  0.6925
 7195TIP3    H245781   5.039   6.504  11.215 -0.7938 -1.0172 -0.9320
 7196TIP3   OH245782   5.503   1.933  10.551 -0.4409  0.0266  0.2647
 7196TIP3    H145783   5.487   1.840  10.568  0.1747 -0.6386 -2.2557
 7196TIP3    H245784   5.465   1.948  10.464  2.6108  1.1478 -1.0119
 7197TIP3   OH245785   2.721   6.109  12.139  0.0573  0.1973  0.0201
 7197TIP3    H145786   2.814   6.093  12.157  0.2951  1.6453  0.1751
 7197TIP3    H245787   2.708   6.076  12.050  0.7744  0.1804 -0.0816
 7198TIP3   OH245788   6.036   5.314  12.174  0.3955 -0.1247 -0.0563
 7198TIP3    H145789   6.077   5.389  12.217 -0.1986  1.0764 -1.4731
 7198TIP3    H245790   6.108   5.253  12.158  0.7665 -0.2296  1.7799
 7199TIP3   OH245791   5.553   1.849  11.868 -0.0394  0.3013 -0.0191
 7199TIP3    H145792   5.515   1.905  11.799 -0.1455 -0.7805 -0.8569
 7199TIP3    H245793   5.599   1.911  11.925 -1.7210  1.4786  0.1482
 7200TIP3   OH245794   6.874   0.564  11.105 -0.5133  0.6532  0.1154
 7200TIP3    H145795   6.923   0.587  11.027  0.8178  1.9545  1.2728
 7200TIP3    H245796   6.782   0.572  11.080 -0.3733 -3.1923 -2.5326
 7201TIP3   OH245797   1.288   0.944  11.308 -0.2388 -0.0547 -0.5974
 7201TIP3    H145798   1.331   0.860  11.295  0.5023  0.3454 -0.8238
 7201TIP3    H245799   1.320   0.999  11.236  1.3249  1.1867  0.9547
 7202TIP3   OH245800   0.758   4.611  12.247  0.1568  0.3390  0.1333
 7202TIP3    H145801   0.850   4.623  12.271  0.0601  0.8346  0.2607
 7202TIP3    H245802   0.716   4.693  12.270 -0.4451 -0.1061  0.6455
 7203TIP3   OH245803   2.998   2.695  11.792 -0.5991 -0.0623 -0.2235
 7203TIP3    H145804   3.039   2.644  11.722  0.4916 -1.5731  1.4207
 7203TIP3    H245805   2.993   2.784  11.758  1.3428 -0.4411 -1.6366
 7204TIP3   OH245806   3.472   6.971  10.789 -0.5597  0.2147 -0.2058
 7204TIP3    H145807   3.401   6.915  10.759 -0.1700 -0.5974  0.3388
 7204TIP3    H245808   3.507   6.926  10.866  1.0519  0.1589 -0.9117
 7205TIP3   OH245809   1.552   7.501  12.653  0.2775 -0.4080 -0.3422
 7205TIP3    H145810   1.520   7.580  12.698 -1.6087 -1.3033 -0.0265
 7205TIP3    H245811   1.639   7.487  12.690  1.1713  2.1501 -1.2574
 7206TIP3   OH245812   3.806   3.721  11.143  0.1029 -0.6869 -0.2910
 7206TIP3    H145813   3.721   3.680  11.127 -0.4553 -0.0551  0.8699
 7206TIP3    H245814   3.857   3.655  11.189 -0.2641 -0.6010  0.2474
 7207TIP3   OH245815   4.531   3.012  11.972  0.3426  0.0678 -0.2565
 7207TIP3    H145816   4.559   3.077  12.036  0.4968  0.0140 -0.2673
 7207TIP3    H245817   4.558   2.929  12.009 -1.0078 -0.1227  0.3717
 7208TIP3   OH245818   0.490   7.494  11.339 -0.4432  0.1538  0.4203
 7208TIP3    H145819   0.501   7.404  11.307  1.4404  0.0807  1.1376
 7208TIP3    H245820   0.464   7.543  11.261  3.9029 -0.0388 -1.4534
 7209TIP3   OH245821   7.009   6.171  10.906 -0.3096 -0.4406  0.0521
 7209TIP3    H145822   7.044   6.159  10.995  2.3259  1.6006 -0.5668
 7209TIP3    H245823   6.919   6.200  10.920 -0.1137 -0.6153  2.0303
 7210TIP3   OH245824   2.130   4.560  11.130  0.2430 -0.4000  0.1046
 7210TIP3    H145825   2.043   4.596  11.147  0.0371 -0.5930 -0.5222
 7210TIP3    H245826   2.169   4.549  11.217  0.3219  1.3417  0.3220
 7211TIP3   OH245827   3.266   4.647  11.289 -0.5499 -0.0330 -0.2279
 7211TIP3    H145828   3.257   4.558  11.254  0.3019 -0.3489  0.3475
 7211TIP3    H245829   3.261   4.637  11.384 -1.5205  0.6684 -0.1910
 7212TIP3   OH245830   3.043   2.844  11.433  0.2169  0.3177  0.4346
 7212TIP3    H145831   3.090   2.892  11.364  1.6962 -0.6932  0.6862
 7212TIP3    H245832   3.056   2.896  11.512 -0.8826  1.1152  0.1054
 7213TIP3   OH245833   0.217   6.794  13.436 -0.1067  0.5134 -0.3129
 7213TIP3    H145834   0.244   6.751  13.516  0.2719  0.7329 -0.3193
 7213TIP3    H245835   0.121   6.791  13.438 -0.1564  1.8817  0.9063
 7214TIP3   OH245836   3.958   1.770  10.806  0.4583  0.9082 -0.7713
 7214TIP3    H145837   3.900   1.812  10.742  0.1546  0.9275 -0.4835
 7214TIP3    H245838   3.950   1.677  10.789 -0.7258  0.8166  0.1674
 7215TIP3   OH245839   3.240   5.088  12.644 -0.0908 -0.1053 -0.2134
 7215TIP3    H145840   3.264   5.025  12.575  0.6250  0.8988 -0.9115
 7215TIP3    H245841   3.324   5.125  12.672 -0.4767  0.2685  0.4502
 7216TIP3   OH245842   5.612   2.407  11.355  0.1036  0.5586  0.4519
 7216TIP3    H145843   5.657   2.382  11.274 -0.4598 -1.4379  0.7107
 7216TIP3    H245844   5.519   2.403  11.333 -0.0670 -0.4058  1.2811
 7217TIP3   OH245845   3.117   0.142  10.534 -0.0832  0.7180 -0.3176
 7217TIP3    H145846   3.021   0.147  10.543 -0.5025 -1.8444 -2.1234
 7217TIP3    H245847   3.143   0.082  10.604  0.1937  1.2159  0.0111
 7218TIP3   OH245848   2.771   1.237  10.777  0.8195  0.0647 -0.1974
 7218TIP3    H145849   2.778   1.143  10.761 -0.7679 -0.2344  0.7312
 7218TIP3    H245850   2.789   1.247  10.871 -0.3799  0.5176 -0.0063
 7219TIP3   OH245851   4.579   5.174  12.588  0.5211 -0.5300 -0.1708
 7219TIP3    H145852   4.515   5.213  12.528 -0.3672  0.3299  1.2897
 7219TIP3    H245853   4.658   5.226  12.576  0.5101 -0.6765 -0.9341
 7220TIP3   OH245854   3.119   4.440  12.562  0.1887  0.1324 -0.0477
 7220TIP3    H145855   3.124   4.468  12.470  1.0625 -1.8472 -0.6543
 7220TIP3    H245856   3.035   4.394  12.568  0.1735  0.1837  0.1452
 7221TIP3   OH245857   0.729   1.926  13.273 -0.2551  0.2543 -0.8128
 7221TIP3    H145858   0.689   1.859  13.329 -0.6579  0.2761 -1.0731
 7221TIP3    H245859   0.661   1.992  13.261  0.1209  0.6871 -0.6090
 7222TIP3   OH245860   3.686   2.845  10.724 -0.1154 -0.7576 -0.0404
 7222TIP3    H145861   3.672   2.775  10.659  1.1182 -0.7815 -0.2943
 7222TIP3    H245862   3.780   2.845  10.739 -0.1873  0.4276  0.4530
 7223TIP3   OH245863   0.463   4.023  12.153 -0.2383  0.0434 -0.1976
 7223TIP3    H145864   0.502   3.988  12.233 -0.9708 -1.3674 -0.4156
 7223TIP3    H245865   0.537   4.054  12.101  0.5233 -1.5656 -0.1350
 7224TIP3   OH245866   6.167   5.021  12.957  0.0706  0.0605 -0.7515
 7224TIP3    H145867   6.123   5.038  13.039  0.2132 -1.3358 -0.3542
 7224TIP3    H245868   6.252   5.065  12.965  1.1998 -2.2394  0.9907
 7225TIP3   OH245869   7.489   7.055  11.446 -0.1640  0.0030  0.4484
 7225TIP3    H145870   7.437   7.010  11.379 -1.1032  0.3427  0.9355
 7225TIP3    H245871   7.557   6.991  11.469  0.0921 -0.1773 -0.7049
 7226TIP3   OH245872   7.132   5.469  11.389  0.4275 -0.2523 -0.4191
 7226TIP3    H145873   7.187   5.508  11.457 -0.7739  0.7609  0.0283
 7226TIP3    H245874   7.186   5.467  11.311  1.7775 -1.2409  0.4831
 7227TIP3   OH245875   5.777   2.223  11.439  0.7593  0.3550  0.5102
 7227TIP3    H145876   5.754   2.172  11.517  0.7794  0.8873  0.8681
 7227TIP3    H245877   5.701   2.281  11.426 -0.8687 -2.0743 -1.9086
 7228TIP3   OH245878   3.451   4.496  13.042  0.0232  0.1130  0.0810
 7228TIP3    H145879   3.361   4.497  13.010 -0.5792  0.9552  1.6519
 7228TIP3    H245880   3.462   4.583  13.082  1.4048 -0.1236  0.2467
 7229TIP3   OH245881   0.074   7.092  13.049  0.0102  0.3993  0.2244
 7229TIP3    H145882  -0.002   7.049  13.087 -0.3444  1.6226  0.9587
 7229TIP3    H245883   0.117   7.135  13.122  1.0194  0.3065 -0.2982
 7230TIP3   OH245884   3.936   6.119  11.865 -0.1475  0.5940 -0.1508
 7230TIP3    H145885   3.965   6.074  11.944  0.5017 -1.1620 -1.3006
 7230TIP3    H245886   4.015   6.125  11.811 -1.2092 -1.5986 -2.1308
 7231TIP3   OH245887   6.064   7.675  13.068 -0.1321  0.3279  0.3478
 7231TIP3    H145888   6.059   7.629  13.152 -0.3302 -0.2476  0.0300
 7231TIP3    H245889   5.972   7.693  13.045 -0.1056  0.1427  0.0818
 7232TIP3   OH245890   6.273   3.526  12.638 -0.0138  0.2491 -0.2686
 7232TIP3    H145891   6.232   3.608  12.608  0.1320  0.1869 -0.6454
 7232TIP3    H245892   6.343   3.510  12.575  1.4690  1.0479  1.1180
 7233TIP3   OH245893   0.652   1.786  11.389  0.0670 -0.7828 -0.0316
 7233TIP3    H145894   0.647   1.809  11.297  0.1036  1.4156  0.4496
 7233TIP3    H245895   0.745   1.798  11.411 -0.4312  1.9796  0.9661
 7234TIP3   OH245896   6.348   5.315  11.920 -0.2682 -0.4185 -0.3956
 7234TIP3    H145897   6.409   5.318  11.994 -1.3581 -0.0685  0.5037
 7234TIP3    H245898   6.289   5.243  11.942 -1.2080  0.3372 -0.4348
 7235TIP3   OH245899   6.921   6.755  11.085 -0.0710 -0.1492 -0.1968
 7235TIP3    H145900   7.010   6.788  11.071 -0.5912  2.1079  1.2536
 7235TIP3    H245901   6.920   6.670  11.041  2.3709  0.3576 -1.4198
 7236TIP3   OH245902   4.786   4.014  11.599 -0.0859  0.3250  0.6234
 7236TIP3    H145903   4.738   4.069  11.661 -2.9107 -3.6847  2.4520
 7236TIP3    H245904   4.748   4.036  11.513 -2.0804  0.4094  1.4654
 7237TIP3   OH245905   4.974   5.665  11.517  0.0499 -0.0306 -0.5438
 7237TIP3    H145906   4.949   5.748  11.558  1.3734  0.3875 -0.5492
 7237TIP3    H245907   4.950   5.599  11.582 -1.7322  0.2515 -0.8539
 7238TIP3   OH245908   0.872   5.801  11.442  0.3317  0.1027 -0.1159
 7238TIP3    H145909   0.868   5.810  11.347 -0.5878  1.3031  0.0142
 7238TIP3    H245910   0.867   5.891  11.475 -3.6222 -0.4147  1.1884
 7239TIP3   OH245911   6.910   0.402  11.697  0.2435  0.0105 -0.2314
 7239TIP3    H145912   6.850   0.383  11.624 -1.5844  2.1177  0.6095
 7239TIP3    H245913   6.997   0.404  11.656 -0.7049  1.0591 -2.3949
 7240TIP3   OH245914   0.317   1.419  11.694 -0.2828 -0.1451 -0.0299
 7240TIP3    H145915   0.319   1.370  11.613 -0.4952  0.3474 -0.3395
 7240TIP3    H245916   0.253   1.489  11.679 -0.2650  0.0008  0.5271
 7241TIP3   OH245917   3.861   1.311  12.357  0.0719 -0.1500  0.1930
 7241TIP3    H145918   3.898   1.229  12.391  1.0804 -0.0394 -0.6013
 7241TIP3    H245919   3.887   1.377  12.421 -1.0357 -0.4749  1.0185
 7242TIP3   OH245920   0.080   6.003  12.551 -0.0290 -0.2508  0.2380
 7242TIP3    H145921   0.143   5.978  12.619 -0.1401 -0.5523  0.2327
 7242TIP3    H245922   0.059   6.094  12.569  1.8284  0.4513 -0.8605
 7243TIP3   OH245923   6.430   5.642  10.631 -0.3030  0.2267 -0.0778
 7243TIP3    H145924   6.367   5.650  10.559 -0.6114 -0.5413  0.1061
 7243TIP3    H245925   6.509   5.607  10.591 -0.9054 -1.5000  0.1698
 7244TIP3   OH245926   2.233   6.659  12.740 -0.0897 -0.2015 -1.1541
 7244TIP3    H145927   2.275   6.679  12.656  0.4991  1.4345 -0.5125
 7244TIP3    H245928   2.232   6.563  12.745  2.6054 -0.3216 -1.6838
 7245TIP3   OH245929   5.854   6.863  10.765 -0.4752 -0.4159  0.0498
 7245TIP3    H145930   5.900   6.780  10.780  0.5810  0.3264  1.2366
 7245TIP3    H245931   5.913   6.929  10.803 -1.8433  0.7422  0.2342
 7246TIP3   OH245932   1.970   4.408  10.655 -0.0808 -0.0664 -0.4337
 7246TIP3    H145933   2.021   4.328  10.641 -1.2134 -0.7357 -0.9042
 7246TIP3    H245934   2.026   4.478  10.623  0.6952 -0.7318 -0.5672
 7247TIP3   OH245935   7.351   4.261  11.778 -0.1348  0.1333  0.1770
 7247TIP3    H145936   7.410   4.202  11.825  0.8781 -0.3335 -1.6250
 7247TIP3    H245937   7.408   4.324  11.735 -1.0239  0.3976 -0.6474
 7248TIP3   OH245938   6.459   0.252  10.703  0.0769  0.1923 -0.3868
 7248TIP3    H145939   6.416   0.176  10.743  0.6154  0.7549  1.3727
 7248TIP3    H245940   6.392   0.320  10.704  0.3175  0.4250  0.2837
 7249TIP3   OH245941   1.474   1.634  12.866  0.5711  0.0437  0.0731
 7249TIP3    H145942   1.498   1.670  12.951 -0.4486  0.2714  0.2871
 7249TIP3    H245943   1.542   1.570  12.847  0.5848 -0.3459  1.2883
 7250TIP3   OH245944   6.625   0.980  12.195 -0.1392  0.3883 -0.3640
 7250TIP3    H145945   6.708   0.943  12.225 -0.1792  0.6985  0.1611
 7250TIP3    H245946   6.603   0.932  12.115  0.0365 -0.3969  0.0491
 7251TIP3   OH245947   2.828   4.984  11.273 -0.0144 -0.4845 -0.2155
 7251TIP3    H145948   2.767   4.917  11.242 -0.7014 -0.1032  0.2780
 7251TIP3    H245949   2.791   5.066  11.241 -0.1824 -0.1820  0.7146
 7252TIP3   OH245950   5.616   2.873  12.281  0.2507  0.3034 -0.2581
 7252TIP3    H145951   5.660   2.946  12.324  1.1043  0.3905 -1.2320
 7252TIP3    H245952   5.584   2.818  12.353 -0.8564  1.8693  0.4863
 7253TIP3   OH245953   1.035   2.620  11.758  0.3606 -0.2377  0.2835
 7253TIP3    H145954   0.998   2.626  11.846  0.1664  0.6103  0.1533
 7253TIP3    H245955   0.958   2.614  11.701  0.5011 -1.5625  0.2207
 7254TIP3   OH245956   3.309   1.648  12.809 -0.4493 -0.5863  0.6392
 7254TIP3    H145957   3.289   1.561  12.843  0.6145 -0.5337  1.4454
 7254TIP3    H245958   3.253   1.707  12.859  0.1372 -0.6399  1.3652
 7255TIP3   OH245959   1.464   1.078  10.900  0.5381 -0.0957 -0.5185
 7255TIP3    H145960   1.547   1.076  10.947 -0.5323 -3.8674  1.5952
 7255TIP3    H245961   1.468   1.002  10.842 -1.1047  0.1540 -1.0054
 7256TIP3   OH245962   5.682   3.812  11.060 -0.2560 -0.7671  0.2400
 7256TIP3    H145963   5.659   3.895  11.018 -1.5301 -0.4616  1.4611
 7256TIP3    H245964   5.699   3.752  10.987 -1.6709 -0.0514 -0.7249
 7257TIP3   OH245965   0.008   2.285  11.379  0.6253  0.2167  0.0659
 7257TIP3    H145966  -0.036   2.205  11.350  0.2941  0.2296  0.5261
 7257TIP3    H245967  -0.042   2.356  11.339 -0.8051  0.3089  1.8762
 7258TIP3   OH245968   4.249   5.126  10.671  0.4089 -0.1285  0.9213
 7258TIP3    H145969   4.188   5.068  10.716  0.8573 -0.2611  1.3814
 7258TIP3    H245970   4.333   5.079  10.674  0.4429 -0.1331 -0.0638
 7259TIP3   OH245971   6.326   3.080  10.855 -0.4273 -0.0663  0.1354
 7259TIP3    H145972   6.262   3.015  10.827 -0.0118 -1.2965  1.8186
 7259TIP3    H245973   6.379   3.097  10.777 -1.7668 -0.2630 -0.8406
 7260TIP3   OH245974   2.394   3.072  12.365  0.4391  0.3765  0.1578
 7260TIP3    H145975   2.441   3.141  12.413  0.6197  0.4360 -0.0997
 7260TIP3    H245976   2.312   3.061  12.412 -0.2362  1.7968 -0.6264
 7261TIP3   OH245977   5.588   6.775  10.676  0.6478 -0.5575 -0.1457
 7261TIP3    H145978   5.672   6.816  10.695 -0.0903 -0.2021  2.8925
 7261TIP3    H245979   5.566   6.726  10.755 -0.9059 -2.6594 -1.7526
 7262TIP3   OH245980   0.730   1.936  10.881 -0.0503  0.2627 -0.4348
 7262TIP3    H145981   0.770   1.987  10.811  0.3872 -0.2939 -0.6029
 7262TIP3    H245982   0.757   1.846  10.863 -0.5294  0.0178  0.0433
 7263TIP3   OH245983   7.413   3.720  11.455 -0.1303  0.3279  0.3197
 7263TIP3    H145984   7.359   3.672  11.519  0.2638  0.7292  0.9571
 7263TIP3    H245985   7.503   3.708  11.486  0.3998 -1.9401 -1.7629
 7264TIP3   OH245986   7.277   3.156  11.950 -0.4413 -0.5731 -0.2217
 7264TIP3    H145987   7.192   3.196  11.968 -0.9589 -2.2723  1.4773
 7264TIP3    H245988   7.259   3.062  11.946  1.3238 -0.9566 -0.0276
 7265TIP3   OH245989   2.663   7.225  18.976 -0.7569 -0.5021 -0.0292
 7265TIP3    H145990   2.754   7.247  18.994 -1.2764  1.6636  0.2545
 7265TIP3    H245991   2.664   7.183  18.890  0.6562 -2.0455  0.6991
 7266TIP3   OH245992   5.097   2.583  11.362  0.0769  0.3563 -0.4416
 7266TIP3    H145993   5.066   2.658  11.311 -1.7366 -1.2327 -1.7977
 7266TIP3    H245994   5.018   2.546  11.401  0.7843 -1.4355 -0.6300
 7267TIP3   OH245995   1.301   5.323  12.119  0.1268 -0.2152  0.3297
 7267TIP3    H145996   1.279   5.266  12.045 -2.0687  0.7683  0.1285
 7267TIP3    H245997   1.288   5.268  12.196 -0.4444 -0.4471  0.0765
 7268TIP3   OH245998   7.022   5.536  12.731 -0.2956  0.1085 -0.0452
 7268TIP3    H145999   7.015   5.515  12.824 -0.8681  0.9210  0.1083
 7268TIP3    H246000   7.106   5.579  12.723  0.3596 -1.1452 -0.1575
 7269TIP3   OH246001   1.560   1.312  13.468  0.0252  0.1806 -0.0436
 7269TIP3    H146002   1.469   1.342  13.459  0.0249  0.2162  0.0736
 7269TIP3    H246003   1.558   1.220  13.443 -0.2225 -0.0790  0.8945
 7270TIP3   OH246004   5.773   7.541  12.752 -1.3088 -0.3096  0.3415
 7270TIP3    H146005   5.687   7.518  12.715 -0.6861 -1.5059 -0.4058
 7270TIP3    H246006   5.814   7.457  12.770  0.9175  0.1250 -2.1354
 7271TIP3   OH246007   0.852   3.053  12.320  0.7249  0.7673 -0.3141
 7271TIP3    H146008   0.831   2.961  12.332  0.2760  0.4611 -2.9107
 7271TIP3    H246009   0.810   3.097  12.394 -0.6520 -0.8950 -0.0485
 7272TIP3   OH246010   5.431   0.275  13.079 -0.1451  0.4199  0.3711
 7272TIP3    H146011   5.362   0.300  13.141  0.9448  1.2237  1.2901
 7272TIP3    H246012   5.510   0.267  13.132  0.4470 -0.7224 -0.6320
 7273TIP3   OH246013   3.199   2.502  11.017 -0.2669  0.3474 -0.1432
 7273TIP3    H146014   3.150   2.545  10.947  0.7922  1.5142 -0.1899
 7273TIP3    H246015   3.156   2.531  11.098 -1.4495 -0.9498 -0.2519
 7274TIP3   OH246016   1.011   1.035  12.220  0.6173  0.5614 -0.5325
 7274TIP3    H146017   0.933   1.011  12.271  1.1131 -0.4462 -0.2301
 7274TIP3    H246018   0.986   1.116  12.175 -0.7045  0.0992 -0.6696
 7275TIP3   OH246019   3.704   2.958  11.718  0.2683  0.3700 -0.1040
 7275TIP3    H146020   3.722   3.052  11.725 -1.1152  0.6091  0.6420
 7275TIP3    H246021   3.645   2.950  11.643 -1.1970  0.3813  0.9985
 7276TIP3   OH246022   2.473   6.653  12.199  0.4859  0.5818 -0.1839
 7276TIP3    H146023   2.490   6.627  12.108 -0.9604  1.0605 -0.6200
 7276TIP3    H246024   2.530   6.728  12.214  0.5188  0.6886 -0.8061
 7277TIP3   OH246025   3.628   4.654  12.713 -0.0455 -0.1938  0.3383
 7277TIP3    H146026   3.639   4.574  12.765  0.3693 -1.2822 -1.3190
 7277TIP3    H246027   3.547   4.640  12.665  0.5443 -0.0982 -0.7185
 7278TIP3   OH246028   3.812   5.128  12.118 -0.1012  0.2205  0.0230
 7278TIP3    H146029   3.778   5.178  12.044 -1.5509 -1.1775 -0.3170
 7278TIP3    H246030   3.755   5.152  12.191  0.0087  0.0445  0.1657
 7279TIP3   OH246031   3.745   3.686  12.200  0.6429 -0.0080  0.5032
 7279TIP3    H146032   3.748   3.603  12.153 -1.7216  0.5137 -0.7327
 7279TIP3    H246033   3.703   3.664  12.284 -0.7626 -0.0012 -0.1555
 7280TIP3   OH246034   4.148   0.042  12.321  0.1794 -0.4275 -0.0068
 7280TIP3    H146035   4.097  -0.024  12.274 -0.9127 -0.3030  0.9542
 7280TIP3    H246036   4.149   0.011  12.412  0.5836  0.3253  0.2534
 7281TIP3   OH246037   7.570   1.008  11.826  0.4271 -0.3599  0.0956
 7281TIP3    H146038   7.489   1.004  11.776  0.2054  1.0181  0.3039
 7281TIP3    H246039   7.631   0.954  11.777 -0.2596 -0.4063 -0.7380
 7282TIP3   OH246040   1.444   2.637  11.655 -0.0392 -0.3729 -0.0436
 7282TIP3    H146041   1.508   2.566  11.647 -0.5415 -0.6264 -2.7378
 7282TIP3    H246042   1.363   2.594  11.681  0.3467 -0.3256  1.3199
 7283TIP3   OH246043   1.949   5.587  10.827 -0.0896 -0.1190  0.2626
 7283TIP3    H146044   2.006   5.648  10.875 -0.3461  0.8086 -0.6009
 7283TIP3    H246045   2.002   5.507  10.821  1.5110  0.9696 -1.2314
 7284TIP3   OH246046   0.907   0.984  11.853  0.4519 -0.3083 -0.1954
 7284TIP3    H146047   0.891   1.017  11.765 -0.7604 -0.1903  0.0470
 7284TIP3    H246048   0.988   0.933  11.846  0.2814 -0.4275 -1.4060
 7285TIP3   OH246049   0.093   1.333  12.619 -0.0466  1.0736  0.3398
 7285TIP3    H146050   0.106   1.382  12.538 -0.0402  1.9269  0.8493
 7285TIP3    H246051  -0.000   1.311  12.618  0.6161 -2.6781 -1.9670
 7286TIP3   OH246052   4.418   3.085  12.399 -0.5554 -0.1590 -0.3449
 7286TIP3    H146053   4.394   2.999  12.435 -1.0977 -1.0268 -2.5784
 7286TIP3    H246054   4.339   3.114  12.353 -0.0245  1.0403 -0.5258
 7287TIP3   OH246055   0.057   2.160  10.987 -0.2734 -0.1964 -0.2872
 7287TIP3    H146056   0.088   2.240  11.028  0.1184 -0.3550 -0.2649
 7287TIP3    H246057   0.008   2.115  11.055  0.4416 -0.4972  0.0426
 7288TIP3   OH246058   5.876   7.313  11.259 -0.2969 -0.1235 -0.3387
 7288TIP3    H146059   5.856   7.223  11.232  1.6128 -0.2335 -1.5704
 7288TIP3    H246060   5.864   7.365  11.180  1.5888  0.1782 -0.4801
 7289TIP3   OH246061   6.150   4.658  11.171 -0.3779 -0.0105 -0.3046
 7289TIP3    H146062   6.112   4.743  11.150  1.6909  0.3749 -3.0794
 7289TIP3    H246063   6.090   4.594  11.133  0.2345  0.4813 -2.2292
 7290TIP3   OH246064   5.757   2.504  12.626  0.4983  0.5209  0.3010
 7290TIP3    H146065   5.771   2.449  12.549  0.4589 -1.7594  1.8397
 7290TIP3    H246066   5.844   2.510  12.666  0.2474  0.4276  0.8647
 7291TIP3   OH246067   5.755   1.539  11.711 -0.0937 -0.6681 -0.3846
 7291TIP3    H146068   5.749   1.477  11.638  0.4189  1.2479 -2.1584
 7291TIP3    H246069   5.667   1.575  11.720 -0.0035 -0.4141 -0.5113
 7292TIP3   OH246070   0.984   5.941  13.602  0.5221 -0.1994 -0.0368
 7292TIP3    H146071   1.040   5.976  13.533  2.4189 -0.7827  1.1236
 7292TIP3    H246072   0.917   6.007  13.614 -1.0999 -0.9217 -3.7296
 7293TIP3   OH246073   3.860   1.508  10.547 -0.0059  0.2946  0.5210
 7293TIP3    H146074   3.913   1.439  10.507 -2.1835 -0.5890 -0.9810
 7293TIP3    H246075   3.901   1.589  10.517  1.9216 -0.2672  1.4057
 7294TIP3   OH246076   4.150   4.034  12.225  0.2202 -0.4752  0.5889
 7294TIP3    H146077   4.136   4.111  12.171  1.1736  1.1886  2.5616
 7294TIP3    H246078   4.083   4.039  12.293 -0.1619 -1.8196  0.3492
 7295TIP3   OH246079   0.418   4.656  11.296  0.2710  0.2733  0.2232
 7295TIP3    H146080   0.512   4.666  11.311  0.1247 -0.7611  2.0936
 7295TIP3    H246081   0.378   4.718  11.356 -0.2770 -0.2260  0.3723
 7296TIP3   OH246082   7.279   6.920  12.566 -0.2552 -0.3177  0.0010
 7296TIP3    H146083   7.286   6.990  12.630 -2.3734 -0.4490  0.4401
 7296TIP3    H246084   7.189   6.889  12.574 -0.1403 -1.3299 -2.0247
 7297TIP3   OH246085   6.599   6.724  12.051 -0.2390 -0.0268  0.0162
 7297TIP3    H146086   6.623   6.691  12.138  0.2820  1.2690  0.3807
 7297TIP3    H246087   6.603   6.647  11.995  1.3623 -0.5301  0.7589
 7298TIP3   OH246088   2.653   0.677  11.070  0.0264 -0.0596 -0.4656
 7298TIP3    H146089   2.663   0.770  11.091 -0.5906  0.3397 -1.8288
 7298TIP3    H246090   2.565   0.655  11.101  0.9168 -0.7846  1.7768
 7299TIP3   OH246091   2.880   4.248  10.725  0.1056 -0.7451 -0.6038
 7299TIP3    H146092   2.856   4.311  10.657 -1.7512  0.0007  0.6532
 7299TIP3    H246093   2.963   4.281  10.761 -0.9560  1.2012  0.2045
 7300TIP3   OH246094   3.433   5.316  12.524  0.1092 -0.3284 -0.1846
 7300TIP3    H146095   3.527   5.306  12.540  0.0136 -1.2379 -0.1606
 7300TIP3    H246096   3.420   5.286  12.435 -0.4916 -2.4961  0.5673
 7301TIP3   OH246097   7.280   1.951  13.277  0.3244 -0.6402 -0.3659
 7301TIP3    H146098   7.202   1.924  13.327  0.3913  1.0603  0.7481
 7301TIP3    H246099   7.254   1.943  13.185 -0.9368 -0.7795 -0.0181
 7302TIP3   OH246100   1.525   7.110  11.748  0.4201 -0.0577 -0.0268
 7302TIP3    H146101   1.521   7.042  11.815 -0.9223 -0.3440 -0.3686
 7302TIP3    H246102   1.535   7.192  11.797 -0.5917 -0.2612  0.5291
 7303TIP3   OH246103   6.989   1.532  11.144 -0.2596 -0.1630 -0.6572
 7303TIP3    H146104   6.917   1.538  11.081 -1.1391 -0.9857  0.2375
 7303TIP3    H246105   7.061   1.493  11.094 -1.8666 -3.6932 -0.4951
 7304TIP3   OH246106   5.605   4.446  11.346 -0.0063  0.2824 -0.3189
 7304TIP3    H146107   5.700   4.460  11.347  0.3536 -1.8238  1.1398
 7304TIP3    H246108   5.587   4.409  11.259  0.0348  3.0780 -1.6012
 7305TIP3   OH246109   3.083   2.976  11.679 -0.0405 -0.4896 -0.5419
 7305TIP3    H146110   3.170   3.017  11.672  0.2743 -1.0864 -0.1517
 7305TIP3    H246111   3.051   3.003  11.765 -1.0095  1.1850 -1.3667
 7306TIP3   OH246112   4.111   0.564  13.041 -0.4865 -0.4203 -0.3867
 7306TIP3    H146113   4.185   0.591  12.987  0.2939 -0.9477  0.4018
 7306TIP3    H246114   4.069   0.494  12.991 -0.0002 -0.6438 -0.4836
 7307TIP3   OH246115   0.951   5.900  13.189  0.4795  0.0906 -0.5132
 7307TIP3    H146116   0.930   5.834  13.122 -0.5955 -0.5388  0.4028
 7307TIP3    H246117   0.869   5.948  13.201  1.0617  1.1577 -0.6596
 7308TIP3   OH246118   5.728   5.360  11.409 -0.1259  0.0111 -0.7032
 7308TIP3    H146119   5.768   5.278  11.438  0.3408  0.5263  0.1576
 7308TIP3    H246120   5.763   5.426  11.468 -3.1742  0.3414  0.9471
 7309TIP3   OH246121   5.471   3.392  11.646 -0.3021  0.4628 -0.3335
 7309TIP3    H146122   5.478   3.440  11.564 -0.5424  1.8175  0.4137
 7309TIP3    H246123   5.384   3.413  11.680 -0.9787 -1.5918 -0.6083
 7310TIP3   OH246124   5.047   0.565  12.343  0.7252 -0.3398  0.1558
 7310TIP3    H146125   5.086   0.652  12.350  0.8719 -0.3605 -0.4027
 7310TIP3    H246126   4.953   0.580  12.345  0.7253 -0.3011  1.6984
 7311TIP3   OH246127   0.656   2.680  12.048 -0.2844 -0.3940 -0.4104
 7311TIP3    H146128   0.672   2.595  12.008 -0.2907  0.0047 -1.2977
 7311TIP3    H246129   0.618   2.661  12.133  1.6430 -1.3244  0.3056
 7312TIP3   OH246130   4.053   0.677  11.754 -0.2206  0.0275 -0.7520
 7312TIP3    H146131   4.101   0.635  11.825 -2.7639 -0.7172  0.6496
 7312TIP3    H246132   4.045   0.609  11.687 -1.3595 -0.6456  0.0437
 7313TIP3   OH246133   0.552   5.642  12.261  0.1665 -0.3823 -0.5760
 7313TIP3    H146134   0.641   5.648  12.227  0.0534  0.2618 -0.7652
 7313TIP3    H246135   0.525   5.552  12.243  0.6966 -0.5135 -0.7142
 7314TIP3   OH246136   1.926   1.261  12.114 -0.3710 -0.1574 -0.0730
 7314TIP3    H146137   1.925   1.192  12.181  1.1238  0.5709  0.7474
 7314TIP3    H246138   1.916   1.214  12.031 -0.3840 -1.2576  0.5371
 7315TIP3   OH246139   0.365   3.326  12.609  0.7262  0.2386 -0.3204
 7315TIP3    H146140   0.360   3.246  12.557  0.0812  0.5777 -0.8037
 7315TIP3    H246141   0.380   3.395  12.544  0.2792  0.6247 -0.0232
 7316TIP3   OH246142   4.245   7.662  12.582 -0.2290  0.1799  0.1380
 7316TIP3    H146143   4.181   7.594  12.602  1.1129 -1.0675  0.4197
 7316TIP3    H246144   4.268   7.698  12.668 -0.8034  0.8712  0.0054
 7317TIP3   OH246145   2.105   3.598  10.986  0.2258  0.6765  0.1439
 7317TIP3    H146146   2.014   3.571  10.979  1.0206 -2.2217 -0.6996
 7317TIP3    H246147   2.139   3.591  10.896  1.1889  2.1882  0.3457
 7318TIP3   OH246148   1.537   0.287  13.005  0.0833  0.6330  0.2899
 7318TIP3    H146149   1.587   0.277  12.923  2.7392 -0.1372  1.8693
 7318TIP3    H246150   1.603   0.315  13.069 -1.8469  0.9112  2.2483
 7319TIP3   OH246151   3.359   5.578  12.337 -0.2005  0.7272  0.2688
 7319TIP3    H146152   3.399   5.639  12.399 -0.2007  0.9802  0.0226
 7319TIP3    H246153   3.427   5.512  12.322 -0.5188  0.1722  1.2168
 7320TIP3   OH246154   5.035   4.784  12.489  0.0390  0.0352  0.4495
 7320TIP3    H146155   4.942   4.778  12.467 -0.0081  0.2588  0.5845
 7320TIP3    H246156   5.042   4.752  12.578  0.1126 -0.1092  0.3931
 7321TIP3   OH246157   2.430   5.898  13.381 -0.2457  0.2756 -0.0367
 7321TIP3    H146158   2.351   5.924  13.333 -1.1523  1.1096  1.8168
 7321TIP3    H246159   2.420   5.804  13.393 -0.5714  0.2472 -0.4706
 7322TIP3   OH246160   0.993   4.709  12.349  0.0896 -0.5661  0.6617
 7322TIP3    H146161   1.039   4.758  12.417 -0.3446 -2.2624  2.2805
 7322TIP3    H246162   1.062   4.668  12.297  0.4300  0.0834  0.6012
 7323TIP3   OH246163   0.963   6.076  10.888  0.1105 -0.1777  0.1871
 7323TIP3    H146164   0.887   6.041  10.934  0.8481 -2.5700 -0.2814
 7323TIP3    H246165   1.024   6.003  10.882  2.7377  1.8012  1.0176
 7324TIP3   OH246166   6.172   5.306  11.464 -0.0930 -0.2546 -0.3185
 7324TIP3    H146167   6.112   5.249  11.416  1.4574 -1.2084 -1.1794
 7324TIP3    H246168   6.118   5.381  11.490 -1.8647 -1.4970 -0.2516
 7325TIP3   OH246169   4.691   7.094  11.121 -0.2069 -0.1669 -0.5117
 7325TIP3    H146170   4.662   7.174  11.078 -0.0646  0.0974 -0.1141
 7325TIP3    H246171   4.621   7.031  11.103  0.8894 -0.7828 -3.1617
 7326TIP3   OH246172   1.690   1.620  12.550  0.3768 -0.2200 -0.2234
 7326TIP3    H146173   1.780   1.607  12.522  0.2237 -1.8561 -0.0193
 7326TIP3    H246174   1.692   1.606  12.645 -0.0757 -0.1528 -0.2010
 7327TIP3   OH246175   5.899   3.822  12.492  0.0239 -0.0062  0.2420
 7327TIP3    H146176   5.985   3.808  12.534 -0.3780  2.0327  1.9632
 7327TIP3    H246177   5.836   3.802  12.561 -0.8585 -0.4084 -0.6650
 7328TIP3   OH246178   4.630   5.531  11.440 -0.1988 -0.1997 -0.3869
 7328TIP3    H146179   4.592   5.498  11.359 -0.2812 -1.9405  0.3165
 7328TIP3    H246180   4.565   5.593  11.474 -0.4977 -0.0250 -1.2514
 7329TIP3   OH246181   0.560   0.471  11.942  0.2358 -0.7066  0.0351
 7329TIP3    H146182   0.496   0.414  11.901  1.5169 -0.3983 -2.5724
 7329TIP3    H246183   0.612   0.414  11.998 -0.4618 -1.4919 -0.1094
 7330TIP3   OH246184   6.305   6.323  11.230 -0.0878 -0.4637  0.3295
 7330TIP3    H146185   6.355   6.378  11.170 -0.2976 -0.0795  0.5056
 7330TIP3    H246186   6.294   6.376  11.308 -3.0912  0.5562 -0.6451
 7331TIP3   OH246187   0.365   4.467  12.278  0.5177 -0.1802 -0.0792
 7331TIP3    H146188   0.333   4.491  12.191  0.2086 -1.9562 -0.5048
 7331TIP3    H246189   0.444   4.416  12.261  0.4380 -0.5682  0.6778
 7332TIP3   OH246190   7.005   1.975  11.480  0.5099  0.4368 -0.3741
 7332TIP3    H146191   6.924   2.021  11.459  0.7552  0.6499 -0.8612
 7332TIP3    H246192   6.979   1.912  11.547  0.0939  1.0115  0.0149
 7333TIP3   OH246193   3.639   0.178  12.027 -0.0794 -0.1641 -0.3718
 7333TIP3    H146194   3.625   0.086  12.048 -0.1682 -0.1584 -0.4049
 7333TIP3    H246195   3.574   0.197  11.959 -0.3062  0.0186 -0.1053
 7334TIP3   OH246196   0.710   6.383  11.326 -0.2619 -0.2642 -0.0241
 7334TIP3    H146197   0.803   6.405  11.325 -0.4462  0.8434 -2.8152
 7334TIP3    H246198   0.698   6.330  11.247 -1.8197 -1.4685  0.9545
 7335TIP3   OH246199   6.156   7.354  11.638 -0.2480 -0.4517 -0.6844
 7335TIP3    H146200   6.234   7.337  11.586 -0.3331  1.9500 -1.7440
 7335TIP3    H246201   6.188   7.357  11.728  0.5458 -1.2904 -0.9263
 7336TIP3   OH246202   2.788   7.136  11.733  0.1118  0.5650  0.4205
 7336TIP3    H146203   2.765   7.227  11.714  0.8145  0.8043  0.6682
 7336TIP3    H246204   2.875   7.141  11.773  0.0119 -0.1897  0.7528
 7337TIP3   OH246205   1.078   7.095  11.718 -0.4773 -0.2140  0.4130
 7337TIP3    H146206   1.097   7.042  11.797  0.4023  0.3341  0.5857
 7337TIP3    H246207   0.991   7.131  11.734 -1.5032 -2.3194 -0.1113
 7338TIP3   OH246208   2.082   4.940  12.815  0.0080 -0.3493  0.6367
 7338TIP3    H146209   2.164   4.931  12.766 -0.2504  0.4831  0.0342
 7338TIP3    H246210   2.105   4.995  12.890  0.1568 -0.7191  0.8660
 7339TIP3   OH246211   4.797   2.144  11.842 -0.1105  0.2504  0.0577
 7339TIP3    H146212   4.877   2.197  11.832  0.4307 -0.6455 -0.6056
 7339TIP3    H246213   4.734   2.186  11.784  0.7303 -0.5677 -1.5266
 7340TIP3   OH246214   5.322   1.792  11.520 -0.0415 -0.1362  0.6002
 7340TIP3    H146215   5.230   1.764  11.524  0.0297 -0.6261 -0.5125
 7340TIP3    H246216   5.341   1.794  11.426  0.7793  1.0199  0.7741
 7341TIP3   OH246217   7.256   5.376  10.383  0.6925 -1.1628  0.6155
 7341TIP3    H146218   7.278   5.398  10.292 -0.9756  1.8902  0.8263
 7341TIP3    H246219   7.331   5.407  10.434  0.0824  0.6078  0.5227
 7342TIP3   OH246220   0.837   2.596  11.565  0.3813 -0.1284  1.0186
 7342TIP3    H146221   0.760   2.653  11.570  0.0521 -0.5019  0.4042
 7342TIP3    H246222   0.801   2.511  11.538  0.9576 -0.4278  1.1848
 7343TIP3   OH246223   1.848   3.020  11.501  0.0758 -0.0152  0.2521
 7343TIP3    H146224   1.891   3.101  11.474  1.0258 -0.4389  0.4430
 7343TIP3    H246225   1.754   3.036  11.488  0.4048  0.2232 -2.0744
 7344TIP3   OH246226   6.635   1.962  11.467  0.3474 -0.2222  0.0561
 7344TIP3    H146227   6.691   2.039  11.471  0.2027 -0.0216 -1.3860
 7344TIP3    H246228   6.631   1.939  11.374 -0.8780 -1.0324  0.2786
 7345TIP3   OH246229   6.872   5.220  12.525 -0.3052 -0.8837 -0.0086
 7345TIP3    H146230   6.853   5.130  12.553  3.7365 -1.7431  0.6394
 7345TIP3    H246231   6.884   5.214  12.431 -0.3085 -0.9690 -0.0034
 7346TIP3   OH246232   4.990   1.537  11.776 -0.5459 -0.0632  0.1860
 7346TIP3    H146233   5.056   1.565  11.839 -1.1567 -0.7647  1.1735
 7346TIP3    H246234   5.035   1.472  11.722 -0.1086  0.3109  0.0933
 7347TIP3   OH246235   1.455   2.924  11.614  0.0015  0.1376 -0.1825
 7347TIP3    H146236   1.533   2.941  11.667  0.0021 -1.0776  0.2421
 7347TIP3    H246237   1.457   2.829  11.598 -2.0806 -0.1675  0.9947
 7348TIP3   OH246238   4.389   5.414  12.271 -0.1410 -0.1935  0.5028
 7348TIP3    H146239   4.395   5.373  12.357  1.0080 -2.0862 -0.4132
 7348TIP3    H246240   4.426   5.349  12.211 -2.2287  0.4387 -1.6339
 7349TIP3   OH246241   0.121   6.706  12.463  0.3784 -0.5992  0.8222
 7349TIP3    H146242   0.166   6.663  12.390 -1.6875  0.3248 -1.1106
 7349TIP3    H246243   0.166   6.790  12.473 -0.0463 -0.2319 -0.2180
 7350TIP3   OH246244   2.985   7.369  11.430  0.4665  0.5234  0.0932
 7350TIP3    H146245   3.066   7.402  11.391  2.1074 -1.0194  1.9586
 7350TIP3    H246246   2.994   7.274  11.427 -0.7384  0.3320  1.3975
 7351TIP3   OH246247   7.611   5.384  12.011  0.1894 -0.1530  0.1774
 7351TIP3    H146248   7.599   5.454  12.075 -2.0565 -0.0045 -0.3351
 7351TIP3    H246249   7.705   5.386  11.991  0.3413  2.0947  0.8375
 7352TIP3   OH246250   4.575   4.787  11.242  0.0370  0.5011  0.0848
 7352TIP3    H146251   4.668   4.794  11.221 -0.1911  1.4141 -0.7282
 7352TIP3    H246252   4.549   4.876  11.264 -0.7011  0.3078  0.0180
 7353TIP3   OH246253   0.130   4.649  12.096 -0.2908 -0.1879 -0.3491
 7353TIP3    H146254   0.041   4.683  12.089 -0.6734 -0.8274  0.9595
 7353TIP3    H246255   0.119   4.554  12.104  0.2562 -0.1285  2.3925
 7354TIP3   OH246256   0.687   2.221  12.035 -0.7228 -0.1029 -0.7435
 7354TIP3    H146257   0.650   2.169  12.107 -0.8790  1.2636  0.2142
 7354TIP3    H246258   0.621   2.289  12.019  0.3503  1.0226 -0.5414
 7355TIP3   OH246259   6.440   0.189  11.938 -0.4390 -0.4808  0.1908
 7355TIP3    H146260   6.369   0.150  11.989  0.1246  1.1817  2.4072
 7355TIP3    H246261   6.400   0.263  11.894 -0.1114  0.5146  1.5180
 7356TIP3   OH246262   3.256   3.707  12.950 -0.6090  0.1306  0.1146
 7356TIP3    H146263   3.296   3.783  12.908 -0.3677  0.4130  0.8334
 7356TIP3    H246264   3.196   3.745  13.014 -0.2881 -0.2834  0.6651
 7357TIP3   OH246265   0.311   7.455  10.983  0.2599  0.2813 -0.0711
 7357TIP3    H146266   0.397   7.490  11.004 -0.5349  2.4456 -0.1423
 7357TIP3    H246267   0.262   7.461  11.066 -0.4256  1.0982 -0.5137
 7358TIP3   OH246268   6.608   5.751  13.001 -0.0717 -0.2979  0.6676
 7358TIP3    H146269   6.661   5.716  13.074 -1.1326 -0.5853  1.3258
 7358TIP3    H246270   6.518   5.743  13.032 -0.8062 -3.0306 -1.7435
 7359TIP3   OH246271   0.815   3.652  11.413 -0.1966 -0.6182  0.5367
 7359TIP3    H146272   0.734   3.636  11.461 -0.4422 -0.5235  0.1585
 7359TIP3    H246273   0.873   3.582  11.440 -0.4605 -0.7795  0.6900
 7360TIP3   OH246274   3.673   3.110  12.141  0.2173 -0.3765  0.3481
 7360TIP3    H146275   3.670   3.096  12.046  0.4046  0.3143  0.2370
 7360TIP3    H246276   3.764   3.093  12.166  0.3705  0.2766  0.2621
 7361TIP3   OH246277   3.099   5.838  12.262 -0.4738  0.0547 -0.4998
 7361TIP3    H146278   3.070   5.805  12.347  0.0053  1.0105  0.0512
 7361TIP3    H246279   3.085   5.765  12.202  0.7146 -1.2048  0.7053
 7362TIP3   OH246280   6.679   4.419  12.817 -0.0014 -0.4822  0.1045
 7362TIP3    H146281   6.587   4.397  12.802 -0.2520 -1.1140  2.3112
 7362TIP3    H246282   6.722   4.335  12.831  1.5493 -0.4892 -3.5172
 7363TIP3   OH246283   3.885   2.001  13.139  0.7781 -0.4900 -0.5109
 7363TIP3    H146284   3.976   2.011  13.111  0.6954  0.2990 -0.5311
 7363TIP3    H246285   3.834   2.044  13.070  0.4420 -0.2845 -0.1390
 7364TIP3   OH246286   2.943   4.113  12.350 -0.0921 -0.4343 -0.2979
 7364TIP3    H146287   2.921   4.031  12.304  2.1828 -0.0967 -2.1610
 7364TIP3    H246288   3.014   4.151  12.299  0.1210  1.8576  1.5367
 7365TIP3   OH246289   7.189   2.957  11.598 -0.1614 -0.0769  0.1939
 7365TIP3    H146290   7.147   3.042  11.610  1.5012  0.8584 -0.2986
 7365TIP3    H246291   7.122   2.893  11.622 -0.8995  1.3891  2.2887
 7366TIP3   OH246292   6.086   4.797  12.225 -0.2181 -0.2403 -0.0732
 7366TIP3    H146293   6.072   4.703  12.236 -1.9602 -0.1011 -0.6943
 7366TIP3    H246294   6.087   4.811  12.131  2.6892  0.0763 -0.0878
 7367TIP3   OH246295   4.375   0.143  12.792 -0.2923  0.0534  0.2295
 7367TIP3    H146296   4.310   0.158  12.861  0.4182 -0.5312  1.0474
 7367TIP3    H246297   4.438   0.083  12.831 -0.2399 -0.8382 -1.1797
 7368TIP3   OH246298   3.439   5.533  13.137  0.3775  0.0365  0.1088
 7368TIP3    H146299   3.435   5.481  13.217  1.2121 -0.9377 -0.4624
 7368TIP3    H246300   3.529   5.524  13.107  0.4036  1.4030 -0.2896
 7369TIP3   OH246301   6.898   6.715  13.383  0.3029  0.4553 -0.2510
 7369TIP3    H146302   6.975   6.754  13.424 -0.4711  0.2386  1.5157
 7369TIP3    H246303   6.928   6.631  13.349  0.5728 -0.3298  1.7765
 7370TIP3   OH246304   7.181   2.264  12.096  0.4810  0.7747  0.6960
 7370TIP3    H146305   7.145   2.323  12.030 -0.5901 -1.0154 -0.4002
 7370TIP3    H246306   7.232   2.199  12.046 -1.1545 -1.1966  1.4502
 7371TIP3   OH246307   5.689   6.106  13.490 -0.5927  0.2800 -0.0454
 7371TIP3    H146308   5.703   6.020  13.452  0.5813  0.3194  0.2662
 7371TIP3    H246309   5.716   6.097  13.581  1.3842  1.4406 -0.4690
 7372TIP3   OH246310   1.592   2.388  11.040 -0.1096 -0.7528 -0.2242
 7372TIP3    H146311   1.670   2.398  11.094 -0.4082 -2.4896  0.5732
 7372TIP3    H246312   1.595   2.298  11.008 -2.4573 -1.3539  0.9882
 7373TIP3   OH246313   6.247   7.604  12.851 -0.2461  0.6343  0.0460
 7373TIP3    H146314   6.324   7.618  12.905  0.5715 -2.0600 -0.2496
 7373TIP3    H246315   6.173   7.623  12.908  0.5785  2.2493  0.6525
 7374TIP3   OH246316   4.322   1.294  11.886  0.2421 -0.5976 -0.0106
 7374TIP3    H146317   4.236   1.298  11.843  0.2330 -1.3057 -0.0684
 7374TIP3    H246318   4.302   1.273  11.977  0.1567  2.3514  0.7532
 7375TIP3   OH246319   1.346   4.711  11.151 -0.5338  0.0909  0.0671
 7375TIP3    H146320   1.272   4.736  11.205  2.1988  3.1562  2.8808
 7375TIP3    H246321   1.365   4.789  11.098 -0.4997 -1.3584 -2.2081
 7376TIP3   OH246322   7.437   5.245  12.166 -0.6234 -0.4230  0.1210
 7376TIP3    H146323   7.483   5.185  12.224 -0.2260  1.6251  2.0759
 7376TIP3    H246324   7.504   5.308  12.137 -1.5224  0.7240  0.4287
 7377TIP3   OH246325   1.746   5.028  13.555 -0.2678 -0.0569  0.5720
 7377TIP3    H146326   1.724   4.938  13.578  0.7701 -0.3364  0.5156
 7377TIP3    H246327   1.837   5.024  13.527 -0.9167  0.5949 -1.8259
 7378TIP3   OH246328   4.977   2.290  12.196  0.2625 -0.5789 -0.5187
 7378TIP3    H146329   5.009   2.201  12.212 -0.4734 -0.4306  2.1267
 7378TIP3    H246330   4.912   2.305  12.264 -0.0814  1.7895 -1.2864
 7379TIP3   OH246331   3.823   2.697  11.594 -0.2095  0.2210 -0.5708
 7379TIP3    H146332   3.884   2.752  11.644  0.2648 -1.1508  0.4160
 7379TIP3    H246333   3.749   2.754  11.576 -0.6921  0.6463  2.2475
 7380TIP3   OH246334   2.055   7.631  10.974  0.1981  0.1080 -0.4261
 7380TIP3    H146335   1.983   7.603  10.918 -0.0359  1.6603 -0.9549
 7380TIP3    H246336   2.014   7.683  11.043  0.7407  0.4782 -0.3723
 7381TIP3   OH246337   7.349   1.656  13.074 -0.2795 -0.1754 -0.3331
 7381TIP3    H146338   7.293   1.734  13.072  0.5374  0.4303 -2.0780
 7381TIP3    H246339   7.357   1.635  13.166 -0.1730  2.1014  0.2516
 7382TIP3   OH246340   4.177   4.392  11.589 -0.2068  0.2553  0.0794
 7382TIP3    H146341   4.171   4.396  11.494  2.8363  1.6040 -0.1655
 7382TIP3    H246342   4.190   4.483  11.616  1.1346 -0.3103  1.5108
 7383TIP3   OH246343   0.146   0.176  11.282  0.2424  0.6713  0.0142
 7383TIP3    H146344   0.137   0.148  11.190 -0.7118  0.0670  0.2759
 7383TIP3    H246345   0.147   0.094  11.331 -0.0379  1.0198  0.6066
 7384TIP3   OH246346   0.558   2.436  11.654  0.2673 -0.1890  0.1368
 7384TIP3    H146347   0.640   2.396  11.683  1.1201  0.6717 -0.9834
 7384TIP3    H246348   0.580   2.476  11.570 -0.9561  1.2725  0.4762
 7385TIP3   OH246349   7.107   5.910  11.138 -0.2149 -0.2474 -0.2810
 7385TIP3    H146350   7.086   5.908  11.231  3.8353 -0.8927  0.8049
 7385TIP3    H246351   7.120   6.003  11.118 -0.7425 -0.1438 -0.1697
 7386TIP3   OH246352   2.689   3.600  11.321 -0.5479  0.3613  0.4944
 7386TIP3    H146353   2.611   3.656  11.319 -0.8010 -0.0187 -0.8475
 7386TIP3    H246354   2.672   3.540  11.394 -1.0473  0.9269  0.8594
 7387TIP3   OH246355   5.527   6.782  13.059  0.6900  0.0496 -0.6256
 7387TIP3    H146356   5.448   6.777  13.113  0.4538  1.2892 -0.8274
 7387TIP3    H246357   5.597   6.799  13.121  0.6924 -0.3232 -0.5235
 7388TIP3   OH246358   3.108   1.528  10.816 -0.0165  0.0178  0.8760
 7388TIP3    H146359   3.080   1.476  10.891  1.0234  1.0605  2.0276
 7388TIP3    H246360   3.200   1.504  10.803  0.4174  1.3839  1.3023
 7389TIP3   OH246361   6.358   3.885  11.615 -0.6387  0.7459  0.0138
 7389TIP3    H146362   6.342   3.822  11.544  0.1185  1.8838 -1.2183
 7389TIP3    H246363   6.333   3.838  11.694  0.3911 -1.2971 -0.7889
 7390TIP3   OH246364   4.353   1.127  11.424 -0.0602  0.4278  0.2884
 7390TIP3    H146365   4.279   1.119  11.364 -0.5058  1.4641  0.6874
 7390TIP3    H246366   4.374   1.220  11.424  0.8078  0.2415  0.7077
 7391TIP3   OH246367   0.463   0.129  10.974 -0.7068 -0.0806  0.2126
 7391TIP3    H146368   0.556   0.109  10.965 -0.4876 -1.0961  3.3752
 7391TIP3    H246369   0.420   0.068  10.913  0.6417  1.7834 -2.8327
 7392TIP3   OH246370   4.288   1.794  11.229  0.6507 -0.1677  0.1451
 7392TIP3    H146371   4.241   1.763  11.152  0.4037  0.8384 -0.1254
 7392TIP3    H246372   4.372   1.826  11.195  0.4858  0.4072  0.2640
 7393TIP3   OH246373   6.066   2.682  12.011 -0.0058 -0.1339 -0.4596
 7393TIP3    H146374   6.045   2.623  11.938  0.4599  0.6697 -1.2557
 7393TIP3    H246375   5.981   2.699  12.052 -0.2406 -0.7884 -0.6567
 7394TIP3   OH246376   6.147   5.721  11.122  0.3705  0.3120  0.1165
 7394TIP3    H146377   6.167   5.721  11.215  0.6225 -0.8333  0.0829
 7394TIP3    H246378   6.168   5.810  11.092 -0.8101  1.0383  1.3556
 7395TIP3   OH246379   5.793   5.039  12.213  0.3381 -0.1104  0.2742
 7395TIP3    H146380   5.772   5.080  12.129  0.0058 -0.0341  0.3908
 7395TIP3    H246381   5.832   5.109  12.265  0.9802 -0.2771  0.0226
 7396TIP3   OH246382   3.597   0.825  12.657  0.1143  0.2625 -0.0340
 7396TIP3    H146383   3.520   0.790  12.701 -0.1105  1.9097  0.9402
 7396TIP3    H246384   3.562   0.873  12.582  0.0098  2.2808  1.2382
 7397TIP3   OH246385   6.707   5.630  10.806  0.6992 -0.0931 -0.0530
 7397TIP3    H146386   6.724   5.599  10.895 -1.0357  0.9321  0.6893
 7397TIP3    H246387   6.662   5.558  10.763 -3.2245  1.0880  1.6267
 7398TIP3   OH246388   4.663   2.438  12.581 -0.7336 -0.2052 -0.1726
 7398TIP3    H146389   4.610   2.369  12.620  0.0933 -0.4888  0.4775
 7398TIP3    H246390   4.660   2.510  12.644  0.2432 -0.5007  0.2348
 7399TIP3   OH246391   6.266   1.337  11.384 -0.0897 -0.3695 -0.1736
 7399TIP3    H146392   6.256   1.280  11.308  0.8516  0.4514 -0.9578
 7399TIP3    H246393   6.279   1.424  11.346 -1.2749  0.3500  0.9754
 7400TIP3   OH246394   3.394   7.272  10.832  0.2818  0.6008  0.0191
 7400TIP3    H146395   3.405   7.185  10.794  2.9583  1.6541 -1.9249
 7400TIP3    H246396   3.310   7.303  10.797 -0.2117 -0.7682 -0.0852
 7401TIP3   OH246397   3.216   6.203  12.383 -0.6155 -0.3139 -0.1767
 7401TIP3    H146398   3.193   6.200  12.290 -0.1602  1.5157 -0.3958
 7401TIP3    H246399   3.256   6.118  12.401  2.1487  0.3406 -2.4567
 7402TIP3   OH246400   1.350   1.326  12.484 -0.3392 -0.0271 -0.2366
 7402TIP3    H146401   1.430   1.310  12.534 -0.8195  0.1362  0.6002
 7402TIP3    H246402   1.328   1.240  12.448  0.3276 -0.0293 -0.6593
 7403TIP3   OH246403   6.565   6.834  10.659  0.2257  0.5940 -0.2794
 7403TIP3    H146404   6.544   6.863  10.570  2.0085  0.8235 -0.6575
 7403TIP3    H246405   6.633   6.894  10.689  0.0198  0.2016  1.0586
 7404TIP3   OH246406   1.355   6.043  11.698 -0.5668  0.3690 -0.1600
 7404TIP3    H146407   1.386   6.085  11.619  1.2389 -0.0506  0.2774
 7404TIP3    H246408   1.350   6.113  11.763  1.8509  0.1078  0.4031
 7405TIP3   OH246409   1.633   0.640  12.128 -0.2693  0.4936 -0.5357
 7405TIP3    H146410   1.539   0.623  12.130 -0.4526  1.3240 -1.1642
 7405TIP3    H246411   1.656   0.633  12.035  0.4081 -0.2909 -0.3161
 7406TIP3   OH246412   1.453   0.423  12.269  0.3457  0.5177 -0.3561
 7406TIP3    H146413   1.418   0.484  12.334  0.7283  1.2282 -0.8090
 7406TIP3    H246414   1.510   0.364  12.320 -1.6316 -0.8122  0.4350
 7407TIP3   OH246415   3.936   1.479  13.621  0.4262 -1.2309  0.2057
 7407TIP3    H146416   3.951   1.537  13.696 -2.8195  0.0573  0.0210
 7407TIP3    H246417   4.002   1.410  13.630  1.7425  0.2401  2.8108
 7408TIP3   OH246418   5.954   7.136  13.375  0.0912  0.2999 -0.3881
 7408TIP3    H146419   6.047   7.127  13.399  0.2557 -1.7816 -1.4924
 7408TIP3    H246420   5.938   7.061  13.318 -2.2072  0.8219 -0.5018
 7409TIP3   OH246421   0.758   7.004  11.131  0.2527 -0.2752  0.0921
 7409TIP3    H146422   0.804   7.088  11.122 -1.7945  0.9922  0.6998
 7409TIP3    H246423   0.776   6.958  11.049  1.3754  0.7930 -0.2816
 7410TIP3   OH246424   4.363   1.994  12.467 -0.3955 -0.2709 -0.5083
 7410TIP3    H146425   4.313   1.916  12.490  1.5038 -1.5325 -0.3922
 7410TIP3    H246426   4.330   2.019  12.380  0.2942 -2.4604 -1.4926
 7411TIP3   OH246427   7.409   3.581  12.004  0.2431 -0.1755 -0.1260
 7411TIP3    H146428   7.501   3.564  11.988  0.2090 -0.7764  0.3078
 7411TIP3    H246429   7.408   3.652  12.068  0.4183 -0.7271  0.4988
 7412TIP3   OH246430   7.046   6.768  12.589  0.4980  0.0331  0.3116
 7412TIP3    H146431   6.984   6.723  12.647  1.0713 -0.0395  0.8722
 7412TIP3    H246432   7.124   6.714  12.590  0.5099  0.0126 -0.5671
 7413TIP3   OH246433   0.610   4.079  11.563 -0.5237  0.2752 -0.0505
 7413TIP3    H146434   0.542   4.074  11.496 -0.2331 -0.5268 -0.3002
 7413TIP3    H246435   0.678   4.134  11.524 -0.7188  0.4839 -0.0929
 7414TIP3   OH246436   7.489   0.109  11.271  0.5821 -0.7011  0.5350
 7414TIP3    H146437   7.457   0.199  11.267 -1.3145 -1.3676 -1.0803
 7414TIP3    H246438   7.484   0.078  11.180  0.5843 -2.6330  1.1488
 7415TIP3   OH246439   2.287   1.940  11.633 -0.1852 -0.1732  0.1631
 7415TIP3    H146440   2.226   2.001  11.673  0.9509  0.9873  0.1653
 7415TIP3    H246441   2.320   1.887  11.705 -0.7946 -0.4774  0.2280
 7416TIP3   OH246442   5.001   3.649  11.556 -0.2102 -0.0282  0.1058
 7416TIP3    H146443   4.994   3.714  11.625  1.5485 -1.5974  1.8763
 7416TIP3    H246444   4.936   3.676  11.491 -0.3980  2.7473  1.3149
 7417TIP3   OH246445   4.469   6.275  12.188  0.8834  0.0549  0.1551
 7417TIP3    H146446   4.495   6.354  12.140  1.3242 -0.1130  0.1041
 7417TIP3    H246447   4.480   6.298  12.280  0.6842  0.1616  0.1527
 7418TIP3   OH246448   3.256   6.101  10.814  0.1634 -0.4179  0.0031
 7418TIP3    H146449   3.204   6.143  10.745  2.4170  0.9819 -0.9598
 7418TIP3    H246450   3.242   6.007  10.802  0.7641 -0.2435 -2.6567
 7419TIP3   OH246451   7.600   7.407  11.718  0.1432  0.3643 -0.4751
 7419TIP3    H146452   7.684   7.453  11.716 -0.8896  2.3758 -1.8915
 7419TIP3    H246453   7.585   7.379  11.628 -0.7387  0.0911 -0.2590
 7420TIP3   OH246454   0.968   2.346  11.404  0.2554  0.1063 -0.1855
 7420TIP3    H146455   0.985   2.315  11.315  1.1080 -0.3657  0.1273
 7420TIP3    H246456   0.995   2.438  11.403  0.4864  0.0372 -0.3491
 7421TIP3   OH246457   1.909   2.055  12.313  0.1841 -0.4587 -0.3197
 7421TIP3    H146458   1.938   1.964  12.309  0.2793 -0.5520  1.6454
 7421TIP3    H246459   1.854   2.059  12.391  1.1082  1.4108  0.2923
 7422TIP3   OH246460   3.341   3.067  10.872  0.3883 -0.3061 -0.3299
 7422TIP3    H146461   3.426   3.052  10.913  1.1875 -0.9765 -2.1293
 7422TIP3    H246462   3.285   2.997  10.905  0.8486 -0.5018  0.0403
 7423TIP3   OH246463   0.519   1.583  10.701 -0.3088 -0.0570  0.2561
 7423TIP3    H146464   0.549   1.668  10.668 -1.5300  0.5569  0.6816
 7423TIP3    H246465   0.424   1.585  10.690 -0.4629 -0.9389  1.2630
 7424TIP3   OH246466   3.781   1.139  12.698  0.6974 -0.1268 -0.7371
 7424TIP3    H146467   3.812   1.125  12.608  2.3340  0.3085 -0.2694
 7424TIP3    H246468   3.690   1.109  12.696  0.8986 -0.7723 -2.3678
 7425TIP3   OH246469   7.609   1.232  11.538  0.1020 -0.3250  0.0863
 7425TIP3    H146470   7.692   1.202  11.499  0.0924 -0.2449  0.0026
 7425TIP3    H246471   7.577   1.299  11.477  0.2749  0.0723  0.4285
 7426TIP3   OH246472   7.054   3.009  10.601 -0.1054  0.0677  0.1677
 7426TIP3    H146473   7.145   2.977  10.608 -0.0681  0.3710  1.2178
 7426TIP3    H246474   7.028   2.987  10.511  1.9244  2.4294 -1.1025
 7427TIP3   OH246475   5.341   7.529  12.828 -0.5859 -0.5955 -0.5564
 7427TIP3    H146476   5.289   7.449  12.828 -1.4704 -0.0259 -0.6415
 7427TIP3    H246477   5.431   7.499  12.844 -1.4310 -1.2428  4.6770
 7428TIP3   OH246478   7.303   6.433  13.045 -0.0761 -0.1236 -0.1831
 7428TIP3    H146479   7.270   6.518  13.074 -0.9077 -0.4182 -0.2426
 7428TIP3    H246480   7.236   6.370  13.072 -0.5794 -0.4964 -2.1245
 7429TIP3   OH246481   2.474   3.302  13.249  0.4623 -0.3207  0.1605
 7429TIP3    H146482   2.534   3.311  13.175 -0.8404  0.1297 -0.8876
 7429TIP3    H246483   2.490   3.379  13.303  0.6264 -0.0415 -0.2782
 7430TIP3   OH246484   0.611   0.662  11.152  0.1375 -0.0080 -0.5260
 7430TIP3    H146485   0.634   0.583  11.103  1.7888 -0.3825  0.7899
 7430TIP3    H246486   0.573   0.630  11.233 -1.1622  0.6026 -0.8643
 7431TIP3   OH246487   2.023   1.872  11.482 -0.7558  0.1274 -0.2809
 7431TIP3    H146488   2.067   1.896  11.564  0.7114 -0.8932 -0.7191
 7431TIP3    H246489   1.946   1.929  11.478  0.6841  2.2566  0.4065
 7432TIP3   OH246490   4.191   4.438  12.857  0.4567 -0.2133  0.1459
 7432TIP3    H146491   4.105   4.400  12.839  0.3292 -0.1717  0.6518
 7432TIP3    H246492   4.184   4.529  12.829  1.1060 -0.8071 -2.1187
 7433TIP3   OH246493   2.862   5.402  12.058 -0.0535 -0.2095  0.0314
 7433TIP3    H146494   2.862   5.452  12.140 -0.3754 -0.1237 -0.0191
 7433TIP3    H246495   2.948   5.361  12.055 -0.5951 -1.5770  1.2503
 7434TIP3   OH246496   3.812   7.455  11.945 -0.5949  0.3450  0.1811
 7434TIP3    H146497   3.850   7.374  11.910 -0.1291  0.5649  0.1702
 7434TIP3    H246498   3.849   7.525  11.890  1.8578  0.9175  2.3572
 7435TIP3   OH246499   0.163   3.109  12.083 -0.2591  0.5176 -0.6181
 7435TIP3    H146500   0.202   3.054  12.151  0.7428  1.4002 -0.4641
 7435TIP3    H246501   0.095   3.053  12.044 -1.9602  0.4910  2.1053
 7436TIP3   OH246502   6.569   1.008  11.387 -0.6020 -0.6949 -0.7316
 7436TIP3    H146503   6.568   1.099  11.358 -1.0909 -0.4290  0.0795
 7436TIP3    H246504   6.477   0.984  11.397 -0.5111 -0.2925  1.9254
 7437TIP3   OH246505   1.903   7.487  11.385  0.3479 -0.3502  0.2438
 7437TIP3    H146506   1.968   7.475  11.454  0.3929 -1.8120 -0.0301
 7437TIP3    H246507   1.950   7.467  11.304  0.7030  2.7370 -0.4251
 7438TIP3   OH246508   4.863   5.746  10.936  0.2267 -0.2090 -0.7019
 7438TIP3    H146509   4.817   5.830  10.926  0.3921 -0.3380 -2.8413
 7438TIP3    H246510   4.828   5.710  11.018  0.0422  1.8563  0.1885
 7439TIP3   OH246511   2.489   1.538  11.526 -0.2555  0.1852  0.4071
 7439TIP3    H146512   2.579   1.506  11.538 -0.5101 -0.4552  0.6551
 7439TIP3    H246513   2.496   1.605  11.459  0.4643  0.3760  0.6688
 7440TIP3   OH246514   0.088   7.145  11.700  0.4838 -0.0965 -0.4853
 7440TIP3    H146515   0.129   7.179  11.780  0.5359 -0.6317 -0.2797
 7440TIP3    H246516   0.032   7.216  11.670 -0.6757 -0.4056  0.8356
 7441TIP3   OH246517   3.784   5.957  11.328 -0.1188  0.6480 -0.1517
 7441TIP3    H146518   3.776   5.974  11.422 -0.8392  1.6776 -0.3859
 7441TIP3    H246519   3.809   6.041  11.290 -2.5408  0.9778 -1.1934
 7442TIP3   OH246520   5.285   1.766  11.213 -0.1067 -0.2045  0.4069
 7442TIP3    H146521   5.325   1.777  11.127  0.2211 -0.0724  0.5718
 7442TIP3    H246522   5.247   1.678  11.211 -0.2495 -0.1329  0.0683
 7443TIP3   OH246523   5.002   3.311  12.819 -0.2844  0.1193 -0.0241
 7443TIP3    H146524   5.000   3.252  12.894 -0.1270 -2.2509 -1.7663
 7443TIP3    H246525   5.087   3.355  12.825  0.2140 -0.8911  0.5821
 7444TIP3   OH246526   5.787   3.016  11.366  0.3524 -0.0805  0.1720
 7444TIP3    H146527   5.841   2.971  11.431 -1.0159  0.0592  1.4742
 7444TIP3    H246528   5.746   3.088  11.415 -3.6088 -2.1127  0.2664
 7445TIP3   OH246529   1.359   2.594  10.467 -0.4106  0.1701  0.3422
 7445TIP3    H146530   1.405   2.670  10.431  0.9674  0.1083  1.8363
 7445TIP3    H246531   1.405   2.519  10.430 -0.1068  0.0976  0.8586
 7446TIP3   OH246532   3.855   5.796  10.689 -0.4050  0.5370 -0.5973
 7446TIP3    H146533   3.814   5.746  10.619 -0.8415  0.9957 -0.6728
 7446TIP3    H246534   3.874   5.881  10.650  1.5613  0.0319 -0.8816
 7447TIP3   OH246535   2.970   3.279  12.189 -0.0980  0.2270  0.8819
 7447TIP3    H146536   2.967   3.373  12.176 -1.4325  0.1077  0.1213
 7447TIP3    H246537   3.050   3.251  12.146 -0.9547  0.7233 -1.1399
 7448TIP3   OH246538   1.740   2.535  11.898 -0.2810 -0.0211  0.1075
 7448TIP3    H146539   1.741   2.588  11.977  1.0981  0.7302 -0.3800
 7448TIP3    H246540   1.648   2.531  11.872 -0.5704  0.9431  0.9474
 7449TIP3   OH246541   5.390   6.289  10.291 -0.1973  0.0076  0.3769
 7449TIP3    H146542   5.476   6.321  10.318 -0.7198  0.8583  1.0815
 7449TIP3    H246543   5.383   6.314  10.199 -0.5281  1.8164  0.8722
 7450TIP3   OH246544   6.013   1.942  10.640 -0.0511  0.1000 -0.5005
 7450TIP3    H146545   6.107   1.959  10.641 -0.0155 -0.0828  0.0565
 7450TIP3    H246546   5.985   1.964  10.552  0.5596 -0.0896 -0.7480
 7451TIP3   OH246547   0.198   5.483  12.345 -0.1480  0.3346  0.3949
 7451TIP3    H146548   0.104   5.491  12.327  0.1643 -0.8269 -2.2964
 7451TIP3    H246549   0.236   5.561  12.304  0.1415  0.3129  0.6280
 7452TIP3   OH246550   5.169   4.842  12.233 -0.0261 -0.0741 -0.3188
 7452TIP3    H146551   5.114   4.914  12.203  0.2558  0.9696  1.4521
 7452TIP3    H246552   5.136   4.822  12.321  1.0903 -0.8288 -0.0470
 7453TIP3   OH246553   4.601   6.559  10.985 -0.3000  0.3149 -0.1082
 7453TIP3    H146554   4.690   6.525  10.972 -0.1651  0.6318 -0.0404
 7453TIP3    H246555   4.544   6.487  10.961 -0.0031 -0.4894  1.4712
 7454TIP3   OH246556   0.768   2.245  12.476 -0.0480  0.2230 -0.0013
 7454TIP3    H146557   0.772   2.194  12.557 -0.4557 -1.0002 -0.7149
 7454TIP3    H246558   0.821   2.194  12.414  1.6999  2.0199 -0.0831
 7455TIP3   OH246559   5.969   1.532  12.499  0.4862  0.0864  0.0981
 7455TIP3    H146560   6.039   1.573  12.448  0.7696 -1.8115 -1.1396
 7455TIP3    H246561   5.899   1.516  12.436 -0.2885  0.2264  0.9139
 7456TIP3   OH246562   5.859   2.707  12.451 -0.4077  0.4016 -0.9773
 7456TIP3    H146563   5.954   2.709  12.468 -0.5976 -0.2726  0.3105
 7456TIP3    H246564   5.822   2.668  12.530 -1.7631  0.5709 -1.5098
 7457TIP3   OH246565   0.059   2.540  13.590 -0.0232  0.4546  0.0390
 7457TIP3    H146566   0.023   2.537  13.502  0.5849  1.7422 -0.2798
 7457TIP3    H246567  -0.014   2.569  13.645 -0.0637  0.9455 -0.2632
 7458TIP3   OH246568   6.492   6.235  11.771 -0.5049  0.3760 -0.5821
 7458TIP3    H146569   6.525   6.304  11.714  1.2098 -1.4937 -1.9964
 7458TIP3    H246570   6.545   6.242  11.851 -0.3464  0.6678 -0.7129
 7459TIP3   OH246571   2.099   6.702  12.146  0.4080  0.1015 -0.1475
 7459TIP3    H146572   2.108   6.652  12.228  1.6689  2.3050  1.1709
 7459TIP3    H246573   2.006   6.697  12.125  0.3794 -2.2473  0.2165
 7460TIP3   OH246574   4.133   4.495  12.127 -0.0034 -0.3114  0.0617
 7460TIP3    H146575   4.120   4.427  12.194  0.2678 -0.6279 -0.2024
 7460TIP3    H246576   4.045   4.522  12.104 -0.1557 -1.2263 -0.4831
 7461TIP3   OH246577   5.641   0.332  12.340 -0.2094 -0.2752  0.0652
 7461TIP3    H146578   5.598   0.332  12.425  1.1829 -0.9105  0.8046
 7461TIP3    H246579   5.651   0.240  12.317  0.0740 -0.1270 -0.4384
 7462TIP3   OH246580   3.702   5.639  10.520  0.3501 -0.0569  0.8748
 7462TIP3    H146581   3.610   5.657  10.499  0.7463  1.9474  0.6212
 7462TIP3    H246582   3.709   5.544  10.517 -1.7362 -0.2697  0.9874
 7463TIP3   OH246583   6.885   3.608  11.154 -0.0776 -0.2220 -0.5203
 7463TIP3    H146584   6.862   3.624  11.245 -2.8864 -2.2908 -0.7375
 7463TIP3    H246585   6.915   3.693  11.121 -0.4908  0.9234  1.9042
 7464TIP3   OH246586   5.911   6.043  11.274  0.5177  0.3376 -0.1548
 7464TIP3    H146587   5.972   6.029  11.201  0.4245  0.2188 -0.2091
 7464TIP3    H246588   5.826   6.057  11.233  0.4437  0.1539 -0.0629
 7465TIP3   OH246589   5.428   6.024  11.056  0.1947 -0.1041 -0.3325
 7465TIP3    H146590   5.339   6.030  11.091  0.2318  1.5696 -0.4345
 7465TIP3    H246591   5.438   6.103  11.002  1.8553 -0.0964 -0.0712
 7466TIP3   OH246592   4.412   3.798  12.685 -0.0062  0.4755  0.2675
 7466TIP3    H146593   4.417   3.713  12.730  1.8701  2.0981  3.5889
 7466TIP3    H246594   4.502   3.831  12.689 -0.4956  2.2363 -1.8313
 7467TIP3   OH246595   4.567   2.404  12.947  0.4642  0.1077  0.0014
 7467TIP3    H146596   4.566   2.414  13.042  1.4451 -1.8664  0.2553
 7467TIP3    H246597   4.647   2.355  12.928  1.1244  1.7867 -2.0129
 7468TIP3   OH246598   3.818   4.178  11.062  0.3488  0.1221 -0.2765
 7468TIP3    H146599   3.910   4.193  11.042  0.6051  1.8416  1.8494
 7468TIP3    H246600   3.784   4.264  11.087 -0.9143 -1.0331  2.3787
 7469TIP3   OH246601   3.652   5.590  12.652 -1.0718 -0.5299 -0.1455
 7469TIP3    H146602   3.746   5.578  12.636 -1.2197 -0.6050 -0.9933
 7469TIP3    H246603   3.644   5.586  12.748 -0.2327 -0.6717 -0.0680
 7470TIP3   OH246604   4.710   2.489  10.894  0.6247 -0.4884 -0.4596
 7470TIP3    H146605   4.787   2.529  10.853  1.7779 -1.9037  0.2330
 7470TIP3    H246606   4.746   2.424  10.954 -1.1185 -0.7790  0.3288
 7471TIP3   OH246607   2.328   7.601  12.904  0.5438  0.2311 -0.3232
 7471TIP3    H146608   2.309   7.577  12.995  1.7064  0.6270  0.0361
 7471TIP3    H246609   2.423   7.593  12.896  0.3172 -1.6155 -2.0375
 7472TIP3   OH246610   5.145   0.319  12.310  0.3240  0.3821 -0.2261
 7472TIP3    H146611   5.125   0.292  12.220  0.0663  2.1444 -0.7413
 7472TIP3    H246612   5.096   0.401  12.322  0.4171  0.2238  1.5070
 7473TIP3   OH246613   7.663   2.161  13.205  0.8860 -1.0828 -0.0214
 7473TIP3    H146614   7.709   2.244  13.191  1.4268 -1.4573 -0.5083
 7473TIP3    H246615   7.572   2.186  13.221  1.2176 -0.3375  0.7993
 7474TIP3   OH246616   5.107   7.394  11.738  0.0061  0.0856  0.1566
 7474TIP3    H146617   5.052   7.318  11.757 -0.1261 -0.3980 -1.8872
 7474TIP3    H246618   5.082   7.419  11.649  1.7470  1.0275 -0.0985
 7475TIP3   OH246619   0.917   0.558  13.242  0.4827  0.0391 -0.0224
 7475TIP3    H146620   0.981   0.486  13.243  0.8997  0.3967 -0.7037
 7475TIP3    H246621   0.900   0.574  13.150 -1.3987 -0.7460  0.1528
 7476TIP3   OH246622   6.257   0.383  12.550 -0.0675  0.4422 -0.3655
 7476TIP3    H146623   6.210   0.300  12.557  0.5603  0.1660  0.6967
 7476TIP3    H246624   6.232   0.417  12.464  0.8584 -1.5593 -1.4973
 7477TIP3   OH246625   7.290   3.609  11.659  0.1426 -0.4167 -0.9083
 7477TIP3    H146626   7.198   3.609  11.636  0.6837 -2.6465 -3.6188
 7477TIP3    H246627   7.302   3.527  11.708  0.7626 -0.4408 -1.0881
 7478TIP3   OH246628   7.175   6.117  10.607 -0.5068 -0.1980  0.2296
 7478TIP3    H146629   7.123   6.038  10.622  1.7837 -1.5880  1.5048
 7478TIP3    H246630   7.128   6.186  10.653 -1.4630 -1.2770  0.9224
 7479TIP3   OH246631   3.061   1.288  18.784 -0.1680 -0.1789  0.1667
 7479TIP3    H146632   3.079   1.237  18.705  0.4335 -0.3456  0.4050
 7479TIP3    H246633   3.035   1.223  18.849 -1.9807  0.0830 -0.2484
 7480TIP3   OH246634   0.803   7.574  11.361 -0.0728 -0.1995  0.1784
 7480TIP3    H146635   0.835   7.521  11.433 -0.9293 -1.0043 -0.0149
 7480TIP3    H246636   0.713   7.596  11.384 -0.0737  0.2755 -0.2405
 7481TIP3   OH246637   5.039   3.452  12.295 -0.2752  0.6067  0.1579
 7481TIP3    H146638   5.021   3.545  12.285 -0.1687  0.7819  1.4115
 7481TIP3    H246639   5.016   3.433  12.386  0.2884 -0.4514  0.0931
 7482TIP3   OH246640   3.807   2.180  11.696 -0.3972  0.0007 -1.0051
 7482TIP3    H146641   3.780   2.222  11.614  0.2570 -0.8633 -1.6800
 7482TIP3    H246642   3.729   2.183  11.751 -1.6159 -1.5274 -2.5364
 7483TIP3   OH246643   3.824   2.533  11.909 -0.3056 -0.3920 -0.5894
 7483TIP3    H146644   3.749   2.590  11.892 -0.2557 -0.3527 -0.6777
 7483TIP3    H246645   3.898   2.593  11.920 -0.1372 -0.4626 -1.2843
 7484TIP3   OH246646   1.836   2.302  10.862 -0.2247 -0.3999  0.3959
 7484TIP3    H146647   1.870   2.223  10.819  1.6133  1.2146 -1.3367
 7484TIP3    H246648   1.898   2.319  10.933 -1.1480 -0.9925  1.3672
 7485TIP3   OH246649   0.273   3.956  11.968  0.0624 -0.0378 -0.6716
 7485TIP3    H146650   0.345   3.961  12.031 -0.8201 -0.9184  0.4677
 7485TIP3    H246651   0.314   3.969  11.883  1.7044 -1.2894 -0.1308
 7486TIP3   OH246652   7.161   6.939  11.606 -0.0798  0.3570  0.8109
 7486TIP3    H146653   7.105   6.994  11.660 -0.9633  1.0510 -0.7500
 7486TIP3    H246654   7.205   7.000  11.547 -0.9799 -0.5334 -0.8770
 7487TIP3   OH246655   1.153   6.250  11.001  0.2505  0.4656  0.2670
 7487TIP3    H146656   1.170   6.329  10.949 -0.8193  0.2913 -0.3922
 7487TIP3    H246657   1.070   6.217  10.967  1.1233 -1.4602 -0.0867
 7488TIP3   OH246658   5.765   1.617  10.993  0.4271 -0.0979  0.2834
 7488TIP3    H146659   5.841   1.655  10.949  0.9170 -1.8208 -0.4303
 7488TIP3    H246660   5.753   1.532  10.952 -1.3131 -0.2724  1.0587
 7489TIP3   OH246661   5.366   5.040  12.017 -0.3052 -0.4778  0.4817
 7489TIP3    H146662   5.379   5.003  12.104  1.9325 -1.5250 -0.2327
 7489TIP3    H246663   5.282   5.086  12.023 -1.8597 -3.2523  2.2524
 7490TIP3   OH246664   7.041   5.729  11.656  0.1948 -0.0377 -0.6201
 7490TIP3    H146665   7.019   5.783  11.733  0.4930  0.6543 -1.0103
 7490TIP3    H246666   7.127   5.692  11.676  0.9870  1.3856 -1.2529
 7491TIP3   OH246667   2.192   5.707  12.973  0.1416 -0.0039  0.4531
 7491TIP3    H146668   2.188   5.792  13.015  0.7842  0.3690 -0.2223
 7491TIP3    H246669   2.201   5.645  13.045  0.9950  0.6006  0.8800
 7492TIP3   OH246670   2.703   6.869  11.247  0.1763 -0.9919 -0.0543
 7492TIP3    H146671   2.633   6.816  11.210 -0.7831 -1.1223  1.8573
 7492TIP3    H246672   2.712   6.839  11.337  1.7026  0.0232  0.1769
 7493TIP3   OH246673   4.048   2.876  13.057 -0.2977  0.4950  0.1186
 7493TIP3    H146674   3.985   2.816  13.017 -0.6105  0.1693  1.0783
 7493TIP3    H246675   4.040   2.957  13.006 -0.1929 -0.1159 -0.9066
 7494TIP3   OH246676   2.857   5.566  12.281  0.4311  0.0405  0.4794
 7494TIP3    H146677   2.824   5.598  12.365 -0.8916 -1.1108  0.4388
 7494TIP3    H246678   2.947   5.541  12.299 -0.4971 -2.4801  2.2670
 7495TIP3   OH246679   1.120   7.473  10.656 -0.6338 -0.2264 -0.1646
 7495TIP3    H146680   1.216   7.472  10.656 -0.6282 -1.2139  0.5311
 7495TIP3    H246681   1.095   7.392  10.611 -1.1000 -1.2553  1.8120
 7496TIP3   OH246682   4.874   4.548  11.847  0.1378 -0.4508 -0.1144
 7496TIP3    H146683   4.876   4.642  11.833 -1.4455 -0.1452  1.3897
 7496TIP3    H246684   4.948   4.531  11.906  0.6973 -0.2384 -0.7416
 7497TIP3   OH246685   0.202   0.903  10.679  0.2746  0.0509  0.1838
 7497TIP3    H146686   0.226   0.848  10.604  0.6208 -0.6688  0.8087
 7497TIP3    H246687   0.192   0.841  10.751  1.3717  0.8872  1.0766
 7498TIP3   OH246688   1.235   7.226  10.586 -0.0241 -0.1936  0.2536
 7498TIP3    H146689   1.306   7.289  10.591 -0.5589  1.0855 -3.8978
 7498TIP3    H246690   1.279   7.141  10.578  0.8524  0.1429  1.2838
 7499TIP3   OH246691   3.441   4.397  11.924  0.3691  0.4655 -0.4716
 7499TIP3    H146692   3.464   4.472  11.979  0.2312  0.5083 -0.4725
 7499TIP3    H246693   3.522   4.347  11.916  0.4942  0.6862 -0.5812
 7500TIP3   OH246694   2.321   6.364  12.888 -0.4248 -0.0422  0.0169
 7500TIP3    H146695   2.347   6.285  12.935 -0.1041  0.2281  0.2949
 7500TIP3    H246696   2.227   6.372  12.904 -0.2723  0.1824  0.8138
 7501TIP3   OH246697   0.462   0.037  12.371  0.7359 -0.6317 -0.6834
 7501TIP3    H146698   0.460   0.123  12.329 -1.4252  0.2226  0.9479
 7501TIP3    H246699   0.499   0.053  12.458 -3.1632 -0.4376  1.1329
 7502TIP3   OH246700   0.070   6.740  11.018  0.6219 -0.0006  0.4437
 7502TIP3    H146701   0.164   6.751  11.026  0.5597  0.5297  0.5220
 7502TIP3    H246702   0.042   6.813  10.962  0.4337 -0.9633 -0.7621
 7503TIP3   OH246703   0.473   2.340  10.876 -0.3769 -0.1364  0.5026
 7503TIP3    H146704   0.403   2.394  10.838 -0.9091 -0.8768  0.4161
 7503TIP3    H246705   0.540   2.337  10.807 -0.2407  0.5809  0.5897
 7504TIP3   OH246706   1.659   2.327  12.082  0.3602  0.0408 -0.4372
 7504TIP3    H146707   1.605   2.367  12.015  0.5476 -2.3781 -2.1561
 7504TIP3    H246708   1.631   2.235  12.084  1.4040 -0.2970  1.7548
 7505TIP3   OH246709   4.645   0.453  11.148  0.4120  0.1998 -0.2840
 7505TIP3    H146710   4.719   0.469  11.206 -0.8190  0.3217  1.3257
 7505TIP3    H246711   4.624   0.360  11.161 -0.4539  0.4541  0.1881
 7506TIP3   OH246712   5.063   5.157  10.390  0.0518  0.5335 -0.0089
 7506TIP3    H146713   5.090   5.138  10.480 -0.4959 -2.2942 -0.3398
 7506TIP3    H246714   5.145   5.175  10.344  0.8717 -2.0199  0.2728
 7507TIP3   OH246715   4.230   7.490  13.006 -0.7633  0.1731  0.2727
 7507TIP3    H146716   4.249   7.447  12.923  0.3547  0.1700  0.5187
 7507TIP3    H246717   4.151   7.541  12.989 -1.7967 -1.5079 -0.1851
 7508TIP3   OH246718   4.564   2.783  12.121 -0.3289  0.4536 -0.4706
 7508TIP3    H146719   4.628   2.714  12.111 -2.3269 -1.5831 -0.1115
 7508TIP3    H246720   4.558   2.796  12.216 -1.4001 -0.3678 -0.4107
 7509TIP3   OH246721   0.608   2.690  11.243  0.2550  0.1072 -0.1189
 7509TIP3    H146722   0.661   2.770  11.251  0.4102 -0.0808  0.9070
 7509TIP3    H246723   0.590   2.683  11.149  1.6351  0.4495 -0.4415
 7510TIP3   OH246724   2.479   3.077  13.125 -0.0436  0.7114 -0.1676
 7510TIP3    H146725   2.573   3.089  13.115  0.6455 -1.9432  1.7888
 7510TIP3    H246726   2.451   3.150  13.179  0.6894  1.9811 -1.4349
 7511TIP3   OH246727   2.448   2.341  12.686  0.2506  0.2890  0.0488
 7511TIP3    H146728   2.537   2.308  12.677 -0.1148 -0.7389  0.0738
 7511TIP3    H246729   2.405   2.315  12.604  0.0249  0.9611 -0.0508
 7512TIP3   OH246730   4.500   6.039  11.404 -0.4681  0.3046  0.0852
 7512TIP3    H146731   4.524   5.964  11.458  0.3475  1.0421  0.7935
 7512TIP3    H246732   4.420   6.072  11.443 -1.5406 -0.9263 -1.0036
 7513TIP3   OH246733   5.615   6.054  13.096  0.2152 -0.7016 -0.1066
 7513TIP3    H146734   5.693   6.049  13.151  0.8752 -0.1292 -0.9512
 7513TIP3    H246735   5.545   6.081  13.155  1.0579  0.6339  0.3241
 7514TIP3   OH246736   1.356   6.961  10.562  0.6580 -0.3620  0.0574
 7514TIP3    H146737   1.290   6.911  10.610 -2.4227  2.1222 -1.2183
 7514TIP3    H246738   1.408   6.894  10.515 -1.7802 -2.4450  0.1243
 7515TIP3   OH246739   3.380   4.296  10.551 -0.0485  0.2118  0.2569
 7515TIP3    H146740   3.466   4.339  10.555 -0.1133  0.2603  1.4093
 7515TIP3    H246741   3.400   4.203  10.551  0.0002  0.2129  1.1667
 7516TIP3   OH246742   6.205   5.744  11.387 -0.1376  0.1401 -0.1435
 7516TIP3    H146743   6.216   5.675  11.452 -1.9379 -0.3570 -0.3108
 7516TIP3    H246744   6.211   5.826  11.437  1.3561 -0.1135  0.1560
 7517TIP3   OH246745   2.399   7.335  12.366 -0.5303 -0.4062 -0.8122
 7517TIP3    H146746   2.373   7.244  12.349 -0.8789 -0.1118 -1.8986
 7517TIP3    H246747   2.386   7.345  12.461 -1.6045 -1.1497 -0.8552
 7518TIP3   OH246748   0.411   0.825  12.562 -0.6576 -0.5031 -0.2119
 7518TIP3    H146749   0.485   0.783  12.604 -1.2759 -2.1147 -0.6766
 7518TIP3    H246750   0.441   0.842  12.472  0.2309  1.8263  0.4350
 7519TIP3   OH246751   0.732   7.268  11.017  0.1046 -0.1074 -0.5787
 7519TIP3    H146752   0.795   7.306  11.078 -1.3188  0.4416  0.6220
 7519TIP3    H246753   0.766   7.288  10.930  2.6456 -1.6196 -0.0414
 7520TIP3   OH246754   1.419   1.255  11.204 -0.1278 -0.2152  0.1165
 7520TIP3    H146755   1.378   1.321  11.148  0.1034  0.4244  0.6877
 7520TIP3    H246756   1.500   1.232  11.158 -1.1809 -1.6551 -1.1352
 7521TIP3   OH246757   7.236   1.269  11.473 -0.3143 -0.0979 -0.3019
 7521TIP3    H146758   7.165   1.320  11.436  0.5562  3.0079  1.9658
 7521TIP3    H246759   7.316   1.310  11.439  0.4467  1.3716  2.8961
 7522TIP3   OH246760   4.956   5.977  11.788  0.6166 -0.0180  0.0986
 7522TIP3    H146761   4.949   6.055  11.842  0.0884 -0.1207  0.1789
 7522TIP3    H246762   4.916   6.001  11.705 -0.6312 -0.5689  0.5239
 7523TIP3   OH246763   2.718   4.675  11.972  0.3344 -0.3022  0.0062
 7523TIP3    H146764   2.628   4.652  11.995  1.6648 -3.6718  2.5789
 7523TIP3    H246765   2.727   4.649  11.880 -1.1234 -0.3673 -0.1458
 7524TIP3   OH246766   5.187   7.674  13.005  0.7726  0.1567  0.2299
 7524TIP3    H146767   5.248   7.620  12.954 -0.6696  0.7945 -2.3666
 7524TIP3    H246768   5.131   7.611  13.051  2.4563 -0.4336  1.5571
 7525TIP3   OH246769   1.728   5.551  12.305 -0.1681 -0.2115  0.4781
 7525TIP3    H146770   1.771   5.466  12.304  0.6080  0.0998 -1.9661
 7525TIP3    H246771   1.660   5.545  12.237  0.0137  1.1209  0.1342
 7526TIP3   OH246772   0.656   0.733  11.974  0.1847 -0.1261 -0.3389
 7526TIP3    H146773   0.703   0.728  12.057  0.6412  1.2430 -0.5001
 7526TIP3    H246774   0.615   0.646  11.965 -0.9148  0.0710  1.9170
 7527TIP3   OH246775   1.264   2.047  11.459  0.1909  0.0828  0.0302
 7527TIP3    H146776   1.221   2.019  11.540  0.0966 -0.5387 -0.2280
 7527TIP3    H246777   1.231   1.986  11.392  2.2489 -1.1106  0.0053
 7528TIP3   OH246778   4.955   4.420  11.291  0.3541  0.5113 -0.5996
 7528TIP3    H146779   4.969   4.452  11.381  1.1181 -0.2829 -0.4315
 7528TIP3    H246780   5.039   4.385  11.264 -0.4590 -1.5153 -0.7096
 7529TIP3   OH246781   1.695   0.649  11.847  0.4756 -0.1755 -0.1769
 7529TIP3    H146782   1.689   0.554  11.841  1.5017 -0.2292 -0.4972
 7529TIP3    H246783   1.779   0.671  11.807 -0.0322  0.9266 -0.6938
 7530TIP3   OH246784   7.644   0.538  10.810 -0.0164 -0.8044  0.4335
 7530TIP3    H146785   7.728   0.583  10.821  0.2864 -1.2872  0.1914
 7530TIP3    H246786   7.635   0.528  10.715 -1.9581  2.1738  0.1691
 7531TIP3   OH246787   3.954   4.758  12.809 -0.1250 -0.1266 -0.2619
 7531TIP3    H146788   4.035   4.758  12.759  0.0867 -1.2188  0.0444
 7531TIP3    H246789   3.967   4.690  12.876 -1.0416  0.1254  0.1977
 7532TIP3   OH246790   6.116   0.515  12.360  0.5749  0.7187 -0.1988
 7532TIP3    H146791   6.123   0.594  12.414  0.6240  0.9256 -0.5052
 7532TIP3    H246792   6.041   0.532  12.303  0.1482  0.2495  0.2119
 7533TIP3   OH246793   6.585   6.350  12.454  0.0663  0.5126 -0.0401
 7533TIP3    H146794   6.536   6.362  12.535  1.3153 -2.6923  1.3519
 7533TIP3    H246795   6.677   6.357  12.479  0.4947  2.1543 -1.7773
 7534TIP3   OH246796   5.843   6.566  11.183  0.4922 -0.2661  0.4193
 7534TIP3    H146797   5.830   6.564  11.088  0.0586 -0.7101  0.4845
 7534TIP3    H246798   5.919   6.510  11.198 -0.4628 -1.5771  0.4857
 7535TIP3   OH246799   0.881   6.155  12.529  0.2557  0.3664  0.3331
 7535TIP3    H146800   0.828   6.223  12.572  0.9771  0.6242  0.8151
 7535TIP3    H246801   0.818   6.085  12.511 -0.5042  1.1375 -0.1596
 7536TIP3   OH246802   0.427   3.970  10.662  0.1455 -0.5993 -0.7272
 7536TIP3    H146803   0.396   3.894  10.613 -2.0895  0.0201 -0.3844
 7536TIP3    H246804   0.384   3.963  10.747  2.4094 -0.6097  0.5209
 7537TIP3   OH246805   5.088   2.179  10.920 -0.2471 -0.2370  0.0563
 7537TIP3    H146806   5.060   2.193  10.830  2.5602  0.0878 -0.8782
 7537TIP3    H246807   5.119   2.088  10.921 -1.6724 -0.7610  1.1816
 7538TIP3   OH246808   0.500   3.753  12.513 -0.4769 -0.1392  0.7309
 7538TIP3    H146809   0.575   3.772  12.570 -0.1392  0.3577  0.1299
 7538TIP3    H246810   0.480   3.837  12.472 -0.5803 -0.5419 -0.0456
 7539TIP3   OH246811   6.659   6.171  12.076 -0.0552 -0.9584 -0.3963
 7539TIP3    H146812   6.727   6.210  12.021  0.3015 -3.5649 -1.9864
 7539TIP3    H246813   6.699   6.092  12.112 -1.0878 -0.5896  1.7559
 7540TIP3   OH246814   3.585   3.089  13.002  0.5192  0.4028  0.0411
 7540TIP3    H146815   3.586   2.993  12.994  0.2937  0.3242  0.8417
 7540TIP3    H246816   3.650   3.119  12.939  0.4680 -0.2723 -0.3413
 7541TIP3   OH246817   4.519   0.970  10.764 -0.0680 -0.1916 -0.0797
 7541TIP3    H146818   4.436   1.012  10.740  0.1777  2.3048  2.8335
 7541TIP3    H246819   4.585   1.037  10.746  1.0961 -1.3649 -0.3276
 7542TIP3   OH246820   4.651   3.575  12.796  0.2426 -0.5643 -0.0037
 7542TIP3    H146821   4.577   3.540  12.747  1.0693 -1.2256 -0.8077
 7542TIP3    H246822   4.666   3.662  12.759  0.1701 -0.6230 -0.1713
 7543TIP3   OH246823   2.274   3.238  11.111 -0.7611 -0.1371 -0.2223
 7543TIP3    H146824   2.235   3.230  11.024 -0.8557  0.6661 -0.2607
 7543TIP3    H246825   2.262   3.330  11.134  2.5956  0.5913 -0.9173
 7544TIP3   OH246826   1.674   1.936  10.742  0.1324 -0.4889  0.0460
 7544TIP3    H146827   1.727   1.911  10.667  1.0458  0.0283  0.5108
 7544TIP3    H246828   1.712   1.888  10.816  1.1647  1.2914  0.7340
 7545TIP3   OH246829   5.173   5.987  13.099  0.5395 -0.7850  0.0433
 7545TIP3    H146830   5.241   6.051  13.079 -0.3163  1.0537  2.4849
 7545TIP3    H246831   5.221   5.907  13.122  1.6704 -0.7276 -1.9478
 7546TIP3   OH246832   5.761   3.861  13.026 -0.0238 -0.2706  0.1190
 7546TIP3    H146833   5.846   3.820  13.007 -0.4146 -1.0633  0.0236
 7546TIP3    H246834   5.777   3.915  13.103  0.4457 -0.8560  0.4404
 7547TIP3   OH246835   3.182   4.462  10.489 -0.8517 -0.5436  0.2861
 7547TIP3    H146836   3.256   4.402  10.496 -0.6118 -0.2303  0.4642
 7547TIP3    H246837   3.217   4.547  10.516 -1.1008 -0.2533 -0.2663
 7548TIP3   OH246838   0.005   6.989  10.776  0.0232 -0.4358  0.4600
 7548TIP3    H146839  -0.081   7.032  10.784 -0.5772 -0.0105 -4.6139
 7548TIP3    H246840   0.067   7.062  10.767  0.5970 -0.7434  1.7840
 7549TIP3   OH246841   5.700   4.758  12.251  0.4772 -0.3536  0.1138
 7549TIP3    H146842   5.692   4.840  12.299 -2.7955 -0.5746  0.2338
 7549TIP3    H246843   5.731   4.784  12.164  0.1870  0.9445  0.3744
 7550TIP3   OH246844   3.257   1.928  11.073  0.2239 -0.6284  0.0637
 7550TIP3    H146845   3.224   2.015  11.098  0.4760  0.2247 -2.3617
 7550TIP3    H246846   3.326   1.909  11.137  1.7282  1.9979 -0.6517
 7551TIP3   OH246847   5.119   4.952  10.962  0.1969 -0.2821  0.2427
 7551TIP3    H146848   5.163   4.870  10.983 -1.9056 -1.9458 -1.4970
 7551TIP3    H246849   5.176   4.993  10.897  0.6761 -0.9175  0.2502
 7552TIP3   OH246850   5.605   3.486  11.065  0.3058  1.0709  0.7496
 7552TIP3    H146851   5.681   3.428  11.069  1.0003  1.7525 -1.1813
 7552TIP3    H246852   5.536   3.431  11.029  0.6383  1.1052  0.0288
 7553TIP3   OH246853   2.265   3.405  10.533  0.2854 -0.0599  0.1049
 7553TIP3    H146854   2.293   3.336  10.472  0.3279  0.8158 -0.8918
 7553TIP3    H246855   2.169   3.404  10.527  0.2080 -0.9101  1.1106
 7554TIP3   OH246856   4.454   3.135  11.189 -0.4582  0.5075  0.0092
 7554TIP3    H146857   4.499   3.206  11.143 -0.8169  0.8226  0.1399
 7554TIP3    H246858   4.362   3.161  11.190 -0.7120 -0.3162 -0.5917
 7555TIP3   OH246859   4.459   2.254  11.075  0.4270  0.0471 -0.1260
 7555TIP3    H146860   4.403   2.188  11.117  0.7892 -0.5232 -0.5274
 7555TIP3    H246861   4.433   2.336  11.116  1.1909 -0.5638  1.7089
 7556TIP3   OH246862   1.620   1.833  11.304 -0.0887 -0.3749  0.0618
 7556TIP3    H146863   1.559   1.792  11.365 -0.0529  0.7252  0.8741
 7556TIP3    H246864   1.672   1.892  11.359  0.8214 -0.3259 -0.8302
 7557TIP3   OH246865   5.550   5.313  12.852  0.2332  0.0890 -0.0084
 7557TIP3    H146866   5.546   5.408  12.839  0.7865  0.1064 -0.0961
 7557TIP3    H246867   5.574   5.278  12.767 -1.6224 -0.2891 -0.4021
 7558TIP3   OH246868   1.288   6.822  12.119 -0.1637  0.8700 -0.8430
 7558TIP3    H146869   1.311   6.875  12.195 -0.9431 -1.1251  0.8500
 7558TIP3    H246870   1.196   6.844  12.101 -0.2867  0.5938 -0.5580
 7559TIP3   OH246871   0.369   5.347  12.656 -0.3632 -0.3168 -0.1681
 7559TIP3    H146872   0.428   5.358  12.582  0.5616 -1.3747  0.3772
 7559TIP3    H246873   0.318   5.269  12.634 -1.1338  0.2319 -0.3532
 7560TIP3   OH246874   2.094   7.360  12.304 -0.3729  0.1418  0.2993
 7560TIP3    H146875   2.175   7.407  12.286 -0.3356 -0.1082 -0.2124
 7560TIP3    H246876   2.043   7.367  12.223  0.2227 -1.8824 -0.3203
 7561TIP3   OH246877   1.805   0.647  11.426  0.1645  0.2115  0.3393
 7561TIP3    H146878   1.877   0.695  11.383  2.7846 -2.8412  0.9288
 7561TIP3    H246879   1.843   0.619  11.510  0.1125 -5.2655 -1.1026
 7562TIP3   OH246880   5.881   5.784  11.012  0.2735 -0.2246 -0.2114
 7562TIP3    H146881   5.967   5.778  11.052  0.2205  0.4047  0.0212
 7562TIP3    H246882   5.823   5.739  11.073 -0.1703  2.5760  1.6106
 7563TIP3   OH246883   6.243   2.007  11.549  0.0239  0.3462  0.0778
 7563TIP3    H146884   6.305   2.031  11.479 -0.1108  0.4091 -0.0190
 7563TIP3    H246885   6.297   1.960  11.613  0.2570  0.7630  0.1935
 7564TIP3   OH246886   4.211   2.842  11.068 -0.8852 -0.0727  0.4529
 7564TIP3    H146887   4.246   2.913  11.014 -0.3807  0.0460  0.9191
 7564TIP3    H246888   4.243   2.862  11.156 -0.1647 -1.2377  0.4776
 7565TIP3   OH246889   0.925   1.759  11.751  0.0509 -0.1245 -0.2708
 7565TIP3    H146890   0.872   1.757  11.671  1.4075 -1.5760 -1.1897
 7565TIP3    H246891   0.929   1.668  11.780 -2.1743  0.5759  2.7657
 7566TIP3   OH246892   1.245   7.138  13.471  0.2262 -0.6639  0.1414
 7566TIP3    H146893   1.246   7.101  13.383  0.6706 -2.0858  0.7292
 7566TIP3    H246894   1.187   7.214  13.464 -1.9385 -2.2851 -0.7639
 7567TIP3   OH246895   6.455   7.537  11.288 -0.1407 -0.1323  0.7144
 7567TIP3    H146896   6.373   7.500  11.256 -0.3685  0.5496  0.5066
 7567TIP3    H246897   6.474   7.488  11.368 -0.4062 -0.7375  0.4115
 7568TIP3   OH246898   6.741   3.785  12.363 -0.0316  0.2564  0.1906
 7568TIP3    H146899   6.790   3.740  12.294  0.6437  0.9092  0.2387
 7568TIP3    H246900   6.753   3.730  12.440  0.0875  0.0770  0.0458
 7569TIP3   OH246901   0.279   6.210  12.728 -0.3813 -0.2120 -0.5689
 7569TIP3    H146902   0.374   6.211  12.740 -0.5782 -1.0149  1.4951
 7569TIP3    H246903   0.261   6.290  12.677  1.2814  0.6017  0.0273
 7570TIP3   OH246904   7.087   5.728  13.162 -0.6187 -0.2222  0.7688
 7570TIP3    H146905   7.166   5.697  13.118 -1.1803  0.5940 -0.8843
 7570TIP3    H246906   7.100   5.704  13.254  0.5639 -2.0676  0.1743
 7571TIP3   OH246907   4.232   6.647  11.370 -0.3769  0.0340 -0.5416
 7571TIP3    H146908   4.288   6.585  11.324 -0.0050  0.5631 -0.8122
 7571TIP3    H246909   4.226   6.722  11.311  1.4566  1.4235  0.9213
 7572TIP3   OH246910   7.395   5.754  13.114  0.4262  0.2823  0.3578
 7572TIP3    H146911   7.405   5.718  13.202 -0.7007  1.0914  0.8387
 7572TIP3    H246912   7.456   5.829  13.112  0.2912  0.3963  0.5232
 7573TIP3   OH246913   4.346   3.948  11.437 -0.1216 -0.4200 -0.3034
 7573TIP3    H146914   4.271   3.929  11.494  0.3899 -0.7849  0.2629
 7573TIP3    H246915   4.326   4.033  11.398 -0.2711  0.0655  0.7847
 7574TIP3   OH246916   4.071   4.019  11.292 -0.1627  0.0428  0.0915
 7574TIP3    H146917   4.041   3.930  11.312 -0.8338  0.5821  1.6760
 7574TIP3    H246918   4.055   4.029  11.198 -0.1785 -1.4661 -0.0911
 7575TIP3   OH246919   1.323   1.784  12.502 -0.6143 -0.2470  0.2228
 7575TIP3    H146920   1.279   1.706  12.468  0.4002 -2.3035  3.2216
 7575TIP3    H246921   1.341   1.764  12.594  2.1046  2.4740  0.4611
 7576TIP3   OH246922   3.978   6.252  12.199 -0.0613  0.6590  0.1067
 7576TIP3    H146923   3.917   6.196  12.151 -0.1932 -1.9983  3.0290
 7576TIP3    H246924   3.928   6.331  12.219 -0.8204  0.7041 -1.7551
 7577TIP3   OH246925   0.354   0.657  11.574  0.2968 -0.3738 -0.4941
 7577TIP3    H146926   0.386   0.744  11.552 -0.4399 -0.3907 -1.7472
 7577TIP3    H246927   0.430   0.599  11.563  0.1362 -0.2739 -2.4152
 7578TIP3   OH246928   7.036   2.292  12.728  0.5284  0.0270  0.2232
 7578TIP3    H146929   7.082   2.306  12.811 -1.6143  1.0932  1.3205
 7578TIP3    H246930   7.019   2.380  12.695  0.3386 -0.3770 -0.7699
 7579TIP3   OH246931   0.602   3.503  10.761 -0.6226  0.0729  0.0687
 7579TIP3    H146932   0.620   3.429  10.702 -0.5844 -0.0588  0.2458
 7579TIP3    H246933   0.527   3.474  10.813 -1.8686  0.9150 -1.1833
 7580TIP3   OH246934   2.722   2.849  12.510  0.0252  0.3195 -0.6784
 7580TIP3    H146935   2.730   2.904  12.588  0.1670 -1.1548  0.3964
 7580TIP3    H246936   2.628   2.842  12.495  0.0121  1.1115 -1.0444
 7581TIP3   OH246937   5.050   5.340  11.578 -0.1569  0.5196  0.8907
 7581TIP3    H146938   4.956   5.354  11.593 -0.1957 -0.2827  1.4703
 7581TIP3    H246939   5.093   5.393  11.646 -0.2527 -0.5213  1.8000
 7582TIP3   OH246940   7.672   1.794  11.058  0.0160  0.3929  0.2802
 7582TIP3    H146941   7.585   1.825  11.033 -0.5222 -0.5224  0.9703
 7582TIP3    H246942   7.723   1.798  10.977 -0.8738  0.2332 -0.2990
 7583TIP3   OH246943   2.642   2.282  10.914 -1.0289  0.1766  0.2635
 7583TIP3    H146944   2.577   2.274  10.984 -0.6089 -1.5684  0.4895
 7583TIP3    H246945   2.597   2.248  10.837 -0.0667 -2.1153  0.6561
 7584TIP3   OH246946   6.659   5.438  10.579 -0.2523  0.3865 -0.1026
 7584TIP3    H146947   6.730   5.377  10.561  0.3398  0.5410  1.5770
 7584TIP3    H246948   6.580   5.393  10.548  0.3551 -0.5389 -0.3458
 7585TIP3   OH246949   4.520   5.060  11.229 -0.2807  0.6322 -0.3440
 7585TIP3    H146950   4.597   5.104  11.195 -0.2141  1.8640  1.2714
 7585TIP3    H246951   4.455   5.068  11.160  0.4381  1.2641 -0.9705
 7586TIP3   OH246952   0.661   2.065  11.655 -0.2431  0.5955 -0.3721
 7586TIP3    H146953   0.753   2.048  11.674 -0.5243 -1.0355 -0.3686
 7586TIP3    H246954   0.653   2.057  11.560 -0.3448  0.9317 -0.3930
 7587TIP3   OH246955   0.098   1.740  11.957 -0.5882 -0.1335 -0.3324
 7587TIP3    H146956   0.054   1.812  11.912 -2.1983 -0.3753  0.7878
 7587TIP3    H246957   0.045   1.724  12.035 -0.3942 -2.6582 -0.6400
 7588TIP3   OH246958   1.898   3.248  11.866 -0.6175  0.3338 -0.2361
 7588TIP3    H146959   1.916   3.341  11.877  2.3631 -0.0267 -1.2523
 7588TIP3    H246960   1.821   3.245  11.808 -1.4171  2.1099  0.6785
 7589TIP3   OH246961   6.758   0.972  11.594  0.1428 -0.4471  0.4535
 7589TIP3    H146962   6.772   0.879  11.611 -0.4187 -1.0187 -1.7913
 7589TIP3    H246963   6.687   0.974  11.529 -0.3076  1.5978  0.9205
 7590TIP3   OH246964   5.689   6.779  12.272  0.3281 -0.3976 -0.3713
 7590TIP3    H146965   5.779   6.798  12.298 -0.4505  1.3697  1.2461
 7590TIP3    H246966   5.690   6.686  12.248  2.2227 -0.8334  1.1815
 7591TIP3   OH246967   1.285   1.371  10.765 -0.6499 -0.1389  0.3398
 7591TIP3    H146968   1.247   1.306  10.825  1.5309 -1.5059  0.3456
 7591TIP3    H246969   1.379   1.360  10.775 -0.2059  0.2618 -2.6218
 7592TIP3   OH246970   7.640   4.598  10.536 -0.0326 -0.1518  0.2299
 7592TIP3    H146971   7.726   4.556  10.531  0.3729  0.4315  1.7424
 7592TIP3    H246972   7.644   4.667  10.469 -0.0226 -1.2877 -0.9749
 7593TIP3   OH246973   6.600   3.471  11.452  0.0041 -0.2978  0.3217
 7593TIP3    H146974   6.529   3.534  11.438  1.2862  0.9468 -1.0537
 7593TIP3    H246975   6.605   3.422  11.369  2.4781  1.5733 -0.7874
 7594TIP3   OH246976   6.160   4.908  11.429  0.2541  0.0400 -0.0119
 7594TIP3    H146977   6.237   4.928  11.482  1.2672  0.5451 -1.5921
 7594TIP3    H246978   6.162   4.813  11.417  1.2739  0.1460 -0.8993
 7595TIP3   OH246979   0.216   1.006  11.434 -0.1886  0.4287 -0.2257
 7595TIP3    H146980   0.306   1.010  11.465 -0.4084 -1.1110  0.7550
 7595TIP3    H246981   0.204   1.087  11.385  1.3786  1.1765  0.5264
 7596TIP3   OH246982   2.272   7.206  12.063 -0.4856 -0.6894  0.0095
 7596TIP3    H146983   2.234   7.142  12.123  0.4157 -2.4290 -1.1804
 7596TIP3    H246984   2.205   7.220  11.997 -0.1889 -1.4902 -0.4758
 7597TIP3   OH246985   1.840   6.432  12.538 -0.5864 -0.2428  0.0056
 7597TIP3    H146986   1.835   6.344  12.500  1.3870  0.1911 -1.4603
 7597TIP3    H246987   1.930   6.437  12.573 -0.6472  1.2138 -0.0117
 7598TIP3   OH246988   4.977   1.774  12.758 -0.4489 -0.4764  0.4253
 7598TIP3    H146989   4.997   1.774  12.664  0.5547  2.1227  0.5606
 7598TIP3    H246990   4.883   1.754  12.762 -1.2364  2.3201 -1.4093
 7599TIP3   OH246991   2.857   6.173  11.766  0.4610  0.2451 -0.1197
 7599TIP3    H146992   2.860   6.095  11.822 -0.4593 -0.0559 -0.4644
 7599TIP3    H246993   2.910   6.150  11.690 -1.1933 -0.7555 -1.0454
 7600TIP3   OH246994   5.713   6.130  12.390  0.1007  0.1443 -0.3011
 7600TIP3    H146995   5.741   6.146  12.481  0.7399  0.0151 -0.4669
 7600TIP3    H246996   5.795   6.126  12.341 -0.2485  0.2624 -0.8963
 7601TIP3   OH246997   4.314   4.684  12.073 -0.2623  0.2484 -0.0546
 7601TIP3    H146998   4.237   4.629  12.081 -0.7497  0.5339 -2.1221
 7601TIP3    H246999   4.366   4.664  12.151 -0.7794 -2.5462 -0.3077
 7602TIP3   OH247000   6.644   4.216  12.526  0.1984 -0.0356  0.3376
 7602TIP3    H147001   6.612   4.296  12.484 -1.3528 -1.1828 -0.7874
 7602TIP3    H247002   6.737   4.213  12.503  0.1909  1.2190  0.0579
 7603TIP3   OH247003   0.851   4.386  11.764  0.1111  0.1640 -0.1700
 7603TIP3    H147004   0.788   4.455  11.745  0.7189  1.1598  1.2916
 7603TIP3    H247005   0.859   4.386  11.860  1.0340 -1.1173 -0.2185
 7604TIP3   OH247006   1.574   3.774  11.246 -0.2299  0.7757  0.3301
 7604TIP3    H147007   1.597   3.696  11.195 -2.7055 -0.1653  0.5127
 7604TIP3    H247008   1.652   3.793  11.298  0.9006 -0.7499 -0.7311
 7605TIP3   OH247009   3.993   7.017  12.560  0.0516 -0.0077  0.3960
 7605TIP3    H147010   4.006   6.992  12.651 -0.9877 -2.4233 -0.0313
 7605TIP3    H247011   3.898   7.020  12.549  0.1318 -0.8517 -0.8343
 7606TIP3   OH247012   3.136   2.084  12.568  0.2457 -0.1664  0.2052
 7606TIP3    H147013   3.079   2.096  12.644  0.0489 -0.0541  0.0411
 7606TIP3    H247014   3.112   1.998  12.533  0.0468 -0.0425  0.0309
 7607TIP3   OH247015   5.491   5.754  11.552 -0.5956  0.2357  0.1040
 7607TIP3    H147016   5.434   5.725  11.480 -0.7848 -0.0518  0.3694
 7607TIP3    H247017   5.461   5.843  11.572 -1.9674 -0.4457  1.2535
 7608TIP3   OH247018   5.356   4.185  11.669  0.0489  0.2615  0.2097
 7608TIP3    H147019   5.308   4.258  11.631 -1.9924 -1.1533 -0.1124
 7608TIP3    H247020   5.339   4.192  11.763 -1.0320 -0.3161  0.0864
 7609TIP3   OH247021   0.164   1.461  11.934  0.1211 -0.6768 -0.6053
 7609TIP3    H147022   0.102   1.434  11.866  2.4203 -0.6890 -2.8378
 7609TIP3    H247023   0.159   1.557  11.935  0.9043 -0.6022 -1.6992
 7610TIP3   OH247024   1.855   6.529  11.775  0.2332  0.2607 -0.4536
 7610TIP3    H147025   1.920   6.471  11.815  0.0079 -0.6955 -1.4211
 7610TIP3    H247026   1.894   6.616  11.781  1.3572 -0.2217 -0.4938
 7611TIP3   OH247027   0.762   1.788  12.227  0.1783 -0.0601 -0.2008
 7611TIP3    H147028   0.728   1.746  12.306 -0.1742 -0.0687 -0.3574
 7611TIP3    H247029   0.689   1.841  12.194  0.0725 -0.6573 -0.9517
 7612TIP3   OH247030   4.667   3.036  10.783  0.2449 -0.0468  0.2112
 7612TIP3    H147031   4.734   3.086  10.828 -0.0049  0.0800  0.4448
 7612TIP3    H247032   4.676   2.947  10.817  2.0115 -0.6609 -1.6524
 7613TIP3   OH247033   3.798   6.688  11.692  0.3583 -0.3256 -0.0456
 7613TIP3    H147034   3.726   6.673  11.753 -0.9537  5.3686  0.3055
 7613TIP3    H247035   3.756   6.700  11.607  1.1157  0.8473 -0.2697
 7614TIP3   OH247036   0.687   3.538  12.427  0.1272  0.1015  0.0519
 7614TIP3    H147037   0.614   3.551  12.367  0.6112 -0.9930 -0.8089
 7614TIP3    H247038   0.648   3.544  12.514 -0.8533  0.2622 -0.3869
 7615TIP3   OH247039   6.987   2.025  12.587  0.1873  0.0552 -0.0208
 7615TIP3    H147040   6.891   2.027  12.590  0.0543 -1.7583 -1.2391
 7615TIP3    H247041   7.014   2.111  12.619 -1.8475  0.7498 -0.0136
 7616TIP3   OH247042   0.737   2.359  12.910 -0.1133  0.5328  0.4894
 7616TIP3    H147043   0.777   2.274  12.928 -1.2594  0.0337  0.7923
 7616TIP3    H247044   0.666   2.340  12.849 -1.5865  0.9683  2.0040
 7617TIP3   OH247045   1.047   6.782  13.139  0.1867 -0.7277 -0.7809
 7617TIP3    H147046   1.027   6.688  13.137  0.0477 -0.7337  0.3775
 7617TIP3    H247047   1.096   6.795  13.221 -0.0070  0.2519 -0.8037
 7618TIP3   OH247048   5.905   0.401  10.532  0.0843  0.2847 -0.5488
 7618TIP3    H147049   5.905   0.412  10.437 -1.1478  0.2018 -0.5697
 7618TIP3    H247050   5.915   0.307  10.546  2.3184  0.4696 -0.5272
 7619TIP3   OH247051   5.947   2.932  11.115 -0.0874  0.2564  0.2658
 7619TIP3    H147052   6.011   2.976  11.171  0.5985  1.0295 -1.0581
 7619TIP3    H247053   5.922   2.854  11.164  0.1750  1.0918  1.8078
 7620TIP3   OH247054   3.458   6.679  12.414 -0.4391 -0.5872  0.3128
 7620TIP3    H147055   3.401   6.604  12.434 -1.2427  0.4434  2.1231
 7620TIP3    H247056   3.398   6.750  12.391  0.0027  0.6395  2.6412
 7621TIP3   OH247057   3.198   5.008  10.941  0.1910 -0.0006  0.3446
 7621TIP3    H147058   3.146   4.964  11.008 -1.5746  2.6343  0.8592
 7621TIP3    H247059   3.252   5.070  10.989  2.8971 -1.6886 -0.3274
 7622TIP3   OH247060   1.118   1.384  10.561  0.6615  0.2963 -0.2536
 7622TIP3    H147061   1.167   1.444  10.505  2.9993 -1.8375 -0.6621
 7622TIP3    H247062   1.173   1.371  10.637 -0.0453 -0.8702  0.0975
 7623TIP3   OH247063   1.039   4.526  10.292 -0.1516 -0.0454  0.3399
 7623TIP3    H147064   1.021   4.545  10.200 -0.5040 -0.0022  0.4146
 7623TIP3    H247065   1.006   4.437  10.305 -1.0028  0.3044  0.6622
 7624TIP3   OH247066   5.107   0.497  13.545  0.1336 -0.3888 -0.2446
 7624TIP3    H147067   5.066   0.581  13.568  1.1781  0.4314 -1.2235
 7624TIP3    H247068   5.034   0.436  13.534 -0.6527  0.4119  0.3983
 7625TIP3   OH247069   4.851   0.143  12.428  0.1856 -0.3624  0.0010
 7625TIP3    H147070   4.761   0.170  12.446  0.6034  0.1290  1.5217
 7625TIP3    H247071   4.869   0.176  12.340 -0.4289  1.4686  0.5013
 7626TIP3   OH247072   1.755   4.995  13.233 -0.0120 -0.4640  0.1906
 7626TIP3    H147073   1.696   4.926  13.263 -1.4654  0.3640 -0.6593
 7626TIP3    H247074   1.777   4.970  13.143 -0.0659 -0.1227  0.0810
 7627TIP3   OH247075   1.239   2.920  12.115  0.0427 -0.0744 -0.4340
 7627TIP3    H147076   1.327   2.940  12.148  0.1418 -1.8652  0.5354
 7627TIP3    H247077   1.184   2.992  12.147  0.8937  0.3144  0.1932
 7628TIP3   OH247078   1.156   3.673  10.807 -0.0328  0.2137 -0.3829
 7628TIP3    H147079   1.147   3.584  10.840 -1.5392  0.9568  1.4645
 7628TIP3    H247080   1.244   3.677  10.771  0.1527 -1.9391 -0.3149
 7629TIP3   OH247081   7.588   0.670  11.689 -0.1530  0.1673 -0.0715
 7629TIP3    H147082   7.666   0.723  11.676 -0.6266  0.8097 -0.3430
 7629TIP3    H247083   7.535   0.684  11.610 -1.0326  0.6023  0.5685
 7630TIP3   OH247084   0.321   6.185  10.649 -0.2123 -0.3109  0.3403
 7630TIP3    H147085   0.406   6.200  10.607 -1.3556 -0.8658 -2.3864
 7630TIP3    H247086   0.276   6.269  10.641 -0.3442 -0.3382  0.7663
 7631TIP3   OH247087   0.470   0.486  11.324  0.3647  0.2605 -0.0110
 7631TIP3    H147088   0.522   0.431  11.382  0.9010 -0.8564 -1.4932
 7631TIP3    H247089   0.406   0.426  11.286 -0.0693  1.0045 -0.4726
 7632TIP3   OH247090   6.544   2.932  11.578  0.5453  0.3699 -0.3118
 7632TIP3    H147091   6.461   2.925  11.531  1.0087 -0.4915 -1.0046
 7632TIP3    H247092   6.599   2.986  11.522 -0.6994  4.3082  1.8223
 7633TIP3   OH247093   5.507   7.074  13.241  0.7105  0.0714  0.7143
 7633TIP3    H147094   5.535   7.160  13.274  0.8147 -0.1775  1.2842
 7633TIP3    H247095   5.500   7.020  13.319 -0.2926 -0.1774  0.4541
 7634TIP3   OH247096   6.878   3.825  12.748  0.4650  0.3261  0.2874
 7634TIP3    H147097   6.956   3.868  12.782  2.0031 -1.1168 -1.2174
 7634TIP3    H247098   6.910   3.770  12.676 -2.0884  0.5192 -1.1214
 7635TIP3   OH247099   1.287   4.914  11.920  0.5051  0.6336  0.1226
 7635TIP3    H147100   1.261   4.885  12.008 -0.0202  0.6159 -0.0313
 7635TIP3    H247101   1.236   4.995  11.906 -0.6497 -0.2126 -0.7870
 7636TIP3   OH247102   0.366   2.047  12.000  0.3282  0.3041 -0.1184
 7636TIP3    H147103   0.322   2.097  11.931 -0.7783 -2.7605 -1.8351
 7636TIP3    H247104   0.448   2.018  11.959 -0.4915 -1.8261 -0.3976
 7637TIP3   OH247105   3.379   7.018  12.728  0.0105  0.1866  0.0141
 7637TIP3    H147106   3.335   7.041  12.810  0.6847 -0.2908  0.5170
 7637TIP3    H247107   3.420   6.933  12.746 -0.0558 -0.0499 -0.9016
 7638TIP3   OH247108   1.715   1.376  12.357 -0.0866 -0.1197  0.2358
 7638TIP3    H147109   1.809   1.389  12.344 -0.1970  0.4262 -0.0469
 7638TIP3    H247110   1.674   1.446  12.307 -0.6242  0.0308  0.8665
 7639TIP3   OH247111   0.430   3.974  11.735 -0.2211  0.0337  0.1856
 7639TIP3    H147112   0.439   3.882  11.758 -0.3580  0.0418  0.2744
 7639TIP3    H247113   0.500   3.991  11.672  0.4412  0.1216  0.9319
 7640TIP3   OH247114   7.390   1.109  12.869 -0.3704  0.0451 -0.5989
 7640TIP3    H147115   7.328   1.164  12.917 -0.3365  1.4394 -2.0662
 7640TIP3    H247116   7.345   1.025  12.861 -0.3852 -0.2204  1.7758
 7641TIP3   OH247117   0.325   0.896  12.811 -0.2587 -0.1591  0.0977
 7641TIP3    H147118   0.385   0.886  12.737 -0.0529  0.3819  0.1849
 7641TIP3    H247119   0.312   0.991  12.819  0.5065 -0.1421  1.3818
 7642TIP3   OH247120   2.398   5.637  13.436  0.1026 -0.7095  0.6575
 7642TIP3    H147121   2.458   5.587  13.380 -0.7942 -1.0852  0.0045
 7642TIP3    H247122   2.332   5.573  13.463 -0.8928  0.0242  0.0628
 7643TIP3   OH247123   3.435   0.468  11.090 -0.3616  0.6347  0.3029
 7643TIP3    H147124   3.346   0.436  11.073  0.0177 -0.1214 -0.3461
 7643TIP3    H247125   3.451   0.533  11.022 -0.4009  0.7357  0.3904
 7644TIP3   OH247126   3.208   7.070  12.935 -0.0447  0.3177  0.4398
 7644TIP3    H147127   3.140   7.004  12.951 -0.1684  0.8255  2.2067
 7644TIP3    H247128   3.173   7.150  12.973  0.4603  1.2374 -0.9581
 7645TIP3   OH247129   1.248   4.455  11.438 -0.6948  0.3496 -0.6664
 7645TIP3    H147130   1.253   4.518  11.366  1.7003  2.8697  1.4803
 7645TIP3    H247131   1.323   4.397  11.424 -0.7002  0.3286 -0.6085
 7646TIP3   OH247132   2.833   2.039  10.422  0.2781  0.3530  0.2446
 7646TIP3    H147133   2.906   2.020  10.481  0.9503  2.0407  0.0001
 7646TIP3    H247134   2.874   2.075  10.344 -0.7599  0.3911 -0.3004
 7647TIP3   OH247135   4.584   6.901  10.803 -0.0577 -0.4278 -0.0622
 7647TIP3    H147136   4.661   6.953  10.781 -1.0928  0.5950 -1.4485
 7647TIP3    H247137   4.573   6.842  10.729 -0.9240 -0.1701 -0.1479
 7648TIP3   OH247138   4.910   6.141  12.119  0.0653  0.5412 -0.2575
 7648TIP3    H147139   4.830   6.092  12.137 -0.6084  1.1014 -1.5827
 7648TIP3    H247140   4.980   6.077  12.126 -0.3632  0.2202  1.8153
 7649TIP3   OH247141   1.110   5.722  11.090  0.4388  0.4520 -0.2667
 7649TIP3    H147142   1.054   5.796  11.117 -0.4768 -0.5778  0.7965
 7649TIP3    H247143   1.192   5.737  11.136  0.6115  1.3331 -0.8508
 7650TIP3   OH247144   1.698   0.367  12.632 -0.7776 -0.1714 -0.1787
 7650TIP3    H147145   1.626   0.427  12.650  0.5080  0.7410  2.4399
 7650TIP3    H247146   1.717   0.326  12.717  0.4633 -1.9231 -1.2363
 7651TIP3   OH247147   6.505   0.874  13.125 -0.1808  0.0180  0.0701
 7651TIP3    H147148   6.532   0.961  13.156 -0.2401 -0.0429  0.2936
 7651TIP3    H247149   6.454   0.838  13.197  2.4271 -1.4697  1.3386
 7652TIP3   OH247150   3.793   6.370  10.722 -0.4612  0.5545 -0.0412
 7652TIP3    H147151   3.742   6.394  10.645 -0.6446 -0.6109 -0.3058
 7652TIP3    H247152   3.742   6.401  10.796 -0.4711  1.3434 -0.3757
 7653TIP3   OH247153   6.791   0.719  12.657 -0.3202  0.2054  0.1628
 7653TIP3    H147154   6.714   0.774  12.641 -0.7489 -0.1857  0.8391
 7653TIP3    H247155   6.763   0.631  12.632 -0.2927 -0.0363  0.9610
 7654TIP3   OH247156   1.638   3.314  11.797  0.0494 -0.2642  0.7105
 7654TIP3    H147157   1.667   3.369  11.869  0.9386 -0.7773  0.7631
 7654TIP3    H247158   1.543   3.321  11.798  0.1335  0.9729  0.9367
 7655TIP3   OH247159   2.719   2.760  11.764  0.1649 -0.1533 -0.6755
 7655TIP3    H147160   2.648   2.713  11.809  0.1048 -0.2753 -0.8920
 7655TIP3    H247161   2.798   2.735  11.812 -0.0830  0.9922  0.3686
 7656TIP3   OH247162   3.025   3.287  11.798 -0.1595  0.3186  0.6738
 7656TIP3    H147163   3.049   3.213  11.854  0.7050  0.0614 -0.0208
 7656TIP3    H247164   3.106   3.338  11.790 -0.1222  0.0530 -0.7846
 7657TIP3   OH247165   4.488   5.393  10.930  0.7398  0.2021  0.3145
 7657TIP3    H147166   4.513   5.459  10.866 -0.0888 -1.8935 -2.3255
 7657TIP3    H247167   4.550   5.322  10.918 -0.3054 -0.8372  0.8187
 7658TIP3   OH247168   4.975   6.605  10.506 -0.9771  0.7290  0.3109
 7658TIP3    H147169   4.962   6.628  10.414  3.0529 -1.2585 -1.0185
 7658TIP3    H247170   4.952   6.513  10.512  0.3524  0.3913  0.7770
 7659TIP3   OH247171   4.429   4.098  12.632 -0.4969  0.3731  0.6246
 7659TIP3    H147172   4.414   4.004  12.633 -2.8643  0.6456 -1.5421
 7659TIP3    H247173   4.402   4.128  12.719 -1.1438 -0.7711  0.8329
 7660TIP3   OH247174   1.995   4.317  13.324 -0.4218 -0.0573 -0.1303
 7660TIP3    H147175   2.076   4.305  13.375 -1.0945  3.4046  2.0758
 7660TIP3    H247176   1.929   4.267  13.371 -0.2365 -0.0591  0.1298
 7661TIP3   OH247177   2.636   5.259  12.142  0.1537 -0.6739 -0.6775
 7661TIP3    H147178   2.700   5.325  12.116  0.9590 -0.7925  0.9157
 7661TIP3    H247179   2.554   5.307  12.151  0.7425  0.1382  0.5099
 7662TIP3   OH247180   7.537   0.292  10.578 -0.2533 -0.6707  0.1651
 7662TIP3    H147181   7.469   0.328  10.521  0.9631 -2.0102 -2.2903
 7662TIP3    H247182   7.611   0.352  10.568  0.1324 -1.1802 -0.0836
 7663TIP3   OH247183   7.455   5.153  11.552 -0.1367  0.2877 -0.0283
 7663TIP3    H147184   7.470   5.173  11.645  2.7827  0.0349 -0.3312
 7663TIP3    H247185   7.472   5.235  11.507  0.7585 -0.1281 -0.4724
 7664TIP3   OH247186   4.192   6.564  11.102  0.0235  0.8149 -0.4632
 7664TIP3    H147187   4.178   6.473  11.076  0.7497  0.0248  1.7477
 7664TIP3    H247188   4.110   6.608  11.077  1.1804  0.6918 -5.6177
 7665TIP3   OH247189   0.530   3.718  11.798 -0.2420  0.2589  0.8253
 7665TIP3    H147190   0.559   3.690  11.711  2.0935  0.2377  1.5391
 7665TIP3    H247191   0.461   3.656  11.821  0.1161 -0.6390 -0.4058
 7666TIP3   OH247192   7.259   4.380  11.490  0.5776 -0.0014 -0.2252
 7666TIP3    H147193   7.221   4.400  11.576 -1.3061 -1.8254 -0.5412
 7666TIP3    H247194   7.343   4.339  11.510  0.7915  0.8378  0.6757
 7667TIP3   OH247195   2.346   4.979  10.720 -0.8310 -0.1227  0.2355
 7667TIP3    H147196   2.362   5.073  10.730  0.8934 -0.4173  0.5302
 7667TIP3    H247197   2.432   4.942  10.700 -1.3469 -1.7466  0.8632
 7668TIP3   OH247198   0.404   1.596  11.221  0.3104 -0.1237  0.5219
 7668TIP3    H147199   0.439   1.631  11.139 -0.7079 -1.9657 -0.7730
 7668TIP3    H247200   0.337   1.659  11.247 -0.5942 -0.3701 -1.0502
 7669TIP3   OH247201   5.329   3.683  12.770  0.5647 -0.2553  0.3386
 7669TIP3    H147202   5.418   3.661  12.741  1.1326  1.5247  0.6143
 7669TIP3    H247203   5.294   3.737  12.700 -0.5513 -1.4064 -0.0268
 7670TIP3   OH247204   5.406   1.704  10.663  0.4963 -0.0877  0.2103
 7670TIP3    H147205   5.445   1.633  10.714  0.4354  0.0670  0.4730
 7670TIP3    H247206   5.316   1.711  10.696  0.0613 -0.8025 -0.7536
 7671TIP3   OH247207   1.394   1.701  11.794  0.9549 -0.1370 -0.6018
 7671TIP3    H147208   1.320   1.646  11.768  1.7130 -0.7579 -1.4781
 7671TIP3    H247209   1.445   1.647  11.854  0.3717  0.5264  0.5296
 7672TIP3   OH247210   7.264   4.871  13.365  0.3302 -0.0060  0.1403
 7672TIP3    H147211   7.265   4.846  13.272  0.7899  0.2647  0.0689
 7672TIP3    H247212   7.228   4.795  13.410  0.4429 -0.2750 -0.2229
 7673TIP3   OH247213   1.527   5.207  13.519  0.2433  0.3276 -0.3944
 7673TIP3    H147214   1.559   5.266  13.451  0.2696  0.1818 -0.5095
 7673TIP3    H247215   1.606   5.166  13.554  0.5272  2.4392  1.6476
 7674TIP3   OH247216   0.785   5.103  11.559  0.0176 -0.8785  0.1540
 7674TIP3    H147217   0.758   5.122  11.469  2.0259 -0.3464 -0.3734
 7674TIP3    H247218   0.790   5.189  11.601  1.6737 -0.8517 -0.0275
 7675TIP3   OH247219   4.757   3.581  11.924  0.7382 -0.4283 -0.6370
 7675TIP3    H147220   4.757   3.659  11.869 -2.1823  0.3555  0.3347
 7675TIP3    H247221   4.699   3.520  11.879 -0.2182 -0.4633  0.5911
 7676TIP3   OH247222   4.478   1.348  12.200  0.3322 -0.2781 -0.1055
 7676TIP3    H147223   4.412   1.415  12.216  1.7518  1.3214 -0.6706
 7676TIP3    H247224   4.520   1.334  12.285  0.0031 -0.4921  0.0220
 7677TIP3   OH247225   3.900   5.209  10.681 -0.2752 -0.0521  0.0342
 7677TIP3    H147226   3.822   5.259  10.703  0.6912  1.2595  0.5835
 7677TIP3    H247227   3.925   5.167  10.763  1.5844  2.3897  0.8114
 7678TIP3   OH247228   6.466   0.168  11.433 -0.3112 -0.0960 -0.3995
 7678TIP3    H147229   6.385   0.172  11.382 -1.3195 -0.0976  1.1307
 7678TIP3    H247230   6.471   0.077  11.463 -0.3404  0.1608  0.4123
 7679TIP3   OH247231   1.146   4.619  10.907 -0.8936 -0.2439  0.2632
 7679TIP3    H147232   1.086   4.672  10.855  0.4500 -1.5213 -2.8438
 7679TIP3    H247233   1.226   4.672  10.913  1.2153 -2.3238 -4.6413
 7680TIP3   OH247234   5.433   4.071  10.979 -0.1329  0.4234 -0.0944
 7680TIP3    H147235   5.504   4.134  10.973  0.8776 -0.7463 -0.9667
 7680TIP3    H247236   5.384   4.081  10.897  0.6330 -0.5807 -0.6980
 7681TIP3   OH247237   1.039   2.856  10.933  0.2685 -0.2565  0.5071
 7681TIP3    H147238   1.120   2.863  10.882  0.4739  0.9365  0.9520
 7681TIP3    H247239   0.969   2.866  10.868  0.5250  1.1554  0.4184
 7682TIP3   OH247240   7.411   1.853  10.991 -0.3835 -0.0320 -0.6467
 7682TIP3    H147241   7.331   1.807  10.963 -1.0558  0.5944  0.1839
 7682TIP3    H247242   7.379   1.925  11.045  0.7283  0.5823 -0.7799
 7683TIP3   OH247243   7.470   5.647  10.781 -0.5074  0.4050  0.5970
 7683TIP3    H147244   7.517   5.723  10.747 -0.0062  0.9814  2.4261
 7683TIP3    H247245   7.414   5.683  10.850 -0.7106 -0.7986  1.0910
 7684TIP3   OH247246   6.709   2.392  11.455  0.4503  0.5633  0.2670
 7684TIP3    H147247   6.723   2.474  11.408  0.4847  1.5737  1.9378
 7684TIP3    H247248   6.619   2.397  11.486 -0.9755 -1.9158 -2.9864
 7685TIP3   OH247249   5.592   0.821  11.933 -0.2746  0.2330 -0.0353
 7685TIP3    H147250   5.544   0.751  11.977  0.6507 -0.8961 -0.7597
 7685TIP3    H247251   5.534   0.897  11.938 -2.4713 -1.2266 -1.4797
 7686TIP3   OH247252   7.127   3.559  11.937  0.1826 -0.1938  0.4444
 7686TIP3    H147253   7.126   3.508  12.018  2.4267 -1.5222 -0.2869
 7686TIP3    H247254   7.219   3.584  11.925 -0.1039  0.0328 -1.6651
 7687TIP3   OH247255   0.120   5.069  10.439 -0.3770 -0.8549  0.2963
 7687TIP3    H147256   0.206   5.038  10.413 -0.4445 -0.1640 -0.8136
 7687TIP3    H247257   0.136   5.125  10.514  0.3751  0.6554 -0.9409
 7688TIP3   OH247258   6.928   4.604  11.728 -0.2083  0.1294  0.0822
 7688TIP3    H147259   7.013   4.561  11.723 -0.6953 -0.7850 -1.0974
 7688TIP3    H247260   6.911   4.615  11.821  0.8584 -0.3801  0.3484
 7689TIP3   OH247261   3.130   2.584  11.294 -0.2315 -0.4361 -0.1255
 7689TIP3    H147262   3.070   2.658  11.305 -0.0312 -0.3431  0.3379
 7689TIP3    H247263   3.217   2.621  11.309 -0.2337 -1.0788  1.7044
 7690TIP3   OH247264   0.460   2.685  10.999 -0.0178  0.1048 -0.1922
 7690TIP3    H147265   0.545   2.705  10.959 -0.5091  0.5509 -1.0530
 7690TIP3    H247266   0.411   2.643  10.928 -0.3288 -0.6466  0.4615
 7691TIP3   OH247267   1.901   5.915  11.122  0.3290 -0.4151 -0.0070
 7691TIP3    H147268   1.823   5.929  11.068 -0.3495 -1.0850  0.7702
 7691TIP3    H247269   1.871   5.935  11.211  1.6120  1.3667  0.0852
 7692TIP3   OH247270   6.367   0.734  12.895  0.8393  0.4068  0.4072
 7692TIP3    H147271   6.423   0.657  12.886  1.7765  1.0192  0.8015
 7692TIP3    H247272   6.366   0.751  12.989  0.2570  0.6105  0.3680
 7693TIP3   OH247273   7.059   1.239  19.286 -0.4064 -0.2467  0.5321
 7693TIP3    H147274   7.081   1.146  19.279 -3.5583 -1.0265 -1.4578
 7693TIP3    H247275   6.964   1.240  19.297 -0.3457  2.7811  1.7468
 7694TIP3   OH247276   4.287   2.887  11.329  0.2020  0.6744  0.3057
 7694TIP3    H147277   4.219   2.842  11.379 -0.1139  1.5349  0.6778
 7694TIP3    H247278   4.348   2.920  11.395 -0.3189  1.9856  0.1796
 7695TIP3   OH247279   1.006   3.320  11.965  0.0232  0.0404  0.2584
 7695TIP3    H147280   1.013   3.351  12.055 -0.4623 -0.8356  0.6085
 7695TIP3    H247281   1.086   3.269  11.951 -0.4436 -0.8116  0.6029
 7696TIP3   OH247282   3.422   0.629  12.774 -0.3705  0.0674  0.0180
 7696TIP3    H147283   3.440   0.567  12.845  0.5006  0.9062  0.5641
 7696TIP3    H247284   3.356   0.586  12.720 -1.0045 -0.6206  1.2977
 7697TIP3   OH247285   5.699   6.044  11.589  0.0786 -0.0253  0.0550
 7697TIP3    H147286   5.606   6.025  11.597 -0.2559  1.8543  1.2838
 7697TIP3    H247287   5.732   6.041  11.679  0.7043  1.4561 -0.0874
 7698TIP3   OH247288   0.521   6.918  11.210  0.6234  0.4291  0.2201
 7698TIP3    H147289   0.446   6.975  11.191 -0.1123 -0.0092  1.6114
 7698TIP3    H247290   0.594   6.979  11.222  0.8955  0.7822 -2.6143
 7699TIP3   OH247291   5.680   1.995  13.327 -0.3879  0.2146 -0.0254
 7699TIP3    H147292   5.716   2.005  13.239 -0.2509  0.3649  0.0475
 7699TIP3    H247293   5.590   1.966  13.312 -0.1371 -0.4992 -0.1992
 7700TIP3   OH247294   0.052   3.451  12.527 -0.1106  0.1637 -0.1618
 7700TIP3    H147295  -0.016   3.394  12.490 -0.5707 -0.4797  1.5581
 7700TIP3    H247296   0.106   3.476  12.452 -1.8962  0.2381 -1.4962
 7701TIP3   OH247297   4.304   4.804  11.024  0.0936  0.7651  0.1016
 7701TIP3    H147298   4.357   4.869  10.978  1.3190  0.8342  1.5091
 7701TIP3    H247299   4.271   4.850  11.101 -0.8418  0.3035 -0.0087
 7702TIP3   OH247300   3.556   0.972  12.425  0.0860  0.5618 -0.2165
 7702TIP3    H147301   3.543   0.962  12.330 -1.5050  2.4676 -0.2712
 7702TIP3    H247302   3.647   1.000  12.433 -0.1555  1.8102 -1.3573
 7703TIP3   OH247303   0.618   2.577  10.636 -0.1990  0.3964 -0.2866
 7703TIP3    H147304   0.676   2.576  10.560  1.8057 -1.0769  1.1774
 7703TIP3    H247305   0.619   2.487  10.669 -3.1035  0.3658  0.0318
 7704TIP3   OH247306   6.303   2.397  12.172 -0.3503 -0.0363 -0.1910
 7704TIP3    H147307   6.371   2.464  12.163 -0.8109  0.3912 -0.5834
 7704TIP3    H247308   6.234   2.440  12.223  0.9824 -1.4889  3.1532
 7705TIP3   OH247309   2.813   4.007  11.174 -0.5335  0.0617 -0.0853
 7705TIP3    H147310   2.739   4.022  11.115 -0.3495  0.5053 -0.2075
 7705TIP3    H247311   2.875   3.957  11.122 -0.5438  0.1019 -0.1365
 7706TIP3   OH247312   0.907   0.274  13.036  0.5245 -0.1717  0.1196
 7706TIP3    H147313   0.859   0.256  13.117  0.8931 -0.2811  0.3169
 7706TIP3    H247314   0.990   0.312  13.066  0.5675  0.0065 -0.2175
 7707TIP3   OH247315   7.195   6.131  11.450  0.2138 -0.3817  0.1656
 7707TIP3    H147316   7.200   6.221  11.484  0.3938  0.6747 -2.4232
 7707TIP3    H247317   7.284   6.098  11.459  0.5961  0.4027 -0.5078
 7708TIP3   OH247318   5.723   7.635  11.991 -0.0129 -0.2648  0.4273
 7708TIP3    H147319   5.808   7.663  12.025  0.8377 -0.2738 -1.5881
 7708TIP3    H247320   5.661   7.698  12.029  1.2186  1.3130 -0.0507
 7709TIP3   OH247321   6.717   2.620  11.863  0.0418 -0.3846 -0.2362
 7709TIP3    H147322   6.654   2.692  11.868 -1.0081 -1.2932 -0.0277
 7709TIP3    H247323   6.701   2.568  11.942  1.0261 -0.6570 -0.2061
 7710TIP3   OH247324   4.903   5.661  10.539  0.1647  0.0310  0.0912
 7710TIP3    H147325   4.961   5.718  10.488 -0.7509  0.6635 -0.2588
 7710TIP3    H247326   4.963   5.602  10.585  1.2379  2.1065  1.5130
 7711TIP3   OH247327   2.195   5.540  13.186  0.8705  0.7252 -0.3242
 7711TIP3    H147328   2.266   5.478  13.171  0.0256 -0.5079  0.6453
 7711TIP3    H247329   2.188   5.547  13.281  1.8066  3.3694 -0.3616
 7712TIP3   OH247330   6.715   0.416  12.577 -0.1778  0.0868 -0.2017
 7712TIP3    H147331   6.703   0.322  12.585 -1.5045  0.2443 -0.1329
 7712TIP3    H247332   6.685   0.437  12.489  2.1096  0.1882 -1.0299
 7713TIP3   OH247333   7.409   6.059  10.498 -0.0326 -0.4478 -0.6389
 7713TIP3    H147334   7.374   5.975  10.468 -1.2364  0.8483 -3.1665
 7713TIP3    H247335   7.332   6.111  10.520  0.5696  0.6218 -0.9561
 7714TIP3   OH247336   7.363   1.173  11.745 -0.4166  0.4009 -0.4077
 7714TIP3    H147337   7.325   1.174  11.833  0.4238 -0.6370 -0.0110
 7714TIP3    H247338   7.420   1.250  11.742  0.5645 -0.2708  0.4406
 7715TIP3   OH247339   5.649   2.972  11.915 -0.2856 -0.1468  0.1695
 7715TIP3    H147340   5.623   2.922  11.838  0.5705  1.5194 -1.2631
 7715TIP3    H247341   5.701   3.044  11.881 -0.0691  0.7888  2.3014
 7716TIP3   OH247342   1.582   6.882  11.558  0.3411  0.1953  0.2141
 7716TIP3    H147343   1.504   6.854  11.510  0.1485  1.1637 -0.0657
 7716TIP3    H247344   1.555   6.964  11.601  1.4502  1.0200 -0.6046
 7717TIP3   OH247345   3.399   1.599  10.818  0.1373  0.1284 -0.4753
 7717TIP3    H147346   3.360   1.680  10.787 -2.6656 -1.2353 -0.7735
 7717TIP3    H247347   3.476   1.586  10.762 -0.8209  1.2906 -2.1200
 7718TIP3   OH247348   1.687   1.190  13.179  0.5924 -0.6641 -0.5408
 7718TIP3    H147349   1.627   1.141  13.235 -0.8803  0.7049 -0.8440
 7718TIP3    H247350   1.673   1.282  13.204  1.0734 -0.1549 -2.0329
 7719TIP3   OH247351   2.072   1.068  12.897  0.0987  0.3515  0.2062
 7719TIP3    H147352   2.141   1.065  12.830  0.9208  0.1442  1.0536
 7719TIP3    H247353   2.114   1.040  12.977 -1.0240  0.0618  0.7175
 7720TIP3   OH247354   7.105   4.132  11.129  0.0700  0.6725 -0.0445
 7720TIP3    H147355   7.018   4.125  11.091  0.5578  1.4349 -1.3830
 7720TIP3    H247356   7.162   4.154  11.055  1.2669  0.9862  0.9285
 7721TIP3   OH247357   4.848   1.822  12.513 -0.5051  0.0849  0.2054
 7721TIP3    H147358   4.795   1.900  12.527  0.6555  0.7985  0.7954
 7721TIP3    H247359   4.788   1.759  12.474 -0.9500  2.0750 -2.6651
 7722TIP3   OH247360   1.015   0.644  12.590  0.4057  0.4294  0.5470
 7722TIP3    H147361   0.962   0.583  12.538  0.5365  0.9470 -0.2172
 7722TIP3    H247362   0.951   0.695  12.639  0.2296  0.5173  0.2307
 7723TIP3   OH247363   2.748   3.286  11.810 -0.1827 -0.0247 -0.1814
 7723TIP3    H147364   2.842   3.302  11.803  0.3395 -2.8920 -1.0003
 7723TIP3    H247365   2.741   3.216  11.875 -1.9137  1.0600  0.8624
 7724TIP3   OH247366   3.229   5.128  11.319  0.8308  0.2541  0.4253
 7724TIP3    H147367   3.257   5.160  11.405  1.6265 -1.4910  0.8578
 7724TIP3    H247368   3.310   5.099  11.277  0.2622 -0.3456 -0.2792
 7725TIP3   OH247369   7.561   7.670  12.393  0.7134  0.2125  0.1014
 7725TIP3    H147370   7.553   7.599  12.330  0.9623 -0.1518  0.4689
 7725TIP3    H247371   7.516   7.744  12.353 -0.5133 -0.4610  0.1855
 7726TIP3   OH247372   3.729   7.601  11.535  0.0006 -0.5631 -0.5599
 7726TIP3    H147373   3.717   7.649  11.453  1.0342  0.2955 -0.2225
 7726TIP3    H247374   3.694   7.659  11.602  1.0159 -0.3886 -0.1729
 7727TIP3   OH247375   2.742   2.890  11.357  0.3462 -0.1908  0.3422
 7727TIP3    H147376   2.831   2.855  11.361  0.4632  0.0400 -0.1942
 7727TIP3    H247377   2.750   2.981  11.385  0.0846 -0.5017  1.4699
 7728TIP3   OH247378   3.196   4.268  11.998 -0.1364  1.1695 -0.4466
 7728TIP3    H147379   3.210   4.190  11.944 -0.2182 -0.1131  1.3208
 7728TIP3    H247380   3.252   4.335  11.957  1.8638 -0.4869 -0.5972
 7729TIP3   OH247381   5.264   4.996  11.486  0.2253  0.0825  0.3772
 7729TIP3    H147382   5.262   5.085  11.452 -0.9415  0.7403  2.0416
 7729TIP3    H247383   5.181   4.957  11.458  0.3093 -0.1600  0.4610
 7730TIP3   OH247384   0.135   0.261  12.285  0.2299  0.3401  0.4699
 7730TIP3    H147385   0.175   0.192  12.337  0.0762  0.5323  0.8442
 7730TIP3    H247386   0.138   0.339  12.341  0.3151  0.6125  0.0876
 7731TIP3   OH247387   2.389   7.270  10.652  0.0479 -0.2954 -0.7928
 7731TIP3    H147388   2.455   7.332  10.622  1.9217 -1.5523  0.4429
 7731TIP3    H247389   2.345   7.241  10.573  1.3540  0.2255 -1.7515
 7732TIP3   OH247390   0.944   6.698  11.343 -0.4631 -0.0252  0.3144
 7732TIP3    H147391   0.922   6.610  11.313  0.1098  0.1392 -0.6309
 7732TIP3    H247392   0.992   6.685  11.424 -0.7465 -0.5568  0.4016
 7733TIP3   OH247393   0.858   5.033  11.967  0.3293  0.0834  0.1040
 7733TIP3    H147394   0.888   4.963  12.025  2.2252  0.6390 -0.1330
 7733TIP3    H247395   0.908   5.021  11.887 -2.7728 -1.1054 -1.8040
 7734TIP3   OH247396   0.694   5.616  11.074 -0.5945 -0.8169  0.6388
 7734TIP3    H147397   0.622   5.623  11.137 -1.9059 -1.8512 -0.6854
 7734TIP3    H247398   0.711   5.705  11.046 -1.0394 -0.5146  1.3010
 7735TIP3   OH247399   6.868   4.935  12.735 -0.0039  0.1217 -0.0769
 7735TIP3    H147400   6.824   4.976  12.809 -0.2037 -1.0217  0.4690
 7735TIP3    H247401   6.815   4.858  12.715  2.2150 -1.9145  1.2929
 7736TIP3   OH247402   5.540   0.562  11.918  0.3538  0.0225  0.1901
 7736TIP3    H147403   5.518   0.561  12.011  1.6270 -2.3562  0.5332
 7736TIP3    H247404   5.476   0.503  11.878  0.6294  0.0061 -0.2327
 7737TIP3   OH247405   6.629   4.762  12.819  0.7410  0.0408 -0.3081
 7737TIP3    H147406   6.597   4.759  12.910  1.0529  1.4037 -0.1368
 7737TIP3    H247407   6.652   4.671  12.799  0.2170 -0.3579  0.8146
 7738TIP3   OH247408   4.301   6.111  11.560 -0.5067  0.1104  0.2691
 7738TIP3    H147409   4.236   6.045  11.587 -2.3127  2.0157  0.8471
 7738TIP3    H247410   4.308   6.170  11.634  0.8512  0.7489 -0.3365
 7739TIP3   OH247411   3.025   5.650  11.752 -0.3881  0.2762  0.2651
 7739TIP3    H147412   2.934   5.625  11.767 -0.1182 -0.6061  0.4534
 7739TIP3    H247413   3.025   5.691  11.665 -0.9071  0.0342  0.1476
 7740TIP3   OH247414   3.632   4.415  10.825  0.2640  0.5041 -0.1618
 7740TIP3    H147415   3.601   4.343  10.771 -2.4107  0.7122  0.9205
 7740TIP3    H247416   3.633   4.491  10.767  1.5862 -0.0704 -0.9190
 7741TIP3   OH247417   4.262   6.932  10.842  0.5184 -0.1731  0.5171
 7741TIP3    H147418   4.294   6.854  10.888 -0.3943 -1.0593 -0.3228
 7741TIP3    H247419   4.231   6.990  10.912  2.4842  0.0823  1.2590
 7742TIP3   OH247420   4.957   0.369  10.876 -0.6297 -0.4411  0.0547
 7742TIP3    H147421   4.922   0.455  10.851  2.2159  0.5459 -0.9268
 7742TIP3    H247422   4.882   0.322  10.912 -2.0060  3.0603  2.3098
 7743TIP3   OH247423   6.902   4.552  10.544 -0.0009  0.2467  0.4443
 7743TIP3    H147424   6.864   4.487  10.603  2.4158 -0.9955  0.7474
 7743TIP3    H247425   6.992   4.522  10.530  0.6691  2.6044 -0.8075
 7744TIP3   OH247426   5.724   6.469  13.224 -0.4976  0.5673  0.4337
 7744TIP3    H147427   5.801   6.526  13.226 -0.6042  0.7815 -0.8442
 7744TIP3    H247428   5.742   6.403  13.291  0.7453  0.6875  0.2467
 7745TIP3   OH247429   3.990   2.229  11.113 -0.2518  0.2889 -0.6154
 7745TIP3    H147430   3.984   2.141  11.148  0.0923  0.1100 -0.9997
 7745TIP3    H247431   4.045   2.221  11.035 -1.2467  0.6136 -1.3758
 7746TIP3   OH247432   2.273   1.588  11.260  0.4264 -0.3832  0.3969
 7746TIP3    H147433   2.337   1.657  11.277  1.5389 -0.9220 -1.3530
 7746TIP3    H247434   2.191   1.633  11.243  0.7003  0.3968  1.0999
 7747TIP3   OH247435   3.963   6.220  12.465  0.0849  0.3375 -0.0264
 7747TIP3    H147436   4.047   6.226  12.510 -0.3571  0.1548  0.8446
 7747TIP3    H247437   3.986   6.216  12.372  0.9526  2.3243  0.0540
 7748TIP3   OH247438   0.816   0.160  11.245 -0.7866 -0.2813  0.1405
 7748TIP3    H147439   0.783   0.218  11.314  1.9667 -0.3474  1.6813
 7748TIP3    H247440   0.836   0.079  11.291  0.4573 -0.5763 -0.8751
 7749TIP3   OH247441   6.288   4.187  12.654  0.3848 -0.2413 -0.4346
 7749TIP3    H147442   6.275   4.107  12.706  0.1297 -0.6223 -1.0679
 7749TIP3    H247443   6.342   4.243  12.709  1.0858 -1.1069 -0.2299
 7750TIP3   OH247444   6.540   2.181  12.050 -0.5280 -0.0039  0.0449
 7750TIP3    H147445   6.457   2.226  12.030  0.5698  1.4957 -1.4355
 7750TIP3    H247446   6.590   2.243  12.101 -0.1775 -0.7829  0.6717
 7751TIP3   OH247447   5.941   1.787  11.716 -0.7393 -0.0398 -0.3894
 7751TIP3    H147448   5.870   1.722  11.718 -0.4165 -0.4168  1.5921
 7751TIP3    H247449   5.968   1.794  11.808  2.3978 -0.5765 -1.1582
 7752TIP3   OH247450   2.192   4.012  12.164 -0.1402  0.1295  0.4765
 7752TIP3    H147451   2.190   3.968  12.249  3.0372 -1.5710 -0.1759
 7752TIP3    H247452   2.267   4.070  12.168 -0.1327  0.2677 -1.0405
 7753TIP3   OH247453   6.069   7.609  11.627 -0.0083 -0.6932  0.0790
 7753TIP3    H147454   5.983   7.604  11.669  1.1867  0.1778  2.8376
 7753TIP3    H247455   6.110   7.525  11.645  0.4569 -0.3728  0.5298
 7754TIP3   OH247456   3.270   4.149  11.075 -0.0091  0.3458  0.0255
 7754TIP3    H147457   3.284   4.240  11.050 -0.8063  0.1242 -1.3032
 7754TIP3    H247458   3.180   4.146  11.107 -0.3155 -0.1628 -0.8662
 7755TIP3   OH247459   1.684   5.686  11.497  0.5263  0.3532  0.0980
 7755TIP3    H147460   1.632   5.742  11.555 -0.4166  0.8981 -1.2051
 7755TIP3    H247461   1.727   5.624  11.556  0.6717  1.7031  1.4782
 7756TIP3   OH247462   4.069   7.533  11.332  0.1399  0.4017  0.2019
 7756TIP3    H147463   3.991   7.554  11.281  0.5166  0.6689 -0.2816
 7756TIP3    H247464   4.092   7.616  11.375  0.9354  0.6831 -0.7439
 7757TIP3   OH247465   0.747   6.899  10.860  0.3185 -0.4470 -0.2524
 7757TIP3    H147466   0.672   6.955  10.843  2.3161  2.4830 -0.2304
 7757TIP3    H247467   0.748   6.837  10.786 -0.9373  0.7685 -1.3359
 7758TIP3   OH247468   1.182   5.774  12.326 -0.6840  0.4192 -0.4978
 7758TIP3    H147469   1.248   5.707  12.307  0.3066 -0.0183  3.5455
 7758TIP3    H247470   1.233   5.854  12.337 -1.3453  0.9228 -1.0294
 7759TIP3   OH247471   2.865   4.584  11.430 -0.5264  0.4413  0.1285
 7759TIP3    H147472   2.945   4.612  11.474 -0.6389  0.7070  0.1709
 7759TIP3    H247473   2.881   4.604  11.337  0.3710 -1.6730 -0.2118
 7760TIP3   OH247474   5.068   6.577  12.688 -0.1040 -0.1427 -0.1127
 7760TIP3    H147475   5.051   6.644  12.621 -0.2094 -2.7091 -2.8632
 7760TIP3    H247476   5.001   6.592  12.754 -0.6886  1.8730 -1.0620
 7761TIP3   OH247477   1.177   4.021  12.246  0.1281 -0.3241  0.1696
 7761TIP3    H147478   1.231   4.014  12.167 -0.3749  0.0058 -0.2079
 7761TIP3    H247479   1.094   3.980  12.222 -0.2637  0.3785  0.3039
 7762TIP3   OH247480   2.620   1.055  12.210 -0.0425 -0.0014 -0.7163
 7762TIP3    H147481   2.576   1.018  12.133  1.5641  0.1296 -1.7604
 7762TIP3    H247482   2.625   1.149  12.191  0.6656 -0.0163 -0.6356
 7763TIP3   OH247483   6.897   5.655  10.626  0.4327 -0.1348 -0.5280
 7763TIP3    H147484   6.845   5.672  10.705 -0.0217  1.3601 -1.1176
 7763TIP3    H247485   6.838   5.603  10.571 -0.5639  1.6843 -1.2588
 7764TIP3   OH247486   5.164   0.630  12.010  0.0936 -0.2730 -0.0837
 7764TIP3    H147487   5.192   0.654  11.922 -1.9011 -0.9355 -0.9556
 7764TIP3    H247488   5.099   0.696  12.033 -1.6195 -1.7840 -0.3833
 7765TIP3   OH247489   3.442   7.337  12.093 -0.1289 -0.2617 -0.2367
 7765TIP3    H147490   3.467   7.430  12.090 -0.3473 -0.1813  0.3606
 7765TIP3    H247491   3.392   7.323  12.013  0.5298 -0.0491 -0.6994
 7766TIP3   OH247492   5.155   4.307  11.926 -0.3033  0.4823  0.3165
 7766TIP3    H147493   5.109   4.330  11.845  2.4815  3.4413 -0.6399
 7766TIP3    H247494   5.164   4.211  11.922 -0.6163  0.4842 -2.6809
 7767TIP3   OH247495   2.234   4.676  11.536  0.1324 -0.2989  0.4786
 7767TIP3    H147496   2.231   4.638  11.449  0.2098 -1.1771  0.8532
 7767TIP3    H247497   2.170   4.748  11.533 -0.9931 -1.2830  0.1439
 7768TIP3   OH247498   0.069   7.494  13.732  0.1556 -0.1009 -0.8719
 7768TIP3    H147499   0.085   7.587  13.751  0.4587 -0.5810  1.5673
 7768TIP3    H247500   0.151   7.464  13.693  0.5532  0.3751 -0.4308
 7769TIP3   OH247501   7.349   6.869  10.794 -0.2419 -0.5288 -0.3157
 7769TIP3    H147502   7.394   6.803  10.847 -0.1591 -0.1361  0.1118
 7769TIP3    H247503   7.413   6.941  10.788 -0.5541 -0.2456 -0.2692
 7770TIP3   OH247504   3.842   7.538  11.176 -0.2961  0.9388  0.4354
 7770TIP3    H147505   3.759   7.586  11.168 -0.5911  0.5543  1.1100
 7770TIP3    H247506   3.845   7.482  11.098 -0.2625  1.5647 -0.0202
 7771TIP3   OH247507   1.086   3.030  11.296 -0.5808 -0.1287  0.1246
 7771TIP3    H147508   1.138   2.955  11.326 -0.7229 -0.1089  0.4278
 7771TIP3    H247509   1.132   3.106  11.331  0.0981 -0.0162 -0.9894
 7772TIP3   OH247510   0.203   3.745  12.222 -0.0872 -0.4821 -0.2634
 7772TIP3    H147511   0.220   3.805  12.150  1.6727 -0.5690  0.0382
 7772TIP3    H247512   0.156   3.672  12.182  0.1920 -0.1822 -1.1689
 7773TIP3   OH247513   6.469   6.761  13.315  0.0382  0.5134  0.2902
 7773TIP3    H147514   6.511   6.732  13.395 -0.7532 -2.9906 -0.4061
 7773TIP3    H247515   6.532   6.822  13.275  2.0088 -0.3967  1.8533
 7774TIP3   OH247516   3.209   2.517  12.604 -0.3394 -0.3627  0.3008
 7774TIP3    H147517   3.199   2.471  12.521 -1.0783  2.4878 -1.3212
 7774TIP3    H247518   3.124   2.505  12.648 -0.3571 -0.9119  0.1244
 7775TIP3   OH247519   4.626   1.619  12.115 -0.0499  0.0045 -0.4616
 7775TIP3    H147520   4.712   1.582  12.096  0.1081  0.5886 -0.9223
 7775TIP3    H247521   4.576   1.605  12.035 -0.1119  0.4192 -0.4999
 7776TIP3   OH247522   5.042   2.541  13.079 -0.2255 -0.2816  0.0767
 7776TIP3    H147523   5.028   2.543  13.174 -1.0361 -1.0253 -0.0160
 7776TIP3    H247524   5.115   2.602  13.065 -0.5570  0.3861  1.0919
 7777TIP3   OH247525   3.945   1.630  11.881 -0.1282 -0.1540 -0.1156
 7777TIP3    H147526   3.927   1.539  11.857 -1.2520  0.3245 -1.1789
 7777TIP3    H247527   4.040   1.633  11.896  0.2235 -1.0794 -1.9568
 7778TIP3   OH247528   6.001   5.295  13.417 -0.4670  0.3057 -0.2021
 7778TIP3    H147529   5.950   5.364  13.460 -0.9712  0.1074 -0.4784
 7778TIP3    H247530   5.939   5.252  13.358 -0.1702 -0.4159 -0.0036
 7779TIP3   OH247531   1.868   5.934  12.316  0.2972  0.0157  0.1036
 7779TIP3    H147532   1.849   5.891  12.400 -0.6099  0.5577  0.1936
 7779TIP3    H247533   1.959   5.965  12.325  0.1877  0.1237  0.9142
 7780TIP3   OH247534   6.109   0.164  12.572  0.0480 -0.0269 -0.9886
 7780TIP3    H147535   6.042   0.147  12.506 -0.6960 -0.1888 -0.2010
 7780TIP3    H247536   6.145   0.077  12.592 -0.1617 -0.0547 -0.7284
 7781TIP3   OH247537   4.516   4.840  11.653 -0.2171  0.2429  0.4953
 7781TIP3    H147538   4.590   4.790  11.617 -0.7898 -0.3129  0.0729
 7781TIP3    H247539   4.509   4.811  11.744 -1.6120 -1.7686 -0.1864
 7782TIP3   OH247540   6.044   7.514  11.322  0.1948  0.3065 -0.0581
 7782TIP3    H147541   6.005   7.574  11.386  0.0549 -0.5754  0.7180
 7782TIP3    H247542   5.997   7.431  11.337  1.2438 -0.3337 -0.2332
 7783TIP3   OH247543   7.359   4.503  11.276 -0.0941 -0.1061 -0.9942
 7783TIP3    H147544   7.314   4.453  11.344  0.9237  0.8733  0.4505
 7783TIP3    H247545   7.316   4.588  11.276  0.6463  0.2770 -0.7707
 7784TIP3   OH247546   2.158   3.257  10.863  0.1898  0.8068  0.7012
 7784TIP3    H147547   2.092   3.319  10.832  1.1165  3.2562  3.1630
 7784TIP3    H247548   2.192   3.216  10.783 -2.3294  1.4683 -0.8345
 7785TIP3   OH247549   3.479   0.838  11.192 -0.5089  0.1309  0.2400
 7785TIP3    H147550   3.405   0.877  11.239 -0.3934  1.8404 -0.8944
 7785TIP3    H247551   3.544   0.820  11.261 -1.3604  0.0812  1.0529
 7786TIP3   OH247552   7.116   5.621  12.374 -0.1056  0.0527  0.0484
 7786TIP3    H147553   7.146   5.540  12.334  2.0958  0.7896  0.0764
 7786TIP3    H247554   7.155   5.620  12.462  0.3141  1.3184 -0.1047
 7787TIP3   OH247555   3.996   3.259  11.371  0.3316 -0.2283 -0.3279
 7787TIP3    H147556   4.070   3.249  11.430 -1.0369  0.7896  1.6634
 7787TIP3    H247557   3.999   3.181  11.315  2.8782 -0.1929 -0.3525
 7788TIP3   OH247558   4.262   0.124  13.150  0.2894 -0.1304 -0.3614
 7788TIP3    H147559   4.228   0.135  13.062 -2.3684 -0.0706  0.6014
 7788TIP3    H247560   4.353   0.096  13.137 -0.9036 -3.3270 -3.1473
 7789TIP3   OH247561   6.462   0.529  11.444  0.0928  0.0073  0.2362
 7789TIP3    H147562   6.535   0.476  11.412  0.6662  1.3913 -0.8895
 7789TIP3    H247563   6.411   0.470  11.499  0.5735 -1.7734 -1.1288
 7790TIP3   OH247564   4.573   0.897  13.573 -0.3975  0.5588 -0.3276
 7790TIP3    H147565   4.606   0.868  13.488  0.0108  0.9466 -0.3073
 7790TIP3    H247566   4.630   0.971  13.596  1.3695 -1.2555  1.5896
 7791TIP3   OH247567   0.446   0.252  11.848 -0.2968 -0.2188  0.2138
 7791TIP3    H147568   0.485   0.183  11.795  0.2795  0.5140 -0.3362
 7791TIP3    H247569   0.390   0.205  11.911 -0.2415 -1.1525 -0.4068
 7792TIP3   OH247570   3.003   1.431  11.931 -0.4152 -0.0863 -0.0693
 7792TIP3    H147571   2.960   1.380  11.863 -1.0265  0.9064 -0.4509
 7792TIP3    H247572   2.932   1.473  11.979  0.0350 -0.2948  0.8092
 7793TIP3   OH247573   3.127   6.192  12.138 -0.2930 -0.0407  0.4505
 7793TIP3    H147574   3.116   6.229  12.050 -0.1108  2.9460  1.5417
 7793TIP3    H247575   3.153   6.102  12.124 -1.1685  0.0685 -2.5361
 7794TIP3   OH247576   4.401   6.412  10.830 -0.2853 -0.1690 -0.2568
 7794TIP3    H147577   4.337   6.483  10.827 -0.0538  0.0692  0.2545
 7794TIP3    H247578   4.424   6.397  10.738 -0.6142  0.1636 -0.3981
 7795TIP3   OH247579   0.181   2.243  12.187  0.2256  0.3730  0.4476
 7795TIP3    H147580   0.210   2.333  12.200  1.1889  0.1467 -0.0414
 7795TIP3    H247581   0.226   2.214  12.108 -0.5095 -0.3573  0.2808
 7796TIP3   OH247582   5.052   6.688  11.117  0.0603  0.0431 -0.3655
 7796TIP3    H147583   5.002   6.770  11.120 -0.5211 -0.2808 -0.9899
 7796TIP3    H247584   5.113   6.701  11.044 -1.6805 -0.9791 -2.0897
 7797TIP3   OH247585   6.187   0.299  12.200  0.2233  0.2511 -0.9642
 7797TIP3    H147586   6.182   0.390  12.229  0.0022 -0.3644  1.0949
 7797TIP3    H247587   6.109   0.257  12.238  1.2698 -1.1879 -0.2978
 7798TIP3   OH247588   4.577   1.315  12.461 -0.0318 -0.2582  0.2557
 7798TIP3    H147589   4.622   1.240  12.499  1.3062  0.4812  0.1697
 7798TIP3    H247590   4.493   1.318  12.506 -0.3524 -2.1323 -0.1360
 7799TIP3   OH247591   7.098   5.040  10.908  0.3890  0.5288 -0.2053
 7799TIP3    H147592   7.154   5.101  10.956  0.8913  0.8650 -1.1806
 7799TIP3    H247593   7.086   5.081  10.822  0.4237 -0.5692 -0.7545
 7800TIP3   OH247594   2.662   4.973  12.581  0.0494 -0.0507 -0.6783
 7800TIP3    H147595   2.718   4.970  12.503  0.8475  1.1870 -0.1926
 7800TIP3    H247596   2.593   4.910  12.564  1.7835 -1.9032 -1.1687
 7801TIP3   OH247597   1.483   4.008  11.756 -0.4890  0.1679 -0.3155
 7801TIP3    H147598   1.464   3.922  11.719 -0.3076 -0.2664  0.5722
 7801TIP3    H247599   1.576   4.022  11.738 -0.3613 -0.1158  0.1059
 7802TIP3   OH247600   2.872   5.263  10.867 -0.6574  0.6429  0.3765
 7802TIP3    H147601   2.893   5.348  10.905 -1.7172  1.2675 -0.3753
 7802TIP3    H247602   2.805   5.227  10.926  0.8871 -0.3988  1.5740
 7803TIP3   OH247603   4.327   1.471  10.646 -0.3430 -0.3769  0.3080
 7803TIP3    H147604   4.329   1.474  10.741 -1.0189 -0.9255  0.3499
 7803TIP3    H247605   4.343   1.562  10.619  0.6609 -0.3637  0.9103
 7804TIP3   OH247606   3.864   3.640  10.676  0.4385  1.1343 -0.3275
 7804TIP3    H147607   3.892   3.714  10.621 -0.0340 -0.3093 -2.6765
 7804TIP3    H247608   3.773   3.661  10.699  0.2232  1.2019 -1.1946
 7805TIP3   OH247609   4.150   4.295  11.295 -0.0591 -0.0104 -0.0489
 7805TIP3    H147610   4.129   4.204  11.274 -0.0661  0.3133 -1.5805
 7805TIP3    H247611   4.140   4.341  11.212 -0.4996  1.4746  0.8022
 7806TIP3   OH247612   1.435   0.815  11.001  0.5604  0.3701 -0.5969
 7806TIP3    H147613   1.344   0.785  11.002  0.1370  1.6059 -0.3392
 7806TIP3    H247614   1.467   0.793  10.914  0.2338 -0.6932 -0.4596
 7807TIP3   OH247615   7.422   5.667  13.375 -0.2553  0.0856  0.3862
 7807TIP3    H147616   7.472   5.587  13.360  1.2545  0.8374  1.0753
 7807TIP3    H247617   7.355   5.642  13.439  0.8412 -0.4219  1.3714
 7808TIP3   OH247618   7.579   4.680  10.941 -0.4121  0.4112 -0.0650
 7808TIP3    H147619   7.546   4.768  10.927 -1.8842 -0.2526 -1.0140
 7808TIP3    H247620   7.502   4.629  10.965  0.4294 -0.5967  0.5764
 7809TIP3   OH247621   4.200   4.849  11.638  0.7260 -0.2898  0.1670
 7809TIP3    H147622   4.275   4.885  11.590  0.4436  0.1466  0.0494
 7809TIP3    H247623   4.143   4.812  11.570  0.4304  0.1324  0.1865
 7810TIP3   OH247624   5.988   3.057  12.027 -0.0094 -0.3478 -0.0863
 7810TIP3    H147625   5.998   3.133  12.084  1.0117 -0.9644  0.5800
 7810TIP3    H247626   5.950   2.989  12.083 -0.0116 -0.6307 -0.4256
 7811TIP3   OH247627   6.678   2.945  12.266  0.4749 -0.2510 -0.3263
 7811TIP3    H147628   6.599   2.946  12.213 -0.6406 -1.0386  1.2397
 7811TIP3    H247629   6.647   2.948  12.356  2.3207  2.3236  0.3500
 7812TIP3   OH247630   1.594   0.905  11.867  0.2015 -0.2958  0.1698
 7812TIP3    H147631   1.633   0.825  11.903 -0.5673 -1.4973 -1.5125
 7812TIP3    H247632   1.560   0.878  11.781 -0.2260  1.8151 -0.3728
 7813TIP3   OH247633   2.254   5.145  12.607 -0.4535 -0.7213 -0.1581
 7813TIP3    H147634   2.171   5.116  12.571 -0.0080 -2.1170 -0.1340
 7813TIP3    H247635   2.310   5.159  12.530 -0.8539  0.7437 -0.2028
 7814TIP3   OH247636   2.061   6.122  11.849  0.3209  0.1212  0.4273
 7814TIP3    H147637   1.974   6.113  11.810 -0.1262  3.7599  0.2247
 7814TIP3    H247638   2.062   6.057  11.919 -3.0171  0.5686  1.0957
 7815TIP3   OH247639   5.076   3.182  12.025 -0.0689  0.0805  0.2519
 7815TIP3    H147640   4.991   3.222  12.009 -2.1519 -3.0911  2.1652
 7815TIP3    H247641   5.079   3.110  11.962  1.6231  0.6279 -0.3269
 7816TIP3   OH247642   3.569   4.927  11.009  0.1831 -0.7897  0.2094
 7816TIP3    H147643   3.543   4.912  11.100  0.5894 -1.5320  0.2104
 7816TIP3    H247644   3.567   5.022  10.999 -1.4343 -0.7614  0.5268
 7817TIP3   OH247645   5.254   5.585  12.438 -0.2466  0.4016  0.2540
 7817TIP3    H147646   5.277   5.676  12.461  0.5426 -0.0375  1.2974
 7817TIP3    H247647   5.162   5.577  12.461 -0.3492  0.9763  0.0562
 7818TIP3   OH247648   4.130   1.755  13.610 -0.3385  0.1071 -0.1258
 7818TIP3    H147649   4.053   1.812  13.615  0.8994  1.8837 -0.4867
 7818TIP3    H247650   4.201   1.806  13.649  1.0262 -0.8203 -1.2931
 7819TIP3   OH247651   0.480   1.335  11.956  0.4181 -0.5514 -0.0831
 7819TIP3    H147652   0.528   1.395  11.899 -0.9994  1.1041  0.3602
 7819TIP3    H247653   0.501   1.364  12.045 -0.8336 -0.1938  0.1265
 7820TIP3   OH247654   0.340   0.317  11.132  0.2124  0.3379 -0.2278
 7820TIP3    H147655   0.254   0.306  11.172  0.5786 -0.8606  0.2868
 7820TIP3    H247656   0.353   0.237  11.082  0.8233  0.7324 -0.7072
 7821TIP3   OH247657   6.764   0.910  10.900 -0.3928  0.0166 -0.3954
 7821TIP3    H147658   6.750   0.822  10.935  0.5473  0.4777  1.2591
 7821TIP3    H247659   6.702   0.917  10.827 -0.2622 -2.1151 -0.7916
 7822TIP3   OH247660   2.604   3.132  10.554 -0.7757  0.0368 -0.0861
 7822TIP3    H147661   2.549   3.119  10.477 -1.1273 -1.5316  0.3810
 7822TIP3    H247662   2.619   3.043  10.587  0.5618  0.5772  0.8198
 7823TIP3   OH247663   0.851   4.440  12.034  0.2316 -0.0579 -0.0184
 7823TIP3    H147664   0.935   4.462  12.074 -0.1614 -0.3709  1.0259
 7823TIP3    H247665   0.786   4.489  12.085 -0.3009 -0.5998 -0.1561
 7824TIP3   OH247666   4.727   4.735  10.897  0.0585  0.3106 -0.5485
 7824TIP3    H147667   4.664   4.676  10.856  0.2953  0.2949 -0.8997
 7824TIP3    H247668   4.755   4.691  10.976  1.8140 -1.0438 -1.8435
 7825TIP3   OH247669   0.078   3.176  12.601  0.0381  0.2659  0.1009
 7825TIP3    H147670   0.109   3.266  12.595  0.0195  0.2026 -1.2540
 7825TIP3    H247671  -0.003   3.182  12.653  0.9393  0.7716  1.4929
 7826TIP3   OH247672   1.421   4.917  12.489  0.2036  0.7988  0.2690
 7826TIP3    H147673   1.502   4.969  12.489  0.2134  0.7988  1.1689
 7826TIP3    H247674   1.444   4.838  12.538 -0.4339  0.9532  0.8284
 7827TIP3   OH247675   6.311   4.211  12.064 -0.0800  0.5616  0.3119
 7827TIP3    H147676   6.239   4.151  12.079  1.1288 -1.5306 -1.5308
 7827TIP3    H247677   6.319   4.261  12.145 -3.5713  0.9326  0.5469
 7828TIP3   OH247678   6.288   0.830  10.816 -0.0752 -0.3085 -0.1894
 7828TIP3    H147679   6.290   0.759  10.751  1.4987  0.3263 -0.8869
 7828TIP3    H247680   6.379   0.859  10.822 -0.4369  0.5752  1.2967
 7829TIP3   OH247681   2.372   4.857  11.200  0.0145  0.1475 -0.2114
 7829TIP3    H147682   2.297   4.867  11.259  0.4597  1.7185  0.1408
 7829TIP3    H247683   2.335   4.869  11.112 -0.4374 -0.9197 -0.1763
 7830TIP3   OH247684   4.969   0.149  11.233  0.3360 -0.0094 -0.5452
 7830TIP3    H147685   4.962   0.070  11.180  0.9883 -0.5239  0.1160
 7830TIP3    H247686   4.920   0.215  11.184 -0.8225 -0.9966 -0.7399
 7831TIP3   OH247687   5.223   3.995  12.302  0.3352  0.0792  0.5803
 7831TIP3    H147688   5.179   4.029  12.380 -2.1985 -3.7114  1.1047
 7831TIP3    H247689   5.160   4.009  12.231  1.6523  1.4394 -0.3647
 7832TIP3   OH247690   1.800   0.927  11.650  0.9410  0.4631 -0.2025
 7832TIP3    H147691   1.708   0.921  11.624  1.5086  0.1003 -2.2684
 7832TIP3    H247692   1.803   1.006  11.705 -1.0626 -1.0114  2.2711
 7833TIP3   OH247693   3.528   4.814  12.279  0.5511 -0.1261  0.0330
 7833TIP3    H147694   3.623   4.803  12.293  1.2486  2.0728 -2.2810
 7833TIP3    H247695   3.496   4.725  12.261  2.2459 -0.8625  0.4342
 7834TIP3   OH247696   7.143   3.211  12.341 -0.0563 -0.0334 -0.4373
 7834TIP3    H147697   7.055   3.211  12.303 -1.2502 -0.0753  2.1459
 7834TIP3    H247698   7.187   3.286  12.300 -2.2120  1.6681  0.1801
 7835TIP3   OH247699   6.813   5.237  11.473 -0.4564  0.0162 -0.1223
 7835TIP3    H147700   6.819   5.325  11.509  0.4076 -0.0847  0.0257
 7835TIP3    H247701   6.745   5.242  11.406  0.0071  0.9504 -0.5438
 7836TIP3   OH247702   3.855   2.347  12.893 -0.1928 -0.0003  0.6146
 7836TIP3    H147703   3.771   2.341  12.938 -0.0065  1.0279  1.1425
 7836TIP3    H247704   3.920   2.330  12.962  0.0634  0.5359  0.5148
 7837TIP3   OH247705   4.849   2.712  12.578 -0.2616 -0.4135  0.6530
 7837TIP3    H147706   4.789   2.700  12.652 -0.1537  0.5840  0.9077
 7837TIP3    H247707   4.936   2.703  12.617 -0.2231 -1.4426  0.3573
 7838TIP3   OH247708   0.415   0.484  13.332 -0.4578 -0.2572  0.1923
 7838TIP3    H147709   0.365   0.559  13.300  0.5515  0.1599 -0.4554
 7838TIP3    H247710   0.361   0.408  13.308 -0.8481  0.1897 -0.3811
 7839TIP3   OH247711   5.206   4.545  10.771  0.9051  0.1252 -0.0977
 7839TIP3    H147712   5.235   4.498  10.693 -1.6209 -1.2727 -0.3135
 7839TIP3    H247713   5.115   4.517  10.783  0.2604  2.6194  1.6203
 7840TIP3   OH247714   2.783   2.515  10.972  0.3642  0.0883  0.3786
 7840TIP3    H147715   2.749   2.425  10.972 -0.9214  0.5603  0.3191
 7840TIP3    H247716   2.787   2.538  11.065 -0.7907  0.4945  0.3450
 7841TIP3   OH247717   0.601   3.842  11.107 -0.8233 -0.0211 -0.7279
 7841TIP3    H147718   0.512   3.807  11.105 -1.1840  0.9130 -2.0604
 7841TIP3    H247719   0.653   3.777  11.061 -1.3403  0.7425 -2.4428
 7842TIP3   OH247720   3.889   4.914  12.559 -0.5989  0.1164 -0.1497
 7842TIP3    H147721   3.911   4.985  12.499 -0.1057  0.0935 -0.0034
 7842TIP3    H247722   3.943   4.841  12.529 -0.2922  0.1275  0.3608
 7843TIP3   OH247723   0.163   1.860  13.453  0.1307  0.3659  0.9871
 7843TIP3    H147724   0.137   1.773  13.422 -2.1866  1.3071  0.0319
 7843TIP3    H247725   0.082   1.911  13.452  1.4853  2.6678  1.1249
 7844TIP3   OH247726   7.347   7.562  12.808  0.0592  0.6665 -0.0194
 7844TIP3    H147727   7.402   7.485  12.820 -0.5480  0.3643  0.8621
 7844TIP3    H247728   7.392   7.613  12.740  0.5037 -0.4176 -0.5652
 7845TIP3   OH247729   4.461   0.418  11.558  0.0475  0.0090  0.0280
 7845TIP3    H147730   4.401   0.428  11.485 -0.6042  0.8587  0.6554
 7845TIP3    H247731   4.406   0.386  11.630  0.4196  0.3893  0.4904
 7846TIP3   OH247732   0.576   4.263  12.238  0.1493 -0.4190  0.4965
 7846TIP3    H147733   0.588   4.251  12.144  1.0551  2.0069  0.2233
 7846TIP3    H247734   0.656   4.229  12.278 -0.6328 -2.3251  0.5261
 7847TIP3   OH247735   1.741   3.188  10.636  0.4362  0.5394  0.2552
 7847TIP3    H147736   1.829   3.224  10.636  0.4968  0.3869  0.5548
 7847TIP3    H247737   1.684   3.265  10.633  0.5790  0.6357 -0.0115
 7848TIP3   OH247738   7.341   6.374  11.360  0.7004 -0.3107 -0.9175
 7848TIP3    H147739   7.285   6.429  11.414  1.2792  0.2178 -0.8533
 7848TIP3    H247740   7.326   6.404  11.271  0.0110 -0.9474 -1.0219
 7849TIP3   OH247741   1.533   2.387  11.750  0.1393 -0.8472  0.2840
 7849TIP3    H147742   1.613   2.349  11.712  1.0352 -0.9941  2.1722
 7849TIP3    H247743   1.484   2.311  11.783 -0.5449 -0.7132 -0.3965
 7850TIP3   OH247744   4.617   3.849  12.360 -0.1218 -0.7662  0.3698
 7850TIP3    H147745   4.701   3.893  12.367  0.3786 -1.1357 -2.2176
 7850TIP3    H247746   4.565   3.906  12.303 -1.5970 -0.6417  1.7531
 7851TIP3   OH247747   5.527   5.526  10.814 -0.2970  0.4957  0.3852
 7851TIP3    H147748   5.497   5.487  10.732 -1.8665 -0.9257  1.5765
 7851TIP3    H247749   5.538   5.453  10.874  0.0869  1.5695  1.6852
 7852TIP3   OH247750   1.283   2.912  10.525 -0.0328  0.3578 -0.0975
 7852TIP3    H147751   1.351   2.853  10.493  0.7685  0.5757  1.1370
 7852TIP3    H247752   1.277   2.893  10.619 -1.9720  0.0520 -0.2466
 7853TIP3   OH247753   5.004   1.481  11.331  0.5204  0.0444 -0.5707
 7853TIP3    H147754   5.060   1.490  11.254 -1.3955  1.1138 -1.9171
 7853TIP3    H247755   4.916   1.466  11.296 -0.5033  1.0614  1.3737
 7854TIP3   OH247756   1.508   1.957  11.095  0.0337 -0.1716  0.0880
 7854TIP3    H147757   1.539   2.043  11.123  1.0615 -0.7818  0.8823
 7854TIP3    H247758   1.531   1.898  11.167 -1.9718 -0.8738  0.2010
 7855TIP3   OH247759   0.294   7.574  10.545  0.3949 -0.5646  0.0649
 7855TIP3    H147760   0.370   7.540  10.498  0.0840  3.0660 -3.6417
 7855TIP3    H247761   0.221   7.523  10.512  0.5740 -0.0653 -1.1715
 7856TIP3   OH247762   4.183   7.292  11.754  0.4696 -0.6788 -0.1282
 7856TIP3    H147763   4.224   7.205  11.751  1.8886 -0.0264 -0.1576
 7856TIP3    H247764   4.237   7.342  11.814 -0.0773  0.3388 -0.4613
 7857TIP3   OH247765   5.072   6.821  10.665  0.5596 -0.2545  0.1165
 7857TIP3    H147766   5.023   6.759  10.611  0.8400  0.3156 -0.8034
 7857TIP3    H247767   5.069   6.903  10.616  0.5160  0.3676  1.1437
 7858TIP3   OH247768   3.725   1.814  12.309 -0.2537 -0.0728  0.4017
 7858TIP3    H147769   3.698   1.872  12.239  0.5133 -0.0139  0.1502
 7858TIP3    H247770   3.663   1.741  12.306 -0.3583  0.0433 -0.1900
 7859TIP3   OH247771   4.131   0.984  13.147 -0.3133  0.2143 -0.9487
 7859TIP3    H147772   4.056   1.030  13.185 -0.6564 -0.8947 -0.2275
 7859TIP3    H247773   4.103   0.964  13.057 -0.8797 -0.1747 -0.6924
 7860TIP3   OH247774   4.506   6.569  11.272 -0.3771 -0.4142  0.3332
 7860TIP3    H147775   4.551   6.604  11.195  1.9174  0.4337  1.9587
 7860TIP3    H247776   4.517   6.474  11.265  2.1222 -0.2446  0.8104
 7861TIP3   OH247777   6.420   4.300  13.609  0.1037  0.0185  0.0072
 7861TIP3    H147778   6.369   4.254  13.542 -0.9367  0.7996  0.2389
 7861TIP3    H247779   6.509   4.305  13.573  0.2242 -2.0045 -0.0915
 7862TIP3   OH247780   4.677   0.023  10.419 -0.2704  0.3340  0.4101
 7862TIP3    H147781   4.729   0.070  10.354 -2.2226  0.6064 -1.0268
 7862TIP3    H247782   4.602   0.080  10.437 -1.8026 -1.4135 -0.0668
 7863TIP3   OH247783   2.531   3.400  12.192 -0.0366 -0.2572  0.2661
 7863TIP3    H147784   2.436   3.402  12.191 -0.0497 -0.7332 -0.0685
 7863TIP3    H247785   2.553   3.347  12.269  0.0725  3.0738  2.7666
 7864TIP3   OH247786   4.603   2.131  10.845 -0.1629  0.5474  0.1523
 7864TIP3    H147787   4.550   2.174  10.912  0.8222  0.2935  1.1317
 7864TIP3    H247788   4.691   2.167  10.858 -0.0897  1.0846 -1.5381
 7865TIP3   OH247789   5.442   3.998  11.927 -0.2130 -0.1874 -0.4461
 7865TIP3    H147790   5.478   3.924  11.977  0.1424 -0.2952 -0.8552
 7865TIP3    H247791   5.397   4.051  11.992 -0.5757 -0.8275 -0.1575
 7866TIP3   OH247792   2.478   5.101  11.712  0.4048  0.0012 -0.0827
 7866TIP3    H147793   2.427   5.025  11.741  0.0155 -0.0832 -0.9801
 7866TIP3    H247794   2.553   5.103  11.772  0.0575 -0.6716  0.3894
 7867TIP3   OH247795   5.729   3.355  12.503 -0.0468  0.0252 -0.4924
 7867TIP3    H147796   5.816   3.387  12.528 -0.3540  0.0859  0.5782
 7867TIP3    H247797   5.711   3.396  12.418  0.2360  1.4455  0.1057
 7868TIP3   OH247798   2.618   6.468  11.295  0.6729  0.2932 -0.2220
 7868TIP3    H147799   2.580   6.538  11.240 -0.2190 -1.5439 -2.0900
 7868TIP3    H247800   2.543   6.429  11.339  1.0236 -0.2322 -0.0893
 7869TIP3   OH247801   7.610   2.316  11.931 -0.6337 -0.1920  0.2949
 7869TIP3    H147802   7.670   2.339  11.860 -2.4030 -0.1690 -1.2826
 7869TIP3    H247803   7.620   2.387  11.994  2.8952 -1.5358  1.4428
 7870TIP3   OH247804   5.190   1.638  13.404 -0.0385  0.0966 -0.4069
 7870TIP3    H147805   5.262   1.651  13.466  0.2084  1.1704 -0.8965
 7870TIP3    H247806   5.228   1.585  13.334 -0.0767 -0.3831 -0.0693
 7871TIP3   OH247807   7.428   2.038  12.287 -0.0754 -0.2083  0.0514
 7871TIP3    H147808   7.399   1.977  12.220  0.1078  0.2863 -0.4848
 7871TIP3    H247809   7.347   2.080  12.319 -0.2544 -1.0813  0.7809
 7872TIP3   OH247810   6.612   3.829  11.370  0.4786  0.1054 -0.4279
 7872TIP3    H147811   6.526   3.788  11.356  0.5402 -0.6139  1.1415
 7872TIP3    H247812   6.598   3.894  11.438  1.2444 -0.3151  0.1544
 7873TIP3   OH247813   4.450   3.495  12.635  0.0553  0.1156  0.3171
 7873TIP3    H147814   4.459   3.404  12.664  1.9659  0.7651  2.0379
 7873TIP3    H247815   4.512   3.503  12.562 -1.4836 -0.3870 -1.0955
 7874TIP3   OH247816   7.132   6.502  11.185  0.8875 -0.0052 -0.1882
 7874TIP3    H147817   7.161   6.593  11.193  1.0550 -0.1145  0.5377
 7874TIP3    H247818   7.105   6.494  11.094  0.9881  0.7385 -0.2963
 7875TIP3   OH247819   4.223   1.435  11.042 -0.4604 -0.1451 -0.0594
 7875TIP3    H147820   4.255   1.456  11.129  1.1183 -0.7987 -0.4368
 7875TIP3    H247821   4.250   1.344  11.028 -0.0751  0.1642 -1.4868
 7876TIP3   OH247822   0.451   4.173  10.155  0.3694  0.0345 -0.1911
 7876TIP3    H147823   0.492   4.246  10.201 -0.2152  0.7161 -0.7244
 7876TIP3    H247824   0.514   4.146  10.089  0.9263 -0.4937  0.5434
 7877TIP3   OH247825   1.439   1.844  12.260  0.4183 -0.2764 -0.1762
 7877TIP3    H147826   1.445   1.801  12.345 -0.9675 -2.9934 -1.3359
 7877TIP3    H247827   1.349   1.878  12.257 -0.2545 -2.0401 -1.2973
 7878TIP3   OH247828   6.314   6.018  11.901  0.1656 -0.2841  0.0262
 7878TIP3    H147829   6.335   6.098  11.852  1.2561 -0.4726  0.1645
 7878TIP3    H247830   6.236   5.984  11.858 -0.7257  1.2064  0.3768
 7879TIP3   OH247831   5.732   5.612  12.680  0.5640 -0.5112 -0.1250
 7879TIP3    H147832   5.791   5.565  12.621  0.3078  0.7624 -1.4413
 7879TIP3    H247833   5.703   5.688  12.630 -0.5726  0.0027  1.2458
 7880TIP3   OH247834   3.832   3.274  11.855 -0.2666  0.2460 -0.3245
 7880TIP3    H147835   3.831   3.324  11.937 -0.8993 -0.4087  0.0846
 7880TIP3    H247836   3.865   3.188  11.880 -2.4246 -0.6389 -0.3117
 7881TIP3   OH247837   6.239   3.781  11.105  0.3159 -0.2713  0.4303
 7881TIP3    H147838   6.151   3.761  11.074 -0.2928  1.0963  1.2250
 7881TIP3    H247839   6.282   3.695  11.111 -1.1111 -1.0062  0.5121
 7882TIP3   OH247840   5.957   4.628  11.655 -0.1039 -0.4849 -0.1533
 7882TIP3    H147841   5.988   4.632  11.746 -0.5367  3.4688  0.0389
 7882TIP3    H247842   6.036   4.633  11.603  0.0909  1.9688  0.2195
 7883TIP3   OH247843   2.505   3.833  12.720  0.0667  0.6649  0.3732
 7883TIP3    H147844   2.416   3.830  12.684  0.5630 -1.2658 -0.8436
 7883TIP3    H247845   2.496   3.799  12.809 -0.4091  0.5404  0.2815
 7884TIP3   OH247846   0.566   1.973  12.204  0.3823  0.0083 -0.2746
 7884TIP3    H147847   0.507   1.980  12.279  0.3907  0.5759 -0.3132
 7884TIP3    H247848   0.509   1.965  12.128  0.3055  1.6662 -0.4274
 7885TIP3   OH247849   6.429   3.058  12.763  0.4783 -0.1881 -0.1321
 7885TIP3    H147850   6.376   2.984  12.733 -0.4779  0.7253 -0.8000
 7885TIP3    H247851   6.449   3.038  12.855 -2.0163 -0.0751  0.5117
 7886TIP3   OH247852   1.963   0.256  12.483  0.4004 -0.8089 -0.0806
 7886TIP3    H147853   1.892   0.313  12.515  0.6525  0.1789 -1.1979
 7886TIP3    H247854   1.922   0.203  12.415  0.4342 -1.1519  0.1667
 7887TIP3   OH247855   5.472   7.506  12.414  0.4926 -0.3314  0.3411
 7887TIP3    H147856   5.407   7.537  12.352 -0.5573  1.4430  2.2225
 7887TIP3    H247857   5.503   7.423  12.377 -1.9345 -0.6258 -1.2150
 7888TIP3   OH247858   4.954   7.498  10.547  0.0871 -0.3533 -0.0287
 7888TIP3    H147859   4.953   7.402  10.544 -0.7166 -0.3777  0.6916
 7888TIP3    H247860   4.891   7.525  10.481 -0.6304 -0.3614  0.6380
 7889TIP3   OH247861   4.293   2.107  12.709  0.4152  0.2015  0.0337
 7889TIP3    H147862   4.341   2.074  12.633  1.2927 -0.7644  0.9749
 7889TIP3    H247863   4.316   2.047  12.780 -0.7863  0.7851  0.9447
 7890TIP3   OH247864   3.111   3.847  13.349 -0.1090 -0.0801 -0.8323
 7890TIP3    H147865   3.144   3.907  13.415 -0.9722  0.4163 -0.8361
 7890TIP3    H247866   3.173   3.774  13.350 -0.1566 -0.1358  0.6055
 7891TIP3   OH247867   4.881   1.974  10.610  0.1322  0.0048  0.0389
 7891TIP3    H147868   4.796   1.942  10.639  0.6984 -1.0316  0.6219
 7891TIP3    H247869   4.942   1.950  10.680  0.8862  0.8451 -0.3028
 7892TIP3   OH247870   4.863   2.439  12.928  0.1690  0.0195 -0.5134
 7892TIP3    H147871   4.830   2.355  12.960 -0.4466  0.6508  0.5685
 7892TIP3    H247872   4.913   2.475  13.002 -0.2750  0.9672 -0.6539
 7893TIP3   OH247873   6.703   7.280  12.265  0.3568  0.1837  0.4246
 7893TIP3    H147874   6.688   7.227  12.343  2.9862  1.0112  1.5853
 7893TIP3    H247875   6.798   7.288  12.258  0.1789  1.3039 -2.0893
 7894TIP3   OH247876   4.388   5.902  11.177  0.3130  0.0486  0.1781
 7894TIP3    H147877   4.295   5.918  11.190  0.2866 -0.3911  0.5654
 7894TIP3    H247878   4.431   5.950  11.247  0.4034  0.4976 -0.1786
 7895TIP3   OH247879   1.601   3.171  12.496  0.2846 -0.3249 -0.7543
 7895TIP3    H147880   1.681   3.223  12.496  1.4127 -1.9480  0.6123
 7895TIP3    H247881   1.565   3.183  12.584 -0.2141 -0.7263 -0.8991
 7896TIP3   OH247882   2.702   2.158  12.092 -0.1633 -0.1001 -0.2818
 7896TIP3    H147883   2.660   2.244  12.093 -0.9670 -0.4390 -1.9622
 7896TIP3    H247884   2.786   2.172  12.050  0.5088  0.1819  1.1214
 7897TIP3   OH247885   5.375   1.377  11.133 -0.4950  0.1311  0.3477
 7897TIP3    H147886   5.417   1.292  11.148 -0.0095  0.1833 -0.6229
 7897TIP3    H247887   5.419   1.437  11.194  1.3497  0.3252 -1.1002
 7898TIP3   OH247888   4.764   0.631  10.882 -0.5155 -0.2029 -0.8768
 7898TIP3    H147889   4.735   0.610  10.971  0.5746  0.2020 -0.4058
 7898TIP3    H247890   4.683   0.647  10.833 -1.1251 -0.3727  0.0552
 7899TIP3   OH247891   1.107   3.610  11.563 -0.3793  0.5328  0.4985
 7899TIP3    H147892   1.143   3.594  11.476 -1.4366 -0.3259  0.1888
 7899TIP3    H247893   1.161   3.557  11.622 -0.9254 -0.5102  0.0805
 7900TIP3   OH247894   7.178   6.219  12.100 -0.1282  0.2429 -0.1108
 7900TIP3    H147895   7.263   6.263  12.106 -0.3140  0.4940  0.7461
 7900TIP3    H247896   7.169   6.198  12.007  0.0589  1.8280 -0.5086
 7901TIP3   OH247897   6.932   3.850  11.058  0.3180 -0.1244  0.5050
 7901TIP3    H147898   6.875   3.916  11.096  0.0649  0.8444 -1.4622
 7901TIP3    H247899   6.942   3.876  10.967  1.4524 -1.9694  0.0517
 7902TIP3   OH247900   6.618   0.830  11.966 -0.0267 -0.6368 -0.1225
 7902TIP3    H147901   6.584   0.816  11.877  0.8347  0.0455 -0.5802
 7902TIP3    H247902   6.713   0.823  11.956  0.0319 -1.3961  0.9137
 7903TIP3   OH247903   2.488   5.458  13.213  0.1087 -0.3121 -0.4764
 7903TIP3    H147904   2.557   5.420  13.159 -1.3866 -1.3652 -1.7294
 7903TIP3    H247905   2.434   5.384  13.240 -1.3152  0.5965 -0.6790
 7904TIP3   OH247906   5.019   1.471  12.633 -0.3636 -0.8738 -0.1938
 7904TIP3    H147907   5.038   1.500  12.544  0.0068  1.3413  0.5512
 7904TIP3    H247908   4.989   1.380  12.622 -0.4548 -0.6358 -2.5593
 7905TIP3   OH247909   7.472   7.131  10.798  0.0623 -0.5722  0.7930
 7905TIP3    H147910   7.378   7.135  10.781 -0.1785  0.2744  2.1509
 7905TIP3    H247911   7.503   7.221  10.786  0.7011 -0.8402  0.3826
 7906TIP3   OH247912   6.709   4.036  11.699 -0.7062  0.3017  0.6134
 7906TIP3    H147913   6.666   3.952  11.681 -2.6905  1.1173  1.3055
 7906TIP3    H247914   6.661   4.072  11.773  0.9599  1.4881  1.1839
 7907TIP3   OH247915   4.424   5.102  17.591  0.0219  0.1952 -0.5120
 7907TIP3    H147916   4.366   5.027  17.574 -1.1721  1.2994 -1.6228
 7907TIP3    H247917   4.366   5.178  17.582  1.7215  1.3754 -2.0586
 7908TIP3   OH247918   3.115   5.537  11.154  0.2048  0.3815  0.1172
 7908TIP3    H147919   3.136   5.533  11.247  1.4075 -0.6093 -0.1681
 7908TIP3    H247920   3.083   5.450  11.132  2.9839 -0.4775 -1.0071
 7909TIP3   OH247921   1.892   3.354  10.826 -0.0053  0.2472 -0.3447
 7909TIP3    H147922   1.826   3.419  10.801 -0.0316 -0.4072 -2.1632
 7909TIP3    H247923   1.861   3.320  10.910 -0.7811  1.5114 -0.0784
 7910TIP3   OH247924   6.004   0.667  11.520  0.1650  0.1346 -0.3642
 7910TIP3    H147925   6.084   0.640  11.474 -0.5425 -0.6130 -1.2104
 7910TIP3    H247926   6.029   0.668  11.612  1.5294  1.3290 -0.7177
 7911TIP3   OH247927   2.461   3.673  11.969 -0.1668 -0.1048 -0.1164
 7911TIP3    H147928   2.515   3.616  11.914 -0.4801  2.2322 -3.0736
 7911TIP3    H247929   2.515   3.750  11.984 -1.9978  1.6340 -1.8720
 7912TIP3   OH247930   2.859   6.405  11.933 -0.5467  0.1805 -0.1258
 7912TIP3    H147931   2.819   6.331  11.886  1.6234 -1.8539  0.9829
 7912TIP3    H247932   2.952   6.383  11.937 -0.2880  1.2900  3.1868
 7913TIP3   OH247933   0.859   5.781  12.942  0.3289  0.0661  0.0073
 7913TIP3    H147934   0.802   5.848  12.904  0.3932  1.0923  1.6352
 7913TIP3    H247935   0.799   5.718  12.982  0.2844 -0.6523 -1.1285
 7914TIP3   OH247936   1.063   4.347  12.537 -0.3165 -0.6966  0.0941
 7914TIP3    H147937   1.128   4.282  12.560 -0.7729 -0.7770  1.2475
 7914TIP3    H247938   0.981   4.298  12.530 -1.1166 -0.0477  3.1695
 7915TIP3   OH247939   0.709   2.493  12.292 -0.5607  0.0908 -0.6351
 7915TIP3    H147940   0.698   2.422  12.355  1.1662  1.2929  1.1056
 7915TIP3    H247941   0.620   2.521  12.271 -1.2119 -1.4891 -0.1218
 7916TIP3   OH247942   3.557   2.899  10.950 -0.2082  0.5678  0.1563
 7916TIP3    H147943   3.631   2.911  11.008 -0.6415 -1.2634  1.1913
 7916TIP3    H247944   3.594   2.861  10.870  0.1257  0.9568  0.1275
 7917TIP3   OH247945   2.761   5.352  13.361  0.0092 -0.9992  0.1615
 7917TIP3    H147946   2.856   5.362  13.364 -0.0497  0.3431 -1.0480
 7917TIP3    H247947   2.740   5.350  13.268 -1.1000 -2.0772  0.4021
 7918TIP3   OH247948   3.086   4.764  13.246 -0.0592  0.1442  0.1319
 7918TIP3    H147949   3.084   4.684  13.194 -0.4863 -0.5322  1.1698
 7918TIP3    H247950   2.994   4.788  13.257  0.0430  0.4586  0.3207
 7919TIP3   OH247951   4.447   5.495  10.584 -0.1129 -0.3278 -0.8565
 7919TIP3    H147952   4.485   5.435  10.520 -0.8233 -0.5063 -1.1133
 7919TIP3    H247953   4.359   5.462  10.599 -0.0452 -0.1266  0.0107
 7920TIP3   OH247954   6.409   4.494  12.173 -0.0594  0.4436 -0.0013
 7920TIP3    H147955   6.455   4.578  12.167 -1.0565  1.1626  1.7604
 7920TIP3    H247956   6.447   4.452  12.250 -2.6120  1.3016  1.8624
 7921TIP3   OH247957   4.800   5.089  10.417 -0.3222 -0.5177  0.0026
 7921TIP3    H147958   4.861   5.146  10.370  2.6401 -2.3970  1.2534
 7921TIP3    H247959   4.795   5.128  10.505 -0.8902 -0.4330 -0.0631
 7922TIP3   OH247960   7.557   1.718  12.142 -0.1700  0.2055 -0.0127
 7922TIP3    H147961   7.500   1.793  12.126 -1.6138 -0.3012  2.2303
 7922TIP3    H247962   7.497   1.644  12.154  1.2239 -1.5363 -2.7230
 7923TIP3   OH247963   1.172   4.149  10.379  0.2770 -0.2275  0.0166
 7923TIP3    H147964   1.155   4.162  10.472 -1.3936  3.0729 -0.6402
 7923TIP3    H247965   1.268   4.147  10.373  0.4317  0.2063  1.7251
 7924TIP3   OH247966   4.561   4.328  10.685  0.1750 -0.9266  0.3058
 7924TIP3    H147967   4.540   4.283  10.602 -0.0587 -1.0178  0.4126
 7924TIP3    H247968   4.653   4.353  10.676  0.4470 -1.8244  0.4192
 7925TIP3   OH247969   3.033   5.979  13.067  0.5157  0.4312  0.7099
 7925TIP3    H147970   3.009   5.982  13.159 -1.5646 -0.5749  0.2718
 7925TIP3    H247971   2.961   6.023  13.022 -0.6385 -2.5762 -0.7050
 7926TIP3   OH247972   5.797   2.611  11.995  0.8082  0.0565 -0.5553
 7926TIP3    H147973   5.803   2.518  12.014  1.7360  0.0532 -0.8309
 7926TIP3    H247974   5.769   2.616  11.904 -0.4078  0.0602 -0.1921
 7927TIP3   OH247975   6.454   0.567  12.651 -1.0736 -0.1857  0.0904
 7927TIP3    H147976   6.394   0.511  12.601 -0.0435 -1.0585 -0.2187
 7927TIP3    H247977   6.536   0.518  12.652 -0.8745  0.1188  2.0976
 7928TIP3   OH247978   2.992   6.284  13.157  0.2642 -0.5538 -0.1520
 7928TIP3    H147979   3.011   6.338  13.080 -0.8845  0.9883  0.5808
 7928TIP3    H247980   2.926   6.222  13.127  0.2632 -0.3585 -0.5582
 7929TIP3   OH247981   7.632   5.884  11.490 -0.6779 -0.3366  0.0390
 7929TIP3    H147982   7.605   5.974  11.469 -0.1595 -0.1975 -0.0607
 7929TIP3    H247983   7.724   5.893  11.515 -0.7645 -0.7735  0.5188
 7930TIP3   OH247984   5.318   7.344  12.082  0.2283  0.0012 -0.5178
 7930TIP3    H147985   5.273   7.427  12.065 -0.4430 -0.2454  0.0042
 7930TIP3    H247986   5.410   7.369  12.093 -0.3400  1.1908  2.8489
 7931TIP3   OH247987   4.295   1.335  12.477  0.0545  0.1467 -0.7700
 7931TIP3    H147988   4.319   1.375  12.561 -1.6528  0.7032 -0.5072
 7931TIP3    H247989   4.292   1.409  12.416  0.5135 -0.1431 -1.1477
 7932TIP3   OH247990   4.358   6.696  10.942 -0.1291  0.6358 -0.1449
 7932TIP3    H147991   4.443   6.652  10.947  0.0557  1.0303  0.2921
 7932TIP3    H247992   4.303   6.649  11.005  0.0252  0.9367  0.2148
 7933TIP3   OH247993   0.508   4.641  12.592  0.3941 -0.1483  0.3023
 7933TIP3    H147994   0.552   4.561  12.563 -0.2478 -0.3696 -0.1022
 7933TIP3    H247995   0.423   4.638  12.548 -0.3628 -0.1653  1.7125
 7934TIP3   OH247996   2.567   4.080  11.829 -0.0915  0.5044  0.3549
 7934TIP3    H147997   2.572   4.056  11.922  1.5871  0.6190  0.3281
 7934TIP3    H247998   2.651   4.122  11.811 -0.4918  0.7124 -1.1660
 7935TIP3   OH247999   5.110   6.138  11.355  0.4331 -0.1343  0.4303
 7935TIP3    H148000   5.168   6.195  11.404  0.8636  1.4457 -1.7767
 7935TIP3    H248001   5.074   6.193  11.285  0.0775 -2.2786 -1.2130
 7936TIP3   OH248002   4.938   0.245  11.486 -0.2109  0.3081  0.1391
 7936TIP3    H148003   4.851   0.284  11.496 -0.6493 -0.9667  1.8235
 7936TIP3    H248004   4.942   0.219  11.394 -1.2546  1.1851 -0.1743
 7937TIP3   OH248005   6.705   6.869  12.415  0.0562  0.0571  0.9448
 7937TIP3    H148006   6.677   6.955  12.386  1.5846  0.5744  0.8838
 7937TIP3    H248007   6.701   6.873  12.510 -2.6616 -0.8332  0.9457
 7938TIP3   OH248008   2.432   4.314  11.771  0.0725  0.5391  0.0916
 7938TIP3    H148009   2.390   4.323  11.857 -0.6653 -2.6038  0.1787
 7938TIP3    H248010   2.487   4.236  11.780  2.9682  2.2874 -1.2420
 7939TIP3   OH248011   1.129   5.121  10.981 -0.0040  0.0673  0.3628
 7939TIP3    H148012   1.149   5.203  11.027  0.1770  0.2741 -0.0821
 7939TIP3    H248013   1.048   5.139  10.934  0.6805  0.4018 -0.7266
 7940TIP3   OH248014   3.562   5.185  11.011 -0.9020 -0.2420 -0.4383
 7940TIP3    H148015   3.477   5.228  11.001 -0.1811  1.0324 -1.2999
 7940TIP3    H248016   3.622   5.237  10.958  0.7489 -0.1634  1.4012
 7941TIP3   OH248017   5.768   3.222  11.140  0.2457  0.6692  0.4650
 7941TIP3    H148018   5.846   3.229  11.194 -0.8154  1.3370  1.9816
 7941TIP3    H248019   5.736   3.133  11.155  0.7342  0.3706 -0.2149
 7942TIP3   OH248020   0.924   7.525  11.103  0.2685  0.1830 -0.0201
 7942TIP3    H148021   0.916   7.553  11.195  0.7397 -0.4175  0.2049
 7942TIP3    H248022   1.013   7.550  11.078 -0.4499  2.1035 -0.9295
 7943TIP3   OH248023   5.432   7.607  11.816  0.1284  0.0984  0.4178
 7943TIP3    H148024   5.448   7.658  11.895 -0.7495 -1.6891  1.8012
 7943TIP3    H248025   5.350   7.562  11.832  0.2268 -0.7842 -1.2880
 7944TIP3   OH248026   4.246   6.082  10.977 -0.3674 -0.3446 -0.4737
 7944TIP3    H148027   4.327   6.033  10.961  0.9797  1.8184 -0.7349
 7944TIP3    H248028   4.181   6.041  10.920  0.3805 -2.4955  0.1544
 7945TIP3   OH248029   1.815   7.101  11.875 -0.0722  0.5568 -0.0324
 7945TIP3    H148030   1.841   7.067  11.790 -0.9805 -0.2888  0.0137
 7945TIP3    H248031   1.770   7.184  11.855 -0.1232  0.4507 -0.3585
 7946TIP3   OH248032   5.293   5.154  10.855  0.4640 -0.3422 -0.2691
 7946TIP3    H148033   5.388   5.159  10.858  0.3727  2.5389 -0.1358
 7946TIP3    H248034   5.263   5.197  10.935 -0.9860 -1.1268 -0.3477
 7947TIP3   OH248035   7.249   7.265  11.282  0.3373 -0.7086 -0.0097
 7947TIP3    H148036   7.256   7.268  11.377  0.4861 -0.6297 -0.0222
 7947TIP3    H248037   7.323   7.317  11.251 -0.2122  0.0017 -0.1513
 7948TIP3   OH248038   7.430   0.332  11.046  0.3231 -0.4251 -0.3882
 7948TIP3    H148039   7.498   0.397  11.067  0.0416  0.2609 -1.4920
 7948TIP3    H248040   7.373   0.377  10.984  1.3336 -2.4168 -2.9563
 7949TIP3   OH248041   5.345   5.728  10.910  1.1157  0.7962  0.6458
 7949TIP3    H148042   5.419   5.681  10.872  0.4174  1.4873 -1.7129
 7949TIP3    H248043   5.363   5.820  10.892  0.1318  1.0493  0.9114
 7950TIP3   OH248044   2.889   7.635  11.987  0.4208  0.6590 -0.1953
 7950TIP3    H148045   2.891   7.622  12.082  0.5414 -0.6902 -0.3706
 7950TIP3    H248046   2.799   7.663  11.969  0.2687  0.4773  0.2639
 7951TIP3   OH248047   2.958   1.011  11.831  0.0246  0.1778 -0.0995
 7951TIP3    H148048   3.050   1.002  11.856 -0.2040  0.8975  1.0852
 7951TIP3    H248049   2.912   0.948  11.886 -0.2918  0.4667 -0.0276
 7952TIP3   OH248050   7.628   5.598  12.183  0.5146 -0.3982 -0.2756
 7952TIP3    H148051   7.623   5.614  12.277  0.5072 -0.4803 -0.2622
 7952TIP3    H248052   7.640   5.684  12.144  2.9753 -0.5449 -0.0257
 7953TIP3   OH248053   3.432   0.998  11.562 -0.2390 -0.2943  0.0907
 7953TIP3    H148054   3.443   0.903  11.557  1.6057 -0.0431 -1.8065
 7953TIP3    H248055   3.438   1.018  11.655 -0.6665 -2.0254  0.5208
 7954TIP3   OH248056   0.114   1.415  11.235 -0.0314  0.5252 -0.1044
 7954TIP3    H148057   0.074   1.491  11.279 -0.6143  0.7717 -1.0265
 7954TIP3    H248058   0.137   1.447  11.148  0.3005 -0.1904 -0.2853
 7955TIP3   OH248059   5.105   5.305  12.620  0.1969 -0.5655  0.3651
 7955TIP3    H148060   5.157   5.353  12.685 -0.0902  1.0063 -0.5243
 7955TIP3    H248061   5.156   5.311  12.539 -0.0508 -1.4142  0.1422
 7956TIP3   OH248062   2.206   4.824  12.299  0.3077 -0.2730 -0.2432
 7956TIP3    H148063   2.138   4.838  12.365 -0.8324 -0.6791 -1.2936
 7956TIP3    H248064   2.230   4.732  12.309  0.3727 -0.2465 -0.1622
 7957TIP3   OH248065   1.942   1.795  12.264 -0.1107  0.4611  0.0867
 7957TIP3    H148066   1.974   1.813  12.176  0.8314 -0.0022  0.3175
 7957TIP3    H248067   1.849   1.778  12.254  0.2482 -0.9892 -1.0105
 7958TIP3   OH248068   5.979   6.749  12.344 -0.0232 -0.4122  0.3600
 7958TIP3    H148069   6.009   6.702  12.421  0.0963 -3.0853 -1.1780
 7958TIP3    H248070   6.049   6.811  12.323  1.1004 -1.4745  0.9305
 7959TIP3   OH248071   1.551   5.115  12.720 -0.1086  0.0968 -0.0674
 7959TIP3    H148072   1.466   5.071  12.711 -0.2225  0.1879  0.4968
 7959TIP3    H248073   1.608   5.069  12.658 -0.3364 -0.5708  0.2032
 7960TIP3   OH248074   3.884   4.144  10.783  0.1431  0.3350 -0.2608
 7960TIP3    H148075   3.855   4.136  10.875 -1.3287  1.0890 -0.6153
 7960TIP3    H248076   3.943   4.219  10.783  0.9720 -0.2943  0.2266
 7961TIP3   OH248077   2.550   6.472  13.260  0.2664  0.3560  0.7748
 7961TIP3    H148078   2.522   6.381  13.272  0.0053  0.3405  0.0969
 7961TIP3    H248079   2.639   6.475  13.294  0.1385 -0.0628  1.1514
 7962TIP3   OH248080   4.407   4.809  12.323 -0.0950  0.1996 -0.2627
 7962TIP3    H148081   4.443   4.882  12.273 -0.6424 -0.2232 -1.3017
 7962TIP3    H248082   4.364   4.850  12.398  0.6438  0.8508 -0.1864
 7963TIP3   OH248083   4.469   7.569  12.375  0.1973 -0.6967  0.3431
 7963TIP3    H148084   4.409   7.625  12.424 -0.0719 -1.0596  0.4313
 7963TIP3    H248085   4.547   7.563  12.432  0.0071 -0.8628  0.5909
 7964TIP3   OH248086   0.293   5.591  12.882 -0.4283  0.0124 -0.5079
 7964TIP3    H148087   0.210   5.630  12.852  0.0030  1.1586 -0.2758
 7964TIP3    H248088   0.320   5.648  12.954 -0.2951 -1.3582  0.5522
 7965TIP3   OH248089   1.146   6.015  11.427 -0.3813  0.2806  0.1511
 7965TIP3    H148090   1.202   5.949  11.386  1.7266  0.6502  2.2133
 7965TIP3    H248091   1.128   5.980  11.514 -1.8064  1.0723  0.2087
 7966TIP3   OH248092   2.981   2.099  12.084 -0.2751 -0.2303  0.5487
 7966TIP3    H148093   2.961   2.009  12.059  1.3021 -0.6164  0.6259
 7966TIP3    H248094   3.059   2.122  12.035  0.2522  0.5534  1.7079
 7967TIP3   OH248095   3.653   0.393  12.509  0.4717  0.2641  0.0424
 7967TIP3    H148096   3.678   0.345  12.431 -0.4593  1.5424 -1.0906
 7967TIP3    H248097   3.617   0.327  12.568 -0.9774 -0.4184 -1.5449
 7968TIP3   OH248098   3.725   5.443  11.591 -0.1025 -0.8127  0.1112
 7968TIP3    H148099   3.815   5.422  11.566 -0.1956 -1.1865  0.0872
 7968TIP3    H248100   3.675   5.364  11.570 -0.3685 -0.7458  0.4863
 7969TIP3   OH248101   2.907   7.655  10.983  0.0687 -0.3485  0.7629
 7969TIP3    H148102   2.823   7.677  10.943  0.2665 -1.1177 -0.0997
 7969TIP3    H248103   2.899   7.563  11.008  0.3928 -0.2192  1.3806
 7970TIP3   OH248104   7.455   5.210  12.731 -0.0056  0.2293 -0.3908
 7970TIP3    H148105   7.384   5.212  12.667 -1.0454  1.7387  0.7357
 7970TIP3    H248106   7.462   5.118  12.756 -0.3685 -0.2025 -1.7983
 7971TIP3   OH248107   7.160   1.535  11.823  0.0086  0.2573 -0.0624
 7971TIP3    H148108   7.126   1.548  11.912  0.1551 -0.2800  0.0727
 7971TIP3    H248109   7.097   1.476  11.782  0.5647 -0.4298  0.0618
 7972TIP3   OH248110   0.627   0.428  13.563 -0.2095  0.5042 -0.2498
 7972TIP3    H148111   0.601   0.342  13.595 -3.7144  0.9463 -1.4785
 7972TIP3    H248112   0.585   0.490  13.623  1.7093  1.4126  0.2242
 7973TIP3   OH248113   5.984   5.008  12.760  0.7339 -0.5658  0.0661
 7973TIP3    H148114   6.053   4.995  12.825 -0.1357  2.0913  1.7109
 7973TIP3    H248115   5.902   5.003  12.810 -0.2319 -2.0320 -1.5370
 7974TIP3   OH248116   4.944   6.227  10.368 -0.5481 -0.2585  0.0161
 7974TIP3    H148117   4.937   6.184  10.453  1.2883  0.1939  0.4351
 7974TIP3    H248118   5.035   6.215  10.342 -1.2405 -1.0364 -2.2734
 7975TIP3   OH248119   5.976   5.663  11.799 -0.1746 -0.7119  0.3082
 7975TIP3    H148120   6.021   5.748  11.798 -0.3795 -0.5540  1.7822
 7975TIP3    H248121   6.046   5.600  11.815  0.0407 -0.8996 -1.2011
 7976TIP3   OH248122   5.362   5.677  12.037 -0.0205  0.3373 -0.0834
 7976TIP3    H148123   5.370   5.648  11.946 -2.0258  0.6162 -0.4006
 7976TIP3    H248124   5.322   5.603  12.082  0.6186  0.3402  0.4908
 7977TIP3   OH248125   6.584   5.357  11.039  0.0004 -0.4622  0.0616
 7977TIP3    H148126   6.542   5.429  11.087 -0.5128 -0.5061 -0.3143
 7977TIP3    H248127   6.529   5.345  10.962  1.7105  0.7123 -1.4108
 7978TIP3   OH248128   4.133   5.583  11.681  0.1707 -0.3673  0.0063
 7978TIP3    H148129   4.218   5.548  11.654  1.3834  0.1842  2.7875
 7978TIP3    H248130   4.154   5.655  11.741 -2.2512 -0.3260  0.9168
 7979TIP3   OH248131   5.554   7.117  11.028 -0.6149  0.0345  0.7146
 7979TIP3    H148132   5.478   7.131  10.972  0.3851  0.7997 -0.4983
 7979TIP3    H248133   5.572   7.203  11.066  2.1707  1.0471 -2.3883
 7980TIP3   OH248134   7.496   0.340  13.223 -0.3633  0.2509 -0.1490
 7980TIP3    H148135   7.415   0.384  13.197 -0.0746  0.5908 -0.5029
 7980TIP3    H248136   7.479   0.307  13.311 -0.1583  2.2089  0.6828
 7981TIP3   OH248137   4.839   7.494  12.992  0.0432 -0.5616 -0.3391
 7981TIP3    H148138   4.804   7.560  13.051 -0.0876 -0.4280 -0.5610
 7981TIP3    H248139   4.805   7.520  12.906  0.4241 -0.6194 -0.5058
 7982TIP3   OH248140   0.982   0.324  11.434  0.3726 -0.2339  0.2315
 7982TIP3    H148141   1.051   0.293  11.376  0.1512 -0.7604  0.2509
 7982TIP3    H248142   1.022   0.321  11.521  1.6973  3.1740 -0.0729
 7983TIP3   OH248143   0.869   1.454  10.703 -0.0684  0.4094 -0.1430
 7983TIP3    H148144   0.809   1.380  10.696  0.0055  0.0485  2.1932
 7983TIP3    H248145   0.943   1.430  10.647 -0.5453 -0.7686 -0.2901
 7984TIP3   OH248146   3.661   2.058  12.126  0.4079 -0.5085  0.1695
 7984TIP3    H148147   3.619   2.144  12.125  0.4846 -0.4752 -0.4443
 7984TIP3    H248148   3.649   2.024  12.038  1.9703 -0.3516 -0.1311
 7985TIP3   OH248149   4.428   0.175  12.118  0.2362  0.0764 -0.1763
 7985TIP3    H148150   4.475   0.092  12.108 -0.0694 -0.0020 -1.0974
 7985TIP3    H248151   4.447   0.204  12.207  2.6722  0.4529 -0.7597
 7986TIP3   OH248152   1.596   1.295  12.587 -0.0534  0.2664  0.8302
 7986TIP3    H148153   1.638   1.294  12.502 -2.0817 -0.5798 -0.2409
 7986TIP3    H248154   1.660   1.335  12.646  2.9800 -2.6423 -0.1859
 7987TIP3   OH248155   2.785   2.661  12.335  0.2261 -0.2822  0.0018
 7987TIP3    H148156   2.782   2.737  12.394  0.7832 -0.3368  0.1076
 7987TIP3    H248157   2.706   2.612  12.355  0.5741 -0.4769  0.9530
 7988TIP3   OH248158   1.160   5.303  13.009  0.1784  0.2313  0.3939
 7988TIP3    H148159   1.116   5.369  13.063  0.0304 -0.2362  0.8406
 7988TIP3    H248160   1.094   5.235  12.995 -0.0855  0.7524 -1.1178
 7989TIP3   OH248161   3.606   3.988  11.707 -0.0365 -0.1886 -0.5433
 7989TIP3    H148162   3.534   4.043  11.677 -1.0730 -1.1570  0.1100
 7989TIP3    H248163   3.653   3.964  11.627  0.4784  1.6660 -0.8345
 7990TIP3   OH248164   0.619   4.135  11.964 -0.1232 -0.1871  0.3273
 7990TIP3    H148165   0.715   4.144  11.965 -0.1673  0.9863 -1.6021
 7990TIP3    H248166   0.590   4.199  11.899 -2.2010 -0.8326  0.5667
 7991TIP3   OH248167   5.505   4.466  11.061  0.0812 -0.0998  0.4050
 7991TIP3    H148168   5.410   4.467  11.069  0.0941 -1.3284  1.0081
 7991TIP3    H248169   5.528   4.553  11.029 -1.0866  0.9042  2.1225
 7992TIP3   OH248170   5.341   5.773  13.163  0.0134  0.3588 -0.3321
 7992TIP3    H148171   5.407   5.803  13.100  0.2943  2.5684  0.9296
 7992TIP3    H248172   5.380   5.791  13.249 -0.6240 -2.0151  0.5271
 7993TIP3   OH248173   7.328   5.652  11.940 -0.0501  0.1856 -0.0091
 7993TIP3    H148174   7.387   5.706  11.887  0.2945 -0.5344 -0.3633
 7993TIP3    H248175   7.335   5.564  11.903 -0.5037 -0.1379  0.6513
 7994TIP3   OH248176   3.494   6.337  12.197  0.0111  0.0400 -0.0148
 7994TIP3    H148177   3.547   6.392  12.139 -0.6030  1.2325  0.5284
 7994TIP3    H248178   3.432   6.397  12.237  2.0111 -0.1974  3.8485
 7995TIP3   OH248179   6.368   6.782  12.302  0.4972 -0.1286 -0.5124
 7995TIP3    H148180   6.421   6.783  12.222  3.0010 -1.3042  0.9783
 7995TIP3    H248181   6.327   6.695  12.302 -1.2193  0.6380 -1.4737
 7996TIP3   OH248182   3.258   0.904  11.327 -0.0940 -0.1614  0.1840
 7996TIP3    H148183   3.166   0.912  11.302  0.2730  0.2653 -1.0830
 7996TIP3    H248184   3.275   0.982  11.381 -1.0293 -1.3578  2.3454
 7997TIP3   OH248185   0.464   6.311  11.555 -0.3191 -0.1892 -0.1867
 7997TIP3    H148186   0.487   6.219  11.541  0.4982 -0.2586  1.3908
 7997TIP3    H248187   0.486   6.354  11.472  2.4720 -0.8564  0.1264
 7998TIP3   OH248188   2.176   0.114  12.749 -0.2294 -0.0997 -0.1105
 7998TIP3    H148189   2.092   0.104  12.793 -0.3265 -0.9681 -0.4648
 7998TIP3    H248190   2.241   0.091  12.816 -0.3167 -0.1252 -0.0351
 7999TIP3   OH248191   2.281   4.554  12.269 -0.4627 -0.5086  0.0123
 7999TIP3    H148192   2.227   4.480  12.299  0.1196 -0.3540  1.5343
 7999TIP3    H248193   2.371   4.523  12.278 -0.2051  0.4090  0.7687
 8000TIP3   OH248194   2.502   7.272  11.663  0.2493 -0.0133 -0.0910
 8000TIP3    H148195   2.588   7.229  11.665 -0.6647 -1.9148 -0.2886
 8000TIP3    H248196   2.519   7.357  11.622  1.6861 -1.2145 -2.1554
 8001TIP3   OH248197   2.234   6.618  11.618 -0.1681 -0.1823 -0.2511
 8001TIP3    H148198   2.217   6.703  11.659 -1.3146 -0.7747  0.5722
 8001TIP3    H248199   2.213   6.554  11.687 -1.0388 -1.1871 -1.4137
 8002TIP3   OH248200   0.144   5.300  11.583  0.3484 -0.5811 -0.1657
 8002TIP3    H148201   0.140   5.235  11.513  2.6755 -1.7884  0.7011
 8002TIP3    H248202   0.078   5.272  11.646 -0.9539 -0.1472 -1.2771
 8003TIP3   OH248203   4.280   6.033  12.944 -0.7409 -0.1511  0.6539
 8003TIP3    H148204   4.222   6.107  12.929  1.2509  1.8107  1.8869
 8003TIP3    H248205   4.360   6.054  12.895  0.1072 -1.1322  1.5408
 8004TIP3   OH248206   5.140   7.011  11.722 -0.2414 -0.2487 -0.4876
 8004TIP3    H148207   5.225   7.024  11.679 -0.4644  1.3334 -0.5272
 8004TIP3    H248208   5.076   7.016  11.650 -0.3536 -2.5058 -0.6185
 8005TIP3   OH248209   0.153   2.776  11.971 -0.6074 -0.0145 -0.0362
 8005TIP3    H148210   0.101   2.721  11.912  0.0238 -1.1614  0.4351
 8005TIP3    H248211   0.171   2.855  11.921 -0.4787 -0.7746 -1.2234
 8006TIP3   OH248212   3.699   3.978  11.206  0.2283  0.1090  0.1601
 8006TIP3    H148213   3.725   4.046  11.143 -0.1652 -1.1287 -1.4105
 8006TIP3    H248214   3.736   3.897  11.171  0.8192 -0.5069  2.0718
 8007TIP3   OH248215   6.904   5.783  12.837 -0.1091 -0.5825 -0.3535
 8007TIP3    H148216   6.918   5.706  12.892  1.1527  0.4824  0.8836
 8007TIP3    H248217   6.821   5.766  12.792 -0.3374 -2.2130  0.6318
 8008TIP3   OH248218   4.120   3.784  12.081  0.2178 -0.1498 -0.0072
 8008TIP3    H148219   4.082   3.870  12.098  0.8421 -0.0635  1.0335
 8008TIP3    H248220   4.167   3.794  11.999 -1.1486  0.0129 -0.7961
 8009TIP3   OH248221   5.794   1.612  12.239  0.3152 -0.6513 -0.0604
 8009TIP3    H148222   5.699   1.624  12.239  0.2807 -0.7659 -1.3167
 8009TIP3    H248223   5.813   1.572  12.154  1.3119 -2.1397  0.8152
 8010TIP3   OH248224   6.160   1.327  13.025 -0.0529 -0.2964  0.6156
 8010TIP3    H148225   6.095   1.272  13.068  0.0902 -0.9985 -0.0394
 8010TIP3    H248226   6.131   1.417  13.043 -1.6951 -0.5822 -0.3843
 8011TIP3   OH248227   4.318   3.673  11.645  0.0484  0.1417  0.1608
 8011TIP3    H148228   4.241   3.626  11.614 -0.1732  1.3300 -1.2426
 8011TIP3    H248229   4.312   3.759  11.603  2.7291 -0.1110 -0.9596
 8012TIP3   OH248230   2.914   0.172  11.367 -0.6562  0.4660 -0.8204
 8012TIP3    H148231   3.004   0.194  11.391 -1.0136  0.6499  0.4040
 8012TIP3    H248232   2.865   0.253  11.381 -1.4427 -0.2581  0.8576
 8013TIP3   OH248233   6.923   5.723  12.529  0.2755  0.0934 -0.3735
 8013TIP3    H148234   6.957   5.686  12.611 -1.3391  1.4969  1.0287
 8013TIP3    H248235   6.986   5.697  12.462  2.6314  0.3566  1.6072
 8014TIP3   OH248236   4.108   2.678  12.464  0.3286 -0.1311  0.3122
 8014TIP3    H148237   4.018   2.706  12.483  0.0104  0.1151 -1.3535
 8014TIP3    H248238   4.102   2.583  12.452  0.2694 -0.1032  0.1163
 8015TIP3   OH248239   4.707   5.949  11.048 -0.0356 -0.0967  0.2225
 8015TIP3    H148240   4.739   5.974  11.135  0.7935 -0.4839  0.0349
 8015TIP3    H248241   4.615   5.927  11.062  0.4689 -1.6877  1.3093
 8016TIP3   OH248242   0.232   7.190  10.937 -0.8432 -0.3813 -0.5434
 8016TIP3    H148243   0.270   7.278  10.938  0.9446 -1.0878 -1.7067
 8016TIP3    H248244   0.200   7.178  10.848  2.4610 -2.2384 -1.6509
 8017TIP3   OH248245   4.409   0.092  11.452 -0.1120  0.3302 -0.0399
 8017TIP3    H148246   4.432   0.049  11.535  0.5760  1.0533  0.1642
 8017TIP3    H248247   4.317   0.116  11.462 -1.1517 -2.7550 -0.9143
 8018TIP3   OH248248   7.243   3.807  10.806 -0.2701 -0.1722  0.4338
 8018TIP3    H148249   7.257   3.728  10.858  1.9926 -0.5184 -0.6009
 8018TIP3    H248250   7.312   3.867  10.834 -1.1447  0.9674  0.2480
 8019TIP3   OH248251   7.442   0.464  12.408  0.6551  0.5170  0.4961
 8019TIP3    H148252   7.469   0.547  12.369 -0.3197  0.3610 -0.5579
 8019TIP3    H248253   7.473   0.398  12.346 -1.8218  0.3165 -0.6804
 8020TIP3   OH248254   2.930   2.265  11.803  0.1997  0.2461 -0.6430
 8020TIP3    H148255   2.972   2.233  11.723  0.0971 -1.5179 -0.0258
 8020TIP3    H248256   2.877   2.192  11.834  0.7492  0.6416  1.3985
 8021TIP3   OH248257   6.419   1.373  12.069 -0.8688  0.3079  0.0515
 8021TIP3    H148258   6.427   1.411  11.982 -0.7884 -0.5871 -0.3349
 8021TIP3    H248259   6.332   1.399  12.098 -1.1356  0.0978 -0.5484
 8022TIP3   OH248260   5.342   0.743  10.984  0.0077 -0.3746  0.3166
 8022TIP3    H148261   5.267   0.776  11.032  0.4803 -0.2591  0.9859
 8022TIP3    H248262   5.312   0.659  10.947 -1.5531  1.1830 -2.2869
 8023TIP3   OH248263   6.739   6.268  10.905  0.2098 -0.4393  0.6547
 8023TIP3    H148264   6.695   6.249  10.823  0.7341  1.1672 -0.0387
 8023TIP3    H248265   6.675   6.244  10.973 -2.4308  3.1021 -0.3011
 8024TIP3   OH248266   1.098   0.052  13.194  0.3400  0.6925  0.3149
 8024TIP3    H148267   1.006   0.040  13.219  0.0202 -0.0508 -1.0959
 8024TIP3    H248268   1.145  -0.013  13.247 -0.1023  0.2926  0.2302
 8025TIP3   OH248269   2.095   5.816  11.471 -0.4094 -0.1242 -0.5843
 8025TIP3    H148270   2.160   5.881  11.497  1.8729 -1.4620 -2.5074
 8025TIP3    H248271   2.090   5.756  11.545 -1.3122  1.2983  0.5442
 8026TIP3   OH248272   7.617   1.387  12.351  0.2592 -0.3425  0.8648
 8026TIP3    H148273   7.640   1.469  12.394 -1.4514  0.4980  0.2477
 8026TIP3    H248274   7.553   1.411  12.284  0.9070 -1.9686 -0.4331
 8027TIP3   OH248275   4.033   0.256  12.178  0.7060  0.6053  0.5274
 8027TIP3    H148276   4.050   0.304  12.259  1.2333  0.8096  0.3039
 8027TIP3    H248277   4.084   0.175  12.188  0.1373  0.2669  0.7335
 8028TIP3   OH248278   0.221   7.458  11.726  0.0741  0.8045 -0.0959
 8028TIP3    H148279   0.223   7.405  11.806  1.1636  0.4180 -0.3708
 8028TIP3    H248280   0.278   7.532  11.744  3.5522 -1.2253 -1.7934
 8029TIP3   OH248281   5.616   7.387  11.712 -0.5111  0.3924  0.3767
 8029TIP3    H148282   5.545   7.352  11.657  0.6095 -0.0889 -0.8288
 8029TIP3    H248283   5.577   7.462  11.756 -2.7780 -1.7911  2.4058
 8030TIP3   OH248284   1.898   2.761  11.404  0.1511  0.9036 -0.6683
 8030TIP3    H148285   1.863   2.842  11.443  0.1113  0.8049 -0.4970
 8030TIP3    H248286   1.861   2.691  11.458 -0.6634  0.7087 -1.4436
 8031TIP3   OH248287   2.098   4.298  10.979 -0.3858  0.3698  0.2624
 8031TIP3    H148288   2.122   4.361  11.047 -0.0329 -0.2672  0.7414
 8031TIP3    H248289   2.168   4.306  10.913 -1.0168  1.3831 -0.3219
 8032TIP3   OH248290   6.944   6.021  12.085  0.0865  0.3388 -0.1232
 8032TIP3    H148291   6.952   6.064  12.170  1.1726 -0.6015  0.2653
 8032TIP3    H248292   7.025   6.042  12.039  0.0108 -0.1135 -0.4728
 8033TIP3   OH248293   4.412   0.095  10.922 -0.3424  0.3545  0.2949
 8033TIP3    H148294   4.436   0.021  10.865 -2.4096 -0.1858  0.0446
 8033TIP3    H248295   4.401   0.055  11.008  1.9932  1.0340  0.9612
 8034TIP3   OH248296   6.247   4.121  11.522  0.3952 -0.3919 -0.1951
 8034TIP3    H148297   6.281   4.084  11.440 -0.5494 -1.8965  0.0505
 8034TIP3    H248298   6.273   4.059  11.589  0.7678  0.6037  0.6020
 8035TIP3   OH248299   2.694   1.038  12.829  0.0870 -0.8108  0.0347
 8035TIP3    H148300   2.636   1.093  12.881 -1.0264 -0.4725 -1.4916
 8035TIP3    H248301   2.768   1.095  12.807  0.3072 -0.8003  0.7881
 8036TIP3   OH248302   4.743   6.269  11.643 -0.1095 -0.1537  0.3617
 8036TIP3    H148303   4.766   6.183  11.607 -0.0801  0.6823 -1.7902
 8036TIP3    H248304   4.650   6.263  11.663 -0.4008 -0.3472 -0.9499
 8037TIP3   OH248305   3.066   4.908  11.159  0.5300 -0.0092  0.4532
 8037TIP3    H148306   3.099   4.837  11.215  1.2845  0.0933  0.1507
 8037TIP3    H248307   3.006   4.957  11.215  0.8858 -0.2109  1.0150
 8038TIP3   OH248308   6.646   0.681  10.980 -0.1803  0.1503 -0.3785
 8038TIP3    H148309   6.599   0.606  10.944 -1.0496  0.8630 -0.7717
 8038TIP3    H248310   6.583   0.724  11.037  1.4435 -1.5292  3.0093
 8039TIP3   OH248311   4.782   2.685  11.849 -0.2964  0.1684 -0.4349
 8039TIP3    H148312   4.843   2.718  11.916 -1.4710  0.8266  0.3434
 8039TIP3    H248313   4.721   2.629  11.898 -1.2379  0.7426 -0.9302
 8040TIP3   OH248314   1.841   7.006  11.612 -0.1680 -0.2997  0.0637
 8040TIP3    H148315   1.909   7.009  11.544 -0.7630  1.3307 -0.5152
 8040TIP3    H248316   1.766   6.964  11.570  0.2210 -1.4439  0.4788
 8041TIP3   OH248317   0.345   1.949  11.085  0.0019 -0.2267 -0.6507
 8041TIP3    H148318   0.435   1.920  11.093 -0.3180 -1.1195 -0.2101
 8041TIP3    H248319   0.346   2.041  11.112  0.6542 -0.4266  0.0126
 8042TIP3   OH248320   7.493   5.155  10.754  0.1528 -0.2994  0.2084
 8042TIP3    H148321   7.428   5.223  10.738 -0.3473 -0.8025  0.0566
 8042TIP3    H248322   7.474   5.088  10.688  0.7852 -0.4774  0.2069
 8043TIP3   OH248323   1.482   4.948  13.146  0.1453  0.4741 -0.2102
 8043TIP3    H148324   1.395   4.986  13.130 -0.7179 -1.1057  0.5599
 8043TIP3    H248325   1.536   5.023  13.174 -1.1980  1.3261  0.1971
 8044TIP3   OH248326   1.812   5.763  12.867  0.4967 -0.4189 -0.2855
 8044TIP3    H148327   1.866   5.796  12.939  0.8683 -1.7183  0.0508
 8044TIP3    H248328   1.752   5.701  12.908  0.8256 -1.3009 -1.1095
 8045TIP3   OH248329   3.777   5.862  11.885  0.8493 -0.2140 -0.2574
 8045TIP3    H148330   3.776   5.954  11.911  1.1002 -0.0530 -0.8050
 8045TIP3    H248331   3.722   5.858  11.807 -1.6414 -1.0618  1.4122
 8046TIP3   OH248332   6.069   5.042  13.222 -0.0736  0.3999  0.4375
 8046TIP3    H148333   6.105   4.961  13.258  0.5452  0.0323 -0.9213
 8046TIP3    H248334   5.994   5.063  13.278  0.4104 -0.5098  1.4622
 8047TIP3   OH248335   6.566   4.846  11.271 -0.2387 -0.5531  0.2643
 8047TIP3    H148336   6.623   4.897  11.213 -0.6317  1.4217  1.5292
 8047TIP3    H248337   6.539   4.771  11.218  3.3440 -1.5278 -0.4856
 8048TIP3   OH248338   4.215   1.651  11.809  0.5209 -0.0910  0.7171
 8048TIP3    H148339   4.235   1.738  11.776 -0.2545 -0.2102 -0.0861
 8048TIP3    H248340   4.295   1.625  11.856  1.1012  0.6667  0.1864
 8049TIP3   OH248341   6.509   2.113  12.918  0.6233  0.6015 -0.0011
 8049TIP3    H148342   6.443   2.161  12.969 -0.2668  0.0015 -0.5523
 8049TIP3    H248343   6.467   2.029  12.899  1.1558  0.6017 -1.2308
 8050TIP3   OH248344   5.316   2.488  12.051  0.7254  0.0555 -0.2061
 8050TIP3    H148345   5.272   2.433  11.987 -0.8936 -0.1421  1.0024
 8050TIP3    H248346   5.302   2.578  12.020 -1.4510  0.0655  0.6078
 8051TIP3   OH248347   5.039   1.722  12.090  0.4646  0.1833  0.4888
 8051TIP3    H148348   5.103   1.770  12.038  2.6829 -0.2701  2.5985
 8051TIP3    H248349   4.960   1.776  12.087  2.5545  3.7277  2.1160
 8052TIP3   OH248350   4.095   4.091  12.532 -0.8674 -0.1645  0.1498
 8052TIP3    H148351   4.000   4.098  12.538 -0.9866 -1.5036  0.1534
 8052TIP3    H248352   4.117   4.017  12.588  0.4876  1.7402  2.3327
 8053TIP3   OH248353   0.403   0.277  12.975  0.4588 -0.3936  0.6825
 8053TIP3    H148354   0.363   0.190  12.982 -0.0440 -0.2493 -0.2874
 8053TIP3    H248355   0.437   0.281  12.885 -0.5646  0.8395  0.3217
 8054TIP3   OH248356   1.541   5.541  10.743  0.7890  0.0138 -0.0124
 8054TIP3    H148357   1.574   5.487  10.815  0.2117 -1.7059 -0.9840
 8054TIP3    H248358   1.569   5.496  10.664 -0.2843  0.7867 -0.8659
 8055TIP3   OH248359   2.388   4.126  10.996 -0.3080 -0.5042 -0.2247
 8055TIP3    H148360   2.349   4.071  10.928  0.3845  0.4178 -1.4168
 8055TIP3    H248361   2.368   4.215  10.969 -0.2441 -0.1229  0.9367
 8056TIP3   OH248362   1.414   0.645  13.140  0.3626  0.1272  0.2863
 8056TIP3    H148363   1.465   0.721  13.169  0.5453 -0.3239  1.1801
 8056TIP3    H248364   1.325   0.664  13.170  0.1627  0.5317 -0.5422
 8057TIP3   OH248365   4.395   1.104  12.118 -0.5366 -0.0565  0.1683
 8057TIP3    H148366   4.415   1.188  12.158 -0.5957  1.0088 -1.8806
 8057TIP3    H248367   4.478   1.072  12.084 -0.6851 -0.3429  0.0656
 8058TIP3   OH248368   6.233   4.723  11.708 -0.1169 -0.2012 -0.0027
 8058TIP3    H148369   6.312   4.677  11.738 -0.1347  0.6016  1.3929
 8058TIP3    H248370   6.218   4.691  11.619  2.2721  0.2699 -0.6287
 8059TIP3   OH248371   2.811   7.587  12.283 -0.0365 -0.1208  0.2852
 8059TIP3    H148372   2.842   7.674  12.310  0.3674  0.3394 -1.5535
 8059TIP3    H248373   2.716   7.595  12.282  0.0025  0.3425  0.0118
 8060TIP3   OH248374   0.195   3.915  11.259  0.1820  0.6942 -0.5368
 8060TIP3    H148375   0.125   3.925  11.195 -1.1280 -0.2545  0.6851
 8060TIP3    H248376   0.163   3.962  11.336  0.3747 -0.7138  0.4240
 8061TIP3   OH248377   6.482   0.837  11.157  0.1942 -0.7283 -0.1014
 8061TIP3    H148378   6.386   0.834  11.152  0.1422  1.4536 -1.8480
 8061TIP3    H248379   6.500   0.894  11.232  0.0674 -0.2105 -0.4547
 8062TIP3   OH248380   3.045   7.487  13.331 -0.0881  0.3654 -0.5629
 8062TIP3    H148381   3.039   7.411  13.273 -1.0646 -1.8876  2.2214
 8062TIP3    H248382   2.962   7.487  13.379  2.0450 -0.5368  3.6193
 8063TIP3   OH248383   6.570   4.127  11.937 -0.0358 -0.1470  0.0169
 8063TIP3    H148384   6.608   4.101  12.020 -0.3230  0.7236  0.4396
 8063TIP3    H248385   6.480   4.153  11.959  0.4294  1.8701 -0.1964
 8064TIP3   OH248386   0.578   7.487  11.054  0.6305 -0.5752  0.2619
 8064TIP3    H148387   0.637   7.556  11.084 -0.1847 -0.5731  1.9732
 8064TIP3    H248388   0.629   7.407  11.062  0.6414 -0.4957  1.0571
 8065TIP3   OH248389   7.379   1.447  12.897 -0.0110 -0.1546 -0.1199
 8065TIP3    H148390   7.374   1.532  12.941 -0.2155 -0.6420  0.8320
 8065TIP3    H248391   7.306   1.397  12.934  0.3581 -0.8839 -0.3558
 8066TIP3   OH248392   0.066   0.076  13.766  0.5004  0.3173  0.0261
 8066TIP3    H148393   0.120   0.139  13.815  0.3115  0.7353 -0.2938
 8066TIP3    H248394  -0.022   0.115  13.766  0.2547 -0.2233  0.3058
 8067TIP3   OH248395   5.175   6.576  12.025  0.4226  0.3617 -0.2428
 8067TIP3    H148396   5.221   6.541  11.949 -2.6487  0.0474 -2.1500
 8067TIP3    H248397   5.166   6.669  12.006  0.0606  0.3707 -0.0325
 8068TIP3   OH248398   3.800   1.282  10.934  0.6046  0.2458 -0.2013
 8068TIP3    H148399   3.836   1.225  11.001  1.0784 -0.2983 -0.8973
 8068TIP3    H248400   3.721   1.320  10.973 -0.1511 -1.4647  0.0236
 8069TIP3   OH248401   6.361   0.709  12.074 -0.4439 -0.2392 -0.3496
 8069TIP3    H148402   6.381   0.715  11.980 -0.8462 -0.3761 -0.4454
 8069TIP3    H248403   6.377   0.798  12.107  0.5580 -0.4011 -0.3693
 8070TIP3   OH248404   4.451   2.546  12.369 -0.3667 -0.3744 -0.1130
 8070TIP3    H148405   4.420   2.505  12.449 -0.0349  0.1458  0.2919
 8070TIP3    H248406   4.491   2.475  12.319  0.9529 -0.4287  0.9448
 8071TIP3   OH248407   0.434   3.148  10.713  0.0485 -0.2580  0.7162
 8071TIP3    H148408   0.341   3.170  10.710  0.1516  0.3793  1.6093
 8071TIP3    H248409   0.441   3.066  10.664 -0.9829 -0.3184  0.6462
 8072TIP3   OH248410   2.230   5.480  10.458 -0.4561 -0.5518 -0.1404
 8072TIP3    H148411   2.144   5.485  10.500 -0.9639  2.8416 -1.2866
 8072TIP3    H248412   2.214   5.441  10.373 -1.4659  2.2103 -1.3453
 8073TIP3   OH248413   3.219   7.413  11.295  0.4438 -0.0430  0.4169
 8073TIP3    H148414   3.290   7.477  11.293  0.7669 -0.3795 -1.9890
 8073TIP3    H248415   3.241   7.351  11.225 -1.8586 -0.5746  0.0926
 8074TIP3   OH248416   1.427   2.612  11.036 -0.7570 -0.4108 -0.0367
 8074TIP3    H148417   1.452   2.520  11.050 -0.1847 -0.1524  0.7438
 8074TIP3    H248418   1.431   2.624  10.942  2.0747 -0.4301 -0.0078
 8075TIP3   OH248419   5.882   0.440  10.960  0.6779 -0.2775  0.4106
 8075TIP3    H148420   5.817   0.402  11.018 -0.3954  0.9121  0.0223
 8075TIP3    H248421   5.835   0.508  10.911  2.1937  0.6381  0.1340
 8076TIP3   OH248422   6.758   6.559  11.215 -0.4986  0.4289 -0.2935
 8076TIP3    H148423   6.813   6.563  11.137  2.5275 -0.7297  1.5764
 8076TIP3    H248424   6.713   6.475  11.208 -0.9250  0.7206 -1.1716
 8077TIP3   OH248425   0.175   1.746  11.240 -0.2719  0.4457  0.0085
 8077TIP3    H148426   0.116   1.759  11.314 -0.4314 -1.1910  0.1967
 8077TIP3    H248427   0.120   1.763  11.163 -0.7692 -0.2112  0.2078
 8078TIP3   OH248428   4.035   2.918  12.701  0.1770  0.3528  0.0880
 8078TIP3    H148429   3.975   2.965  12.643  1.5266  0.8212 -0.9750
 8078TIP3    H248430   4.012   2.949  12.789 -1.8486 -0.3091 -0.1619
 8079TIP3   OH248431   4.545   0.823  11.995 -0.2007  0.6871  0.7882
 8079TIP3    H148432   4.619   0.766  12.017  0.6862  1.5714  0.1614
 8079TIP3    H248433   4.554   0.838  11.901  0.2658  2.7685  1.1189
 8080TIP3   OH248434   4.023   0.922  11.465  0.1580 -0.2719  0.0455
 8080TIP3    H148435   4.037   0.830  11.486 -0.6020 -0.0699  1.5550
 8080TIP3    H248436   4.027   0.967  11.550  0.6807  1.1158 -0.6821
 8081TIP3   OH248437   5.134   5.805  10.493 -0.1843  0.1368  0.2174
 8081TIP3    H148438   5.143   5.817  10.588  1.1366 -0.1801  0.1614
 8081TIP3    H248439   5.178   5.882  10.456 -0.1012 -0.0811 -0.1358
 8082TIP3   OH248440   2.040   6.383  11.927 -0.0339 -0.5296  0.1852
 8082TIP3    H148441   2.108   6.400  11.992 -0.5602  1.3833  0.2754
 8082TIP3    H248442   2.055   6.292  11.901  1.9463 -0.4621  0.9132
 8083TIP3   OH248443   3.042   2.521  13.334  0.6087 -0.6615  0.1381
 8083TIP3    H148444   3.055   2.589  13.400  0.4874 -1.2030  0.7224
 8083TIP3    H248445   3.076   2.560  13.253  0.9538 -0.0757  0.5573
 8084TIP3   OH248446   3.737   2.659  13.304 -0.0183 -0.0215 -0.3868
 8084TIP3    H148447   3.822   2.650  13.263  0.7827  1.3044  0.8781
 8084TIP3    H248448   3.694   2.574  13.290  0.7305 -0.0853 -2.6685
 8085TIP3   OH248449   0.554   3.570  11.542  0.0749 -0.2601  0.0721
 8085TIP3    H148450   0.514   3.567  11.454  0.4872 -0.4463 -0.1113
 8085TIP3    H248451   0.480   3.559  11.602 -0.1453 -0.6768 -0.2673
 8086TIP3   OH248452   5.541   3.674  11.543  0.0772  0.7172 -0.0057
 8086TIP3    H148453   5.520   3.667  11.636  1.6057  2.8423  0.5607
 8086TIP3    H248454   5.493   3.751  11.513  0.4864  0.7005 -0.7096
 8087TIP3   OH248455   3.184   4.202  12.264  0.0014 -0.4115  0.2451
 8087TIP3    H148456   3.272   4.166  12.273 -0.7803 -2.6864 -0.6281
 8087TIP3    H248457   3.179   4.230  12.173 -0.2354 -0.4308  0.2537
 8088TIP3   OH248458   7.583   3.338  11.653  0.3799 -0.2050 -0.7098
 8088TIP3    H148459   7.491   3.362  11.648  0.4774  0.8483  1.6521
 8088TIP3    H248460   7.584   3.244  11.631 -1.3613 -0.4311 -0.0039
 8089TIP3   OH248461   1.974   3.048  12.060 -0.1644 -0.0675  0.0540
 8089TIP3    H148462   1.949   3.095  11.980  2.1022  1.8093  0.3432
 8089TIP3    H248463   2.036   2.982  12.031  1.0068  0.9055  0.2278
 8090TIP3   OH248464   0.638   7.138  12.120  0.0135 -0.3708 -0.0163
 8090TIP3    H148465   0.562   7.174  12.167 -0.2934  0.4830 -1.1375
 8090TIP3    H248466   0.698   7.212  12.111 -0.0383 -0.4523 -1.1679
 8091TIP3   OH248467   1.331   2.311  11.115 -0.2446 -0.2281 -0.2189
 8091TIP3    H148468   1.329   2.347  11.204  0.2836 -0.8857  0.0738
 8091TIP3    H248469   1.424   2.306  11.093 -0.2845 -1.5835 -0.1598
 8092TIP3   OH248470   4.395   4.392  11.920 -0.5452 -0.4674  0.2257
 8092TIP3    H148471   4.419   4.316  11.866  3.2697  1.3581 -1.0754
 8092TIP3    H248472   4.438   4.375  12.004  1.0031  0.4617 -0.3270
 8093TIP3   OH248473   2.404   6.010  12.000 -0.3101  0.1903  0.2606
 8093TIP3    H148474   2.456   5.951  12.054  1.9583  1.8947  0.0688
 8093TIP3    H248475   2.467   6.053  11.943 -2.2573  0.6772 -1.6540
 8094TIP3   OH248476   3.145   3.932  11.345 -0.0081  0.3105 -0.6498
 8094TIP3    H148477   3.098   3.850  11.331  0.3384  0.2525 -1.5235
 8094TIP3    H248478   3.232   3.906  11.373 -0.6991  0.4253  1.8204
 8095TIP3   OH248479   4.804   1.031  11.982 -0.5855  0.3323 -0.5948
 8095TIP3    H148480   4.734   1.095  11.971 -1.3203 -0.6708 -2.0168
 8095TIP3    H248481   4.765   0.947  11.957  0.1558 -0.8381  1.8248
 8096TIP3   OH248482   5.030   3.383  11.452  0.4453 -0.2167  0.6507
 8096TIP3    H148483   5.063   3.463  11.493 -0.2433  0.2525  0.3079
 8096TIP3    H248484   4.937   3.381  11.474  0.1235 -0.1109 -0.6107
 8097TIP3   OH248485   2.846   1.287  11.774  0.0626 -0.0017 -0.3463
 8097TIP3    H148486   2.867   1.259  11.685 -0.5956 -0.2608 -0.4260
 8097TIP3    H248487   2.867   1.211  11.829 -2.3943 -0.9750 -0.6432
 8098TIP3   OH248488   7.166   0.801  11.992 -1.2190 -0.5235 -0.2185
 8098TIP3    H148489   7.258   0.776  11.984 -0.4399  1.9671  0.1096
 8098TIP3    H248490   7.119   0.738  11.937  0.6680 -1.7910 -0.4759
 8099TIP3   OH248491   5.413   6.166  12.038  0.5430  0.1009  0.3829
 8099TIP3    H148492   5.498   6.122  12.044  0.2232 -0.3954  1.4372
 8099TIP3    H248493   5.351   6.096  12.019  0.1754  0.2447  1.0312
 8100TIP3   OH248494   0.268   3.701  11.481 -0.1561 -0.2654 -0.3260
 8100TIP3    H148495   0.185   3.712  11.527 -1.8861 -1.5035 -2.9269
 8100TIP3    H248496   0.266   3.767  11.411  0.2167 -1.4163 -1.4595
 8101TIP3   OH248497   5.909   4.968  10.479 -0.7489  0.5477 -0.3014
 8101TIP3    H148498   5.937   4.918  10.402 -0.6916 -0.3008  0.2545
 8101TIP3    H248499   5.984   4.962  10.539 -1.5510 -0.5621  0.6368
 8102TIP3   OH248500   0.022   6.870  11.688 -0.2196  0.1595 -0.9487
 8102TIP3    H148501   0.062   6.956  11.695  0.1757 -0.1618  3.4771
 8102TIP3    H248502   0.083   6.811  11.733 -0.5319 -2.4983 -3.7023
 8103TIP3   OH248503   0.251   6.442  10.691  0.0002 -0.1674  0.0720
 8103TIP3    H148504   0.217   6.513  10.637  1.0872  0.8309  0.6674
 8103TIP3    H248505   0.234   6.469  10.781  1.5109 -0.0604  0.3518
 8104TIP3   OH248506   2.489   6.716  11.170 -0.2127 -0.1183  0.1587
 8104TIP3    H148507   2.406   6.759  11.149  0.7585  1.6102 -0.2580
 8104TIP3    H248508   2.525   6.690  11.086 -0.2522 -0.7674  0.3337
 8105TIP3   OH248509   2.920   5.884  10.453 -0.0189 -0.1042  0.4767
 8105TIP3    H148510   2.965   5.809  10.493  0.2736 -1.0167 -1.4256
 8105TIP3    H248511   2.887   5.850  10.370  0.6895  2.0269 -0.7567
 8106TIP3   OH248512   7.296   4.702  11.552  0.0611  0.0935 -0.3102
 8106TIP3    H148513   7.383   4.687  11.515 -0.6353 -1.9768 -1.2947
 8106TIP3    H248514   7.305   4.679  11.645  0.5781 -0.0452 -0.3913
 8107TIP3   OH248515   7.488   0.876  12.470  0.8155 -0.2811 -0.0930
 8107TIP3    H148516   7.576   0.913  12.463  0.0007  1.5890 -1.1277
 8107TIP3    H248517   7.431   0.952  12.479 -0.8511 -1.3375 -1.1998
 8108TIP3   OH248518   2.007   0.986  12.167  0.3366 -0.0045  0.2770
 8108TIP3    H148519   1.957   0.909  12.193 -1.1829  1.9036  3.7358
 8108TIP3    H248520   2.083   0.986  12.225  0.9164  0.5154 -0.4658
 8109TIP3   OH248521   0.109   4.998  12.409 -0.5948 -0.4930 -0.1056
 8109TIP3    H148522   0.144   4.938  12.343  0.4955 -0.5372  0.4877
 8109TIP3    H248523   0.024   5.025  12.374  0.6038  0.7411 -2.3261
 8110TIP3   OH248524   1.696   6.290  10.743 -0.7415 -0.2257 -0.4764
 8110TIP3    H148525   1.676   6.204  10.706  0.4206 -1.4555  1.5399
 8110TIP3    H248526   1.638   6.298  10.818  0.0542  0.1445  0.1153
 8111TIP3   OH248527   1.827   2.606  11.649  0.1660 -0.4897 -0.1874
 8111TIP3    H148528   1.897   2.671  11.657 -1.8136  1.6981  0.7262
 8111TIP3    H248529   1.806   2.583  11.740  0.7731 -2.4141 -0.4952
 8112TIP3   OH248530   3.611   1.535  11.222  0.0517  0.1995 -0.0736
 8112TIP3    H148531   3.556   1.525  11.300  0.5057  1.7114  0.4792
 8112TIP3    H248532   3.576   1.473  11.159 -1.5544  0.3099  0.6771
 8113TIP3   OH248533   3.881   3.571  11.725 -0.3147 -0.3794 -0.5132
 8113TIP3    H148534   3.854   3.486  11.760  0.1528  0.2319  1.4740
 8113TIP3    H248535   3.800   3.618  11.709 -0.5546 -0.9365 -0.9739
 8114TIP3   OH248536   2.056   4.030  11.015  0.4881 -0.1400 -0.1108
 8114TIP3    H148537   2.043   4.019  11.109  0.2001  0.3720 -0.0888
 8114TIP3    H248538   2.069   4.124  11.003  0.0154 -0.1385 -0.6416
 8115TIP3   OH248539   3.515   5.977  11.222 -0.1291  0.5621  0.3316
 8115TIP3    H148540   3.598   5.945  11.256  0.5897  0.6907 -1.2383
 8115TIP3    H248541   3.498   6.057  11.271  0.6081  0.4652  0.7460
 8116TIP3   OH248542   6.268   0.315  11.081  0.7761  0.6134  0.0093
 8116TIP3    H148543   6.187   0.294  11.034  0.2545  0.8747  0.7534
 8116TIP3    H248544   6.315   0.232  11.086  0.7118  0.5289 -0.7193
 8117TIP3   OH248545   7.339   1.533  13.794  0.1603  0.0593 -0.6502
 8117TIP3    H148546   7.389   1.570  13.722 -1.5562  0.8748 -1.4943
 8117TIP3    H248547   7.272   1.478  13.752 -1.3060  1.0966  0.2229
 8118TIP3   OH248548   5.529   3.984  11.291 -0.3488 -0.1003 -0.0360
 8118TIP3    H148549   5.550   4.075  11.310  1.2438 -0.4353 -0.0130
 8118TIP3    H248550   5.487   3.986  11.205  0.0344  0.6298 -0.2173
 8119TIP3   OH248551   2.660   5.936  10.736 -0.0107 -0.2531  0.6033
 8119TIP3    H148552   2.566   5.938  10.724 -0.1409  1.3525  1.4824
 8119TIP3    H248553   2.691   5.866  10.679 -1.6032 -0.0474 -0.5724
 8120TIP3   OH248554   6.566   3.635  11.981 -0.2831  0.1537  0.4264
 8120TIP3    H148555   6.568   3.682  12.064  0.4117  1.3149 -0.2105
 8120TIP3    H248556   6.512   3.691  11.924  3.6198  2.3401 -1.4951
 8121TIP3   OH248557   2.105   2.624  11.001  0.5348  0.1736 -0.5758
 8121TIP3    H148558   2.149   2.673  10.931  1.0415  0.6988  0.1000
 8121TIP3    H248559   2.026   2.675  11.020  0.7871  0.4438 -0.2437
 8122TIP3   OH248560   5.476   1.103  18.311  0.2066 -0.2271 -0.3588
 8122TIP3    H148561   5.506   1.161  18.242  0.6592 -1.5903 -1.3645
 8122TIP3    H248562   5.483   1.154  18.392 -2.5651  2.2392 -1.5145
 8123TIP3   OH248563   3.353   6.658  10.751  0.1188 -0.0493  0.8037
 8123TIP3    H148564   3.293   6.635  10.681  0.5934  2.0471 -0.3689
 8123TIP3    H248565   3.299   6.702  10.817  0.0414  0.0318  0.6856
 8124TIP3   OH248566   1.774   0.911  10.861  0.4769 -0.3318  0.0020
 8124TIP3    H148567   1.861   0.938  10.831 -0.6567  1.5607 -1.9162
 8124TIP3    H248568   1.729   0.881  10.781 -0.5966 -1.4408  0.9792
 8125TIP3   OH248569   2.267   7.512  10.428 -0.2678 -0.1036  0.4297
 8125TIP3    H148570   2.351   7.547  10.457 -0.2224 -1.0780  1.5493
 8125TIP3    H248571   2.286   7.468  10.345  0.4241 -0.6929  0.8926
 8126TIP3   OH248572   6.819   4.793  10.629 -0.4302  0.6028  0.1137
 8126TIP3    H148573   6.816   4.708  10.584 -1.7175  0.0121  1.2519
 8126TIP3    H248574   6.893   4.838  10.589  0.5452 -1.2117 -0.2409
 8127TIP3   OH248575   2.164   0.912  11.939  0.2081  0.1741  0.1560
 8127TIP3    H148576   2.119   0.973  11.997  0.2678 -1.8338  2.5076
 8127TIP3    H248577   2.098   0.888  11.874 -0.6589  0.7708  0.7816
 8128TIP3   OH248578   1.066   4.136  10.667 -0.6360  0.2031  0.1125
 8128TIP3    H148579   1.009   4.140  10.744  1.0314 -0.2561  1.4531
 8128TIP3    H248580   1.150   4.104  10.702  0.5814  1.2831 -1.6648
 8129TIP3   OH248581   2.900   1.336  11.015 -0.0990  0.2864 -0.3442
 8129TIP3    H148582   2.831   1.377  11.068 -1.3483  0.4125 -1.9947
 8129TIP3    H248583   2.931   1.263  11.068 -1.3324  0.3849  0.5572
 8130TIP3   OH248584   0.741   7.680  11.932  0.1871 -0.1869 -0.3951
 8130TIP3    H148585   0.806   7.611  11.918  0.4685 -0.1732  0.7273
 8130TIP3    H248586   0.765   7.719  12.016 -0.7726  0.3846 -0.3678
 8131TIP3   OH248587   5.828   6.134  10.503  0.2899  0.3713  0.5250
 8131TIP3    H148588   5.847   6.041  10.493 -0.1959  0.4750 -2.1740
 8131TIP3    H248589   5.912   6.174  10.523  0.6190 -0.5346  1.0159
 8132TIP3   OH248590   5.481   3.002  12.509 -0.1241  0.0404  0.1689
 8132TIP3    H148591   5.410   2.981  12.570  1.3933 -0.8484  1.7113
 8132TIP3    H248592   5.558   2.960  12.546  0.7020 -1.5075 -2.9629
 8133TIP3   OH248593   1.259   0.536  11.157  0.3135 -0.2229  0.2014
 8133TIP3    H148594   1.314   0.602  11.200 -0.7433 -0.7458  2.5110
 8133TIP3    H248595   1.321   0.469  11.128  1.0591 -0.2467  1.7210
 8134TIP3   OH248596   6.393   4.122  18.446  0.1198 -0.1095 -0.3434
 8134TIP3    H148597   6.309   4.087  18.477  1.1558 -2.1915  0.3321
 8134TIP3    H248598   6.374   4.155  18.358 -1.7293  0.9681  0.3993
 8135TIP3   OH248599   4.220   3.243  11.519  0.1726  0.0359  0.1942
 8135TIP3    H148600   4.240   3.150  11.514  0.3574  0.0003  1.2795
 8135TIP3    H248601   4.220   3.263  11.613  1.0739  1.3195 -0.0439
 8136TIP3   OH248602   2.826   2.368  11.544  0.8644  0.4079 -0.4531
 8136TIP3    H148603   2.863   2.370  11.632  0.8855  2.8199 -0.4567
 8136TIP3    H248604   2.814   2.460  11.521 -0.8875 -0.2086 -2.2574
 8137TIP3   OH248605   5.197   6.192  13.359  0.1948 -0.0124  0.4412
 8137TIP3    H148606   5.204   6.215  13.267  0.3151  0.5747  0.5925
 8137TIP3    H248607   5.109   6.223  13.385  0.6198  0.9333  0.8161
 8138TIP3   OH248608   1.783   3.936  10.550 -0.2809  0.4227  0.3044
 8138TIP3    H148609   1.693   3.960  10.571 -0.4482 -1.2998  1.8999
 8138TIP3    H248610   1.835   3.975  10.620  0.2218  1.2474 -0.5042
 8139TIP3   OH248611   4.004   3.873  10.513 -0.1619  0.3903 -0.4382
 8139TIP3    H148612   3.922   3.921  10.523 -0.0980  0.5177 -0.5232
 8139TIP3    H248613   4.017   3.866  10.419 -0.9955 -1.2029 -0.4749
 8140TIP3   OH248614   1.996   6.728  10.690 -0.0356  0.2071  0.4037
 8140TIP3    H148615   1.973   6.636  10.675 -0.6000  0.5554 -1.1419
 8140TIP3    H248616   1.920   6.765  10.734 -0.1356  0.0972  0.3244
 8141TIP3   OH248617   2.908   1.563  12.519 -0.6569  0.2993  0.0783
 8141TIP3    H148618   2.993   1.607  12.507 -0.7729  0.5877  0.3042
 8141TIP3    H248619   2.892   1.568  12.613 -0.6570 -0.2630  0.1121
 8142TIP3   OH248620   3.628   5.481  12.298  0.2308  0.2273 -0.6801
 8142TIP3    H148621   3.650   5.501  12.207  0.9318  0.6567 -0.4279
 8142TIP3    H248622   3.713   5.472  12.341 -0.0560  2.4233  0.4502
 8143TIP3   OH248623   3.650   0.482  10.812  0.1156 -0.1694  0.5398
 8143TIP3    H148624   3.562   0.453  10.788 -0.0009 -1.5018  2.3492
 8143TIP3    H248625   3.652   0.575  10.792 -1.7192 -0.1249  0.4634
 8144TIP3   OH248626   3.816   5.540  12.063 -0.4002 -0.1609  0.1695
 8144TIP3    H148627   3.797   5.626  12.025  2.7157  0.8979  0.7212
 8144TIP3    H248628   3.896   5.512  12.020 -0.6281 -2.2278  0.9759
 8145TIP3   OH248629   0.351   7.653  12.997  0.0108  0.1651  0.0373
 8145TIP3    H148630   0.306   7.579  13.037 -1.0185  0.7257 -0.0239
 8145TIP3    H248631   0.394   7.697  13.070  1.1524 -0.8189 -0.0132
 8146TIP3   OH248632   3.490   4.183  11.274 -0.1767  0.1851 -0.4202
 8146TIP3    H148633   3.428   4.185  11.202 -0.0776 -1.1946 -0.5694
 8146TIP3    H248634   3.531   4.097  11.269  0.1728  0.2316  1.0020
 8147TIP3   OH248635   2.005   3.509  10.540  0.0700 -0.5110  0.0124
 8147TIP3    H148636   1.913   3.522  10.560 -0.5596  0.9381 -3.2909
 8147TIP3    H248637   2.051   3.573  10.595 -1.0205 -0.1824  0.5655
 8148TIP3   OH248638   6.627   5.973  12.346 -0.3155 -0.5520 -0.1096
 8148TIP3    H148639   6.631   5.890  12.393 -0.6406  0.7490  2.3944
 8148TIP3    H248640   6.535   5.985  12.325 -0.4459 -0.3018  0.5796
 8149TIP3   OH248641   1.872   0.470  11.136 -0.4227 -0.0362  0.1806
 8149TIP3    H148642   1.873   0.562  11.111 -1.0129 -0.0691  0.0254
 8149TIP3    H248643   1.953   0.458  11.186  1.3681 -0.2220 -2.5378
 8150TIP3   OH248644   6.583   3.124  11.956 -0.0251 -0.1448 -0.6548
 8150TIP3    H148645   6.675   3.105  11.974 -0.0709 -1.6293 -1.7936
 8150TIP3    H248646   6.534   3.074  12.021 -0.0452  1.8415  0.9369
 8151TIP3   OH248647   6.460   1.830  12.601 -0.1705 -0.5813  0.9542
 8151TIP3    H148648   6.521   1.818  12.674  1.9543  3.3960  0.0967
 8151TIP3    H248649   6.510   1.803  12.523 -0.2745  0.6436  0.4456
 8152TIP3   OH248650   2.615   4.420  11.240  0.1696 -0.1343  0.3833
 8152TIP3    H148651   2.616   4.489  11.306 -0.0375 -0.6098  0.8897
 8152TIP3    H248652   2.689   4.440  11.183  1.9362 -1.1334  2.2298
 8153TIP3   OH248653   2.201   6.360  10.678  0.1234  0.2810  0.2990
 8153TIP3    H148654   2.203   6.430  10.743 -1.0553  1.0675 -0.4505
 8153TIP3    H248655   2.111   6.363  10.643  0.5899 -0.3993 -1.0353
 8154TIP3   OH248656   0.347   6.181  13.087  0.1787  0.6557  0.0641
 8154TIP3    H148657   0.259   6.156  13.060  0.1737  3.0503 -2.7179
 8154TIP3    H248658   0.390   6.099  13.112 -2.4409 -0.7026  0.4110
 8155TIP3   OH248659   5.077   4.059  11.451 -0.3406  0.0878  0.3921
 8155TIP3    H148660   5.130   3.993  11.406 -0.5030  0.6447 -0.6538
 8155TIP3    H248661   4.987   4.026  11.444 -0.6594  1.2635 -1.7596
 8156TIP3   OH248662   5.674   2.650  11.703 -0.3239 -0.3706 -0.1467
 8156TIP3    H148663   5.662   2.745  11.710 -0.4600 -0.4835  1.3243
 8156TIP3    H248664   5.605   2.622  11.642  0.8051  0.6752 -1.9790
 8157TIP3   OH248665   5.159   5.920  13.399  0.4541 -0.0677 -0.6047
 8157TIP3    H148666   5.166   6.015  13.390 -0.3846  0.0375 -0.1578
 8157TIP3    H248667   5.241   5.887  13.362  0.5089  0.7939 -1.2840
 8158TIP3   OH248668   3.507   3.232  11.925  0.0262  0.2146  0.1917
 8158TIP3    H148669   3.470   3.250  12.011  1.3207  1.7014  0.4973
 8158TIP3    H248670   3.542   3.316  11.897 -0.4801 -0.2047 -1.8695
 8159TIP3   OH248671   3.050   2.625  12.261 -0.0628  0.4980 -0.2602
 8159TIP3    H148672   3.075   2.718  12.260  0.5637  0.4547  2.8234
 8159TIP3    H248673   2.964   2.624  12.302 -0.6605 -0.2323 -1.4779
 8160TIP3   OH248674   2.248   2.842  10.523 -0.1463  0.0526 -0.0454
 8160TIP3    H148675   2.188   2.890  10.466 -0.1809  0.0549 -0.0070
 8160TIP3    H248676   2.200   2.762  10.546  0.8548 -1.2523 -2.1610
 8161TIP3   OH248677   4.564   7.249  11.836  0.5769  0.3375 -0.3218
 8161TIP3    H148678   4.652   7.214  11.823  1.6865  3.4718 -2.3675
 8161TIP3    H248679   4.508   7.193  11.783  1.0276 -2.3649  1.8422
 8162TIP3   OH248680   2.823   3.907  12.935 -0.0232 -0.2730  0.2328
 8162TIP3    H148681   2.738   3.894  12.892  0.9028 -1.1324 -1.4644
 8162TIP3    H248682   2.833   4.002  12.941 -0.7440 -0.1523 -0.3354
 8163TIP3   OH248683   6.652   6.782  12.691 -0.7570  0.2710 -0.2924
 8163TIP3    H148684   6.729   6.730  12.712 -1.7061 -1.5336 -1.0921
 8163TIP3    H248685   6.672   6.869  12.726  1.0820 -0.4788  0.6619
 8164TIP3   OH248686   4.478   1.371  11.457  0.5550  0.0299 -0.1365
 8164TIP3    H148687   4.449   1.439  11.397  0.6086 -0.9263 -1.2974
 8164TIP3    H248688   4.505   1.417  11.536 -1.7949  1.1518  0.0710
 8165TIP3   OH248689   4.500   3.219  12.628 -0.3246  0.2673  0.0852
 8165TIP3    H148690   4.434   3.197  12.694 -0.1790 -1.5801 -0.3126
 8165TIP3    H248691   4.477   3.164  12.553  1.1198  0.2743 -0.3914
 8166TIP3   OH248692   2.740   1.714  12.771  0.4380  0.1332  0.3389
 8166TIP3    H148693   2.647   1.693  12.778  0.1362  0.7006 -1.3829
 8166TIP3    H248694   2.784   1.630  12.782 -0.3212 -0.2608  0.4760
 8167TIP3   OH248695   4.952   3.966  11.131 -0.1130 -0.5617  0.4547
 8167TIP3    H148696   4.917   3.888  11.090  0.6427  0.9847 -3.6591
 8167TIP3    H248697   5.034   3.938  11.171 -1.2157 -2.3252  1.5679
 8168TIP3   OH248698   0.953   5.750  12.680  0.1541 -0.2114 -0.1524
 8168TIP3    H148699   0.925   5.755  12.771  0.7221  1.0449 -0.0221
 8168TIP3    H248700   0.876   5.716  12.633 -0.0267 -1.1977  0.8252
 8169TIP3   OH248701   1.208   1.172  10.936  0.2818 -0.1505  0.5804
 8169TIP3    H148702   1.173   1.094  10.893 -0.7608 -0.2257  1.5503
 8169TIP3    H248703   1.299   1.150  10.955 -0.1593 -1.3696  1.3797
 8170TIP3   OH248704   4.892   7.152  11.876 -0.3691  0.4526 -0.1750
 8170TIP3    H148705   4.916   7.103  11.797  0.9709 -0.1612  0.5818
 8170TIP3    H248706   4.843   7.090  11.929 -2.4461  1.2465 -1.0306
 8171TIP3   OH248707   2.115   4.833  10.657  0.1373 -0.4659 -0.0580
 8171TIP3    H148708   2.080   4.915  10.621 -0.9523 -1.5398 -1.6233
 8171TIP3    H248709   2.208   4.849  10.666  0.0512  0.7533 -0.9781
 8172TIP3   OH248710   1.497   3.053  10.827 -0.3230 -0.1375 -0.1870
 8172TIP3    H148711   1.519   3.132  10.778  1.5419  0.5986  1.6814
 8172TIP3    H248712   1.575   2.998  10.822 -0.6075 -0.6567  0.7906
 8173TIP3   OH248713   0.539   5.429  10.712 -0.2460 -0.1096  0.0764
 8173TIP3    H148714   0.634   5.431  10.724 -0.3450  1.9451  0.9493
 8173TIP3    H248715   0.504   5.469  10.791 -1.7352  0.8261 -1.0055
 8174TIP3   OH248716   5.437   5.765  11.239  0.1455  0.3576 -0.1657
 8174TIP3    H148717   5.397   5.748  11.153 -0.9392 -1.3850  0.6379
 8174TIP3    H248718   5.364   5.767  11.300  1.1408 -1.7593  1.1888
 8175TIP3   OH248719   6.610   1.985  10.961  0.1771  0.0548 -0.2322
 8175TIP3    H148720   6.620   1.944  11.047 -1.6542  0.0193  0.0064
 8175TIP3    H248721   6.558   1.922  10.911 -1.8508  1.5957 -0.1804
 8176TIP3   OH248722   1.116   0.391  11.709 -0.0274  0.3891 -0.6140
 8176TIP3    H148723   1.184   0.351  11.655 -1.3731  0.1867 -2.2572
 8176TIP3    H248724   1.057   0.319  11.732 -0.5267  0.8134 -0.5326
 8177TIP3   OH248725   2.167   6.965  12.213 -0.3237 -0.7489 -0.1723
 8177TIP3    H148726   2.196   6.887  12.166 -0.0298 -0.2700 -0.8012
 8177TIP3    H248727   2.082   6.940  12.250  0.6874 -2.0537  1.4069
 8178TIP3   OH248728   6.682   0.711  12.990 -0.5177 -0.4256 -0.0106
 8178TIP3    H148729   6.628   0.634  12.976  1.4250 -1.6477 -1.3453
 8178TIP3    H248730   6.622   0.777  13.024 -2.3873 -2.3025  0.5552
 8179TIP3   OH248731   7.654   7.018  13.351  0.4348 -0.5267  0.7366
 8179TIP3    H148732   7.690   7.028  13.440  0.3727 -0.0864  0.7134
 8179TIP3    H248733   7.609   6.933  13.353 -0.9376  0.1994  1.5991
 8180TIP3   OH248734   2.516   6.343  11.590  0.5572  0.3884 -0.0076
 8180TIP3    H148735   2.449   6.327  11.656  1.0675  0.1834  0.4664
 8180TIP3    H248736   2.556   6.258  11.574 -0.6049  0.1172 -1.7549
 8181TIP3   OH248737   1.017   4.085  12.732  1.0108 -0.3117  0.2515
 8181TIP3    H148738   1.073   4.076  12.655  3.2248 -2.6225  1.9806
 8181TIP3    H248739   1.008   3.996  12.767 -0.7363  0.5069  2.1265
 8182TIP3   OH248740   6.418   2.363  11.510  0.1063 -0.4482 -0.3074
 8182TIP3    H148741   6.338   2.393  11.553  0.9483 -0.3799  1.2548
 8182TIP3    H248742   6.453   2.295  11.567  1.6020  0.0999 -0.5137
 8183TIP3   OH248743   4.936   6.443  11.527 -0.5615  0.3163 -0.1257
 8183TIP3    H148744   4.856   6.402  11.562  0.0044  0.5771  1.5931
 8183TIP3    H248745   4.968   6.381  11.462 -2.2485  0.2972 -0.9902
 8184TIP3   OH248746   5.611   7.268  12.370 -0.5216  0.2548  0.3279
 8184TIP3    H148747   5.538   7.218  12.333 -1.3606 -0.0575  2.2763
 8184TIP3    H248748   5.678   7.202  12.388 -0.2735  0.3469 -0.2482
 8185TIP3   OH248749   0.698   1.690  12.893 -1.2202  0.5438 -0.2526
 8185TIP3    H148750   0.747   1.772  12.904 -0.4111  0.1158 -0.5452
 8185TIP3    H248751   0.707   1.645  12.977  0.9714 -0.6074 -1.0040
 8186TIP3   OH248752   6.078   1.231  12.512  0.2878  0.0298 -0.2717
 8186TIP3    H148753   6.161   1.265  12.477  0.2819  0.0779 -0.2384
 8186TIP3    H248754   6.064   1.280  12.593  0.6558 -0.5569  0.1603
 8187TIP3   OH248755   1.531   5.937  11.394  0.0807  0.2587 -0.2285
 8187TIP3    H148756   1.610   5.898  11.355 -0.9492 -0.8294 -1.2769
 8187TIP3    H248757   1.525   5.897  11.481 -0.0168 -0.6293 -0.6385
 8188TIP3   OH248758   6.939   2.616  11.603 -0.3441  0.3793  0.3066
 8188TIP3    H148759   6.920   2.529  11.638 -0.9516  1.0446  1.7343
 8188TIP3    H248760   6.857   2.646  11.566 -0.2400  0.4993  0.1711
 8189TIP3   OH248761   4.405   1.952  10.890 -0.5176 -0.3424 -0.3420
 8189TIP3    H148762   4.459   1.876  10.913  0.6649  0.0125 -1.8272
 8189TIP3    H248763   4.467   2.022  10.874 -1.3313 -0.0721 -2.6784
 8190TIP3   OH248764   6.825   7.026  12.007 -0.2270  0.0763 -0.4907
 8190TIP3    H148765   6.882   7.028  12.084  0.5995  2.5565 -1.1063
 8190TIP3    H248766   6.738   7.048  12.041 -0.4150 -1.4278  0.0883
 8191TIP3   OH248767   0.824   2.082  10.655 -0.1012 -0.0966  0.1695
 8191TIP3    H148768   0.802   2.029  10.578  1.2926 -1.1989  0.4717
 8191TIP3    H248769   0.918   2.068  10.667  0.2388  2.1680  0.5270
 8192TIP3   OH248770   4.502   0.937  12.525  0.1374  0.1206 -0.2521
 8192TIP3    H148771   4.501   0.911  12.433 -0.8464  0.1888 -0.2723
 8192TIP3    H248772   4.581   0.991  12.534 -0.4995  1.3269 -1.4159
 8193TIP3   OH248773   3.567   1.158  13.225 -0.0171 -0.1388  0.2514
 8193TIP3    H148774   3.611   1.105  13.292 -0.3254 -0.3346  0.2979
 8193TIP3    H248775   3.512   1.096  13.178 -0.8442  0.2482  0.6948
 8194TIP3   OH248776   5.713   4.299  11.694 -0.2653  0.6036 -0.0073
 8194TIP3    H148777   5.805   4.296  11.719  0.1313  1.1860 -1.2749
 8194TIP3    H248778   5.680   4.210  11.709  1.0079 -0.1267 -1.2810
 8195TIP3   OH248779   0.099   4.948  10.745 -0.1610 -0.4330 -0.1024
 8195TIP3    H148780   0.133   4.887  10.811  0.2481  0.3957  0.4690
 8195TIP3    H248781   0.005   4.934  10.747 -0.0665 -1.1122 -0.0402
 8196TIP3   OH248782   0.139   7.435  12.899 -0.5004  0.0042 -0.6247
 8196TIP3    H148783   0.227   7.457  12.868 -0.1963 -1.1697 -0.6260
 8196TIP3    H248784   0.154   7.387  12.980 -1.2674  2.5899  1.1796
 8197TIP3   OH248785   0.233   7.635  10.807 -0.1809  0.3081 -0.1492
 8197TIP3    H148786   0.225   7.603  10.717 -0.4716 -2.1836  0.6831
 8197TIP3    H248787   0.270   7.562  10.856  0.7385  1.8727  1.6376
 8198TIP3   OH248788   0.784   4.614  10.621  0.4584  0.3907 -0.1039
 8198TIP3    H148789   0.799   4.523  10.593 -1.3510 -0.0719  0.2957
 8198TIP3    H248790   0.872   4.650  10.632  1.2236 -1.1246 -0.8475
 8199TIP3   OH248791   6.263   1.733  12.256 -0.9614  0.9115  0.6427
 8199TIP3    H148792   6.176   1.755  12.288 -1.3227 -0.6455  0.8125
 8199TIP3    H248793   6.256   1.641  12.230  0.3655  1.0447 -0.2870
 8200TIP3   OH248794   4.048   5.436  12.847 -0.6783 -0.2170 -0.2676
 8200TIP3    H148795   4.107   5.471  12.914 -1.3153  2.1216 -0.8631
 8200TIP3    H248796   3.990   5.377  12.895 -0.8878  1.1171  1.2067
 8201TIP3   OH248797   0.637   2.246  11.079 -0.0406  0.2189 -0.1424
 8201TIP3    H148798   0.703   2.315  11.078 -0.1039  0.3120  0.9871
 8201TIP3    H248799   0.580   2.266  11.005 -0.7681  2.0995  0.8465
 8202TIP3   OH248800   1.811   3.632  12.483 -0.5716  0.0355  0.4958
 8202TIP3    H148801   1.862   3.647  12.404 -1.0001 -0.7865  0.0523
 8202TIP3    H248802   1.792   3.720  12.517 -0.0395  0.3784 -0.0806
 8203TIP3   OH248803   2.034   2.106  11.212 -0.4778  0.1120  0.3168
 8203TIP3    H148804   2.042   2.194  11.176  0.7200 -0.2714 -0.4427
 8203TIP3    H248805   2.052   2.116  11.306  0.0458  0.6346  0.1672
 8204TIP3   OH248806   4.800   1.424  12.364 -0.4051  0.1929  0.3477
 8204TIP3    H148807   4.723   1.381  12.402 -1.6821 -0.3794 -2.6387
 8204TIP3    H248808   4.872   1.365  12.385 -0.7482  0.5478  2.8840
 8205TIP3   OH248809   4.121   4.680  11.271  0.1622  0.0100  0.4631
 8205TIP3    H148810   4.072   4.635  11.202  0.4800  1.3577 -0.6998
 8205TIP3    H248811   4.186   4.617  11.301  0.6974 -0.2696 -1.2179
 8206TIP3   OH248812   2.826   3.307  10.996 -0.5218 -0.2065 -0.2984
 8206TIP3    H148813   2.771   3.386  10.997 -1.1855 -0.6465 -1.0633
 8206TIP3    H248814   2.882   3.319  10.919  1.4725  0.8832  1.2102
 8207TIP3   OH248815   0.932   6.428  12.284  0.2043 -0.1042  0.0700
 8207TIP3    H148816   0.931   6.335  12.260  0.9556 -0.1423  0.1621
 8207TIP3    H248817   0.850   6.440  12.333  1.0987 -1.2440  1.9704
 8208TIP3   OH248818   2.059   5.931  12.068 -0.0994 -0.3515  0.1867
 8208TIP3    H148819   2.154   5.937  12.080 -0.2133 -1.9788  2.6136
 8208TIP3    H248820   2.044   5.841  12.039 -0.9137 -0.0317 -0.4376
 8209TIP3   OH248821   3.124   2.510  11.593 -0.6972 -0.3947  0.4522
 8209TIP3    H148822   3.140   2.504  11.498  3.1933  1.0157  0.8254
 8209TIP3    H248823   3.139   2.421  11.625 -1.5214 -0.7722 -0.1908
 8210TIP3   OH248824   5.272   6.684  11.640  0.2925 -0.7351 -0.4600
 8210TIP3    H148825   5.328   6.711  11.713 -1.1690 -1.6923  1.0891
 8210TIP3    H248826   5.221   6.611  11.675 -2.9113  0.8911 -1.2812
 8211TIP3   OH248827   6.667   6.168  10.669 -0.3238  0.0664 -0.1462
 8211TIP3    H148828   6.670   6.086  10.718 -0.9348 -0.6389 -1.2492
 8211TIP3    H248829   6.735   6.159  10.603  1.8682  1.8212  1.7133
 8212TIP3   OH248830   1.333   5.674  11.843  0.1282 -0.2638 -0.3720
 8212TIP3    H148831   1.257   5.625  11.813  0.2093 -0.7534  0.1983
 8212TIP3    H248832   1.299   5.760  11.865  0.0701  0.1041 -1.8439
 8213TIP3   OH248833   1.062   1.008  13.239  0.4084 -0.5394  0.1220
 8213TIP3    H148834   1.128   1.076  13.242 -0.0788  0.0828 -1.9143
 8213TIP3    H248835   1.111   0.926  13.246  1.2895 -0.0469 -0.1955
 8214TIP3   OH248836   4.071   6.954  12.800 -0.0405 -0.2425 -0.4007
 8214TIP3    H148837   4.054   6.927  12.891 -1.5070  0.4015 -0.4565
 8214TIP3    H248838   4.160   6.924  12.783  0.3312 -0.2388  1.3039
 8215TIP3   OH248839   1.947   6.739  12.719  0.0975  0.4180  0.0315
 8215TIP3    H148840   1.895   6.693  12.785  2.7878 -0.5183  1.6566
 8215TIP3    H248841   2.030   6.690  12.716  0.5487  1.1567 -3.2052
 8216TIP3   OH248842   2.299   4.331  12.009 -0.2070  0.5697 -0.0448
 8216TIP3    H148843   2.374   4.338  12.068 -0.2079  1.5795 -0.1454
 8216TIP3    H248844   2.267   4.421  12.000 -1.1952  0.2106 -0.3105
 8217TIP3   OH248845   7.679   3.009  11.860 -0.2129 -0.1890  0.2419
 8217TIP3    H148846   7.643   3.081  11.912  0.6910 -0.3003  1.0314
 8217TIP3    H248847   7.644   3.024  11.772  0.3731  1.5252  0.2570
 8218TIP3   OH248848   3.272   1.682  11.344  0.7882  0.0841 -0.7470
 8218TIP3    H148849   3.325   1.606  11.368 -1.8234 -1.1024  1.9354
 8218TIP3    H248850   3.245   1.665  11.254 -0.8992 -3.0702  0.1925
 8219TIP3   OH248851   6.272   1.664  11.222 -0.4529 -0.4970  0.1681
 8219TIP3    H148852   6.316   1.670  11.307 -1.6142  0.1561  0.7529
 8219TIP3    H248853   6.180   1.683  11.242 -0.7511 -0.4100 -1.2251
 8220TIP3   OH248854   2.793   0.601  11.960  0.3530  0.3507 -0.2636
 8220TIP3    H148855   2.763   0.649  11.882  0.8664  1.9310  0.4727
 8220TIP3    H248856   2.886   0.620  11.965  0.9792 -2.2131 -0.9264
 8221TIP3   OH248857   4.338   3.306  11.987 -0.0018  0.5819  0.0955
 8221TIP3    H148858   4.281   3.271  12.056 -1.0187 -1.1934 -1.5710
 8221TIP3    H248859   4.417   3.333  12.034 -0.9300  0.1158  2.0558
 8222TIP3   OH248860   4.567   4.931  12.679  0.1315 -0.1194 -0.3475
 8222TIP3    H148861   4.574   4.881  12.597 -2.3422  0.2556 -0.8507
 8222TIP3    H248862   4.594   5.019  12.656 -0.9001  0.0701 -0.8825
 8223TIP3   OH248863   6.670   1.337  11.940  0.6609  0.3661  0.3610
 8223TIP3    H148864   6.598   1.349  12.001  1.0755  2.0885  0.5669
 8223TIP3    H248865   6.664   1.412  11.881  2.3096  0.5833  0.4244
 8224TIP3   OH248866   2.158   0.241  12.204 -0.1372  0.1729 -0.2808
 8224TIP3    H148867   2.112   0.160  12.183  2.1483 -1.6128  1.0784
 8224TIP3    H248868   2.091   0.297  12.244 -1.7416 -1.0777 -1.0830
 8225TIP3   OH248869   6.890   3.170  11.282  0.1627 -0.0751 -0.1822
 8225TIP3    H148870   6.932   3.250  11.314  0.5250 -0.0563 -0.6913
 8225TIP3    H248871   6.963   3.114  11.255 -0.1368  0.4292 -2.1910
 8226TIP3   OH248872   5.561   4.779  11.000 -0.2129 -0.0501 -0.3154
 8226TIP3    H148873   5.646   4.763  10.960  0.2485 -0.8185  0.9007
 8226TIP3    H248874   5.570   4.864  11.042  0.4009 -0.6673  0.8569
 8227TIP3   OH248875   3.783   7.606  10.740  0.9877  0.4012  0.2953
 8227TIP3    H148876   3.766   7.696  10.711 -0.3244 -0.2237 -0.9859
 8227TIP3    H248877   3.706   7.557  10.712  0.2511 -0.5975  3.6367
 8228TIP3   OH248878   1.971   2.099  10.760  0.3137 -0.6209  0.7596
 8228TIP3    H148879   1.931   2.045  10.691 -0.5406  0.1164  0.6585
 8228TIP3    H248880   2.063   2.071  10.762  0.4733 -0.3404 -0.9963
 8229TIP3   OH248881   3.251   6.026  10.463  0.3608  0.4140 -0.4517
 8229TIP3    H148882   3.194   6.024  10.386 -0.7578  1.5326  0.3056
 8229TIP3    H248883   3.191   6.023  10.537  1.2352  2.1727  0.3799
 8230TIP3   OH248884   2.426   3.138  11.940 -0.3118  0.1885 -0.8763
 8230TIP3    H148885   2.386   3.167  11.858  0.0953  2.1862 -0.4239
 8230TIP3    H248886   2.407   3.208  12.002 -2.8354 -2.3796  1.5578
 8231TIP3   OH248887   1.465   3.772  10.821 -0.4059  0.1335 -0.1809
 8231TIP3    H148888   1.407   3.799  10.893 -0.6660  0.8647 -0.6601
 8231TIP3    H248889   1.544   3.825  10.834  0.7580 -1.8271  1.2811
 8232TIP3   OH248890   3.462   0.255  11.836  0.0010  0.1729 -0.2222
 8232TIP3    H148891   3.400   0.192  11.800 -0.2351 -0.1758  0.7543
 8232TIP3    H248892   3.413   0.337  11.839 -1.1353 -0.4898  2.2993
 8233TIP3   OH248893   1.404   7.320  11.044 -0.3103  0.0005  0.4278
 8233TIP3    H148894   1.378   7.336  11.135 -0.9511  1.2350  0.0580
 8233TIP3    H248895   1.321   7.306  10.998  0.0273 -0.9197  0.0733
 8234TIP3   OH248896   5.403   0.532  12.161  0.0745 -0.0561 -0.4472
 8234TIP3    H148897   5.381   0.443  12.186 -1.5477  0.5661  0.4470
 8234TIP3    H248898   5.322   0.568  12.124  0.2757  1.4724  0.4993
 8235TIP3   OH248899   7.507   4.423  10.675 -0.4368 -0.1306  0.0466
 8235TIP3    H148900   7.572   4.375  10.727 -0.5881 -0.9638 -0.5173
 8235TIP3    H248901   7.559   4.483  10.622 -0.2886  0.8477  1.2529
 8236TIP3   OH248902   6.593   4.473  10.995 -0.1251 -0.4519 -0.5571
 8236TIP3    H148903   6.521   4.426  10.953  0.0519 -2.4190  1.1927
 8236TIP3    H248904   6.612   4.422  11.074  1.2517  1.6534  0.5585
 8237TIP3   OH248905   5.849   4.992  13.044  0.1187  0.2113  0.6053
 8237TIP3    H148906   5.941   4.966  13.052  0.6095  2.0567  1.4562
 8237TIP3    H248907   5.823   5.019  13.132 -1.1989 -0.0685  0.3321
 8238TIP3   OH248908   1.436   5.538  12.579  0.4204  0.3038 -0.0738
 8238TIP3    H148909   1.362   5.573  12.627 -0.3628 -1.1569 -0.1662
 8238TIP3    H248910   1.432   5.443  12.593  1.1336  0.0013 -1.6572
 8239TIP3   OH248911   0.008   5.483  11.085 -0.0357 -0.3556 -0.2430
 8239TIP3    H148912   0.002   5.537  11.164 -1.1001 -1.1917  0.2726
 8239TIP3    H248913  -0.039   5.532  11.018 -2.4054 -1.3208  0.6367
 8240TIP3   OH248914   7.049   5.216  12.049  0.0293 -0.2448 -0.4891
 8240TIP3    H148915   6.986   5.203  12.120  1.1538 -2.0703  0.2551
 8240TIP3    H248916   7.052   5.310  12.036 -2.0322 -0.0288  0.1768
 8241TIP3   OH248917   7.277   3.966  11.263 -0.9189  0.1311 -0.6118
 8241TIP3    H148918   7.210   4.019  11.220 -1.4318  0.7501  0.9001
 8241TIP3    H248919   7.232   3.927  11.338  0.4803  0.8220  0.6209
 8242TIP3   OH248920   6.225   5.546  10.865 -0.3995  0.2244 -0.1850
 8242TIP3    H148921   6.209   5.609  10.935 -0.4654  0.3727 -0.3334
 8242TIP3    H248922   6.276   5.595  10.800  0.8848 -0.2902  0.3846
 8243TIP3   OH248923   0.857   1.479  13.342  0.1139 -0.1525  0.3129
 8243TIP3    H148924   0.785   1.479  13.405 -0.2011  2.6234  0.0791
 8243TIP3    H248925   0.925   1.425  13.382 -2.0249 -2.8618  0.5360
 8244TIP3   OH248926   3.839   1.922  13.402 -0.4920  0.5959  0.2378
 8244TIP3    H148927   3.843   1.934  13.307 -1.5490 -2.6585 -0.3464
 8244TIP3    H248928   3.796   2.001  13.434 -2.3577  0.7619 -2.2999
 8245TIP3   OH248929   5.771   6.801  12.881  0.4551 -0.4062  0.4531
 8245TIP3    H148930   5.770   6.800  12.976  0.7184 -0.3897  0.4554
 8245TIP3    H248931   5.681   6.826  12.856  0.4053 -0.3478  0.6949
 8246TIP3   OH248932   4.832   4.847  11.196 -0.4427 -0.6023 -0.0959
 8246TIP3    H148933   4.912   4.848  11.247  0.3446 -0.7193 -1.2895
 8246TIP3    H248934   4.838   4.923  11.138 -0.8249 -1.0468 -0.7384
 8247TIP3   OH248935   2.542   2.810  11.513  0.7464  0.4813  0.3896
 8247TIP3    H148936   2.615   2.847  11.462  2.1169 -1.3310  0.9628
 8247TIP3    H248937   2.549   2.851  11.599  1.1414  0.2301  0.4750
 8248TIP3   OH248938   1.616   4.807  12.704  0.5392  0.1290 -0.0137
 8248TIP3    H148939   1.576   4.720  12.698  0.6673  0.1752 -2.2645
 8248TIP3    H248940   1.602   4.833  12.795 -3.8519 -0.1644 -0.4233
 8249TIP3   OH248941   3.067   5.834  12.587  0.1206  0.5507  0.2103
 8249TIP3    H148942   3.082   5.745  12.618  2.7526  0.4987 -0.9013
 8249TIP3    H248943   3.081   5.889  12.664  0.1411  0.0929  0.5400
 8250TIP3   OH248944   1.288   4.727  11.725  0.7809 -0.1139  0.2673
 8250TIP3    H148945   1.233   4.650  11.740 -0.0200  0.2820 -0.5547
 8250TIP3    H248946   1.267   4.786  11.797  0.6852 -0.2755  0.3712
 8251TIP3   OH248947   4.595   0.923  11.765 -0.2923  0.0741  0.1005
 8251TIP3    H148948   4.629   0.886  11.684  1.3652 -0.6917  1.0868
 8251TIP3    H248949   4.530   0.988  11.737  0.2508 -0.1538 -1.8139
 8252TIP3   OH248950   1.682   1.721  12.178 -0.3740 -0.4065  0.0922
 8252TIP3    H148951   1.594   1.736  12.214  0.7606  1.3833  2.3604
 8252TIP3    H248952   1.675   1.637  12.134 -3.6938  0.4705 -1.4202
 8253TIP3   OH248953   6.315   1.052  12.881 -0.4120 -0.5135 -0.4568
 8253TIP3    H148954   6.226   1.033  12.910 -0.7508  0.2574 -0.9463
 8253TIP3    H248955   6.371   1.014  12.948 -1.1734  1.3574  1.3217
 8254TIP3   OH248956   6.478   3.566  12.479  0.2802 -0.1501  0.0012
 8254TIP3    H148957   6.458   3.509  12.405  0.1421 -1.1436  0.7793
 8254TIP3    H248958   6.573   3.561  12.489  0.1220 -1.6152  1.1016
 8255TIP3   OH248959   6.247   5.570  11.857  0.0629 -0.1668 -0.3356
 8255TIP3    H148960   6.268   5.632  11.927 -0.4507 -0.3951  0.0291
 8255TIP3    H248961   6.282   5.486  11.889 -0.7702 -0.4071 -0.0424
 8256TIP3   OH248962   1.739   4.561  11.431  0.0242  0.1174 -0.2118
 8256TIP3    H148963   1.774   4.472  11.435  0.6391  0.3565 -0.0928
 8256TIP3    H248964   1.653   4.552  11.389  0.7993 -0.3338 -1.7860
 8257TIP3   OH248965   5.548   2.398  10.671  0.4768  0.1284 -0.0073
 8257TIP3    H148966   5.560   2.325  10.610  1.1676  0.4664 -0.2885
 8257TIP3    H248967   5.471   2.375  10.722 -0.1307 -0.1548 -1.0349
 8258TIP3   OH248968   2.537   2.534  11.477  0.1588 -0.6771  0.2202
 8258TIP3    H148969   2.571   2.623  11.466 -0.8552 -0.1156  1.3500
 8258TIP3    H248970   2.449   2.546  11.514 -0.0126 -2.1460  0.3667
 8259TIP3   OH248971   0.481   5.165  10.737  0.1736 -0.1168 -0.0652
 8259TIP3    H148972   0.497   5.259  10.736  0.9683 -0.1784  1.9179
 8259TIP3    H248973   0.387   5.156  10.725 -0.5268  1.2108  3.2240
 8260TIP3   OH248974   6.827   6.526  10.953 -0.6939 -0.2820 -0.5221
 8260TIP3    H148975   6.741   6.557  10.925 -1.1361 -1.9158 -1.0604
 8260TIP3    H248976   6.828   6.433  10.931  1.2967 -0.2643 -0.7182
 8261TIP3   OH248977   5.373   1.280  12.222 -0.2645 -0.0705 -0.0163
 8261TIP3    H148978   5.361   1.350  12.158 -0.4809 -0.4185 -0.3621
 8261TIP3    H248979   5.294   1.226  12.214  0.5503 -1.1941 -0.8197
 8262TIP3   OH248980   6.217   7.222  11.175 -0.0767 -0.0885 -0.4165
 8262TIP3    H148981   6.206   7.313  11.148 -1.7715 -0.1307  0.0066
 8262TIP3    H248982   6.133   7.198  11.214  0.6050 -1.5885  0.2298
 8263TIP3   OH248983   1.351   4.145  10.758  0.1793  0.2011  0.2969
 8263TIP3    H148984   1.433   4.147  10.807  1.1427  1.3827 -1.2621
 8263TIP3    H248985   1.320   4.235  10.757 -1.7376 -0.3717  1.7151
 8264TIP3   OH248986   7.292   3.598  10.998  0.2712  0.0551 -0.2512
 8264TIP3    H148987   7.305   3.570  11.089  1.1247  2.8293  0.5772
 8264TIP3    H248988   7.221   3.541  10.966  0.5691 -1.6153  1.8200
 8265TIP3   OH248989   6.625   4.995  11.696  0.3295  0.2287  0.1280
 8265TIP3    H148990   6.631   4.913  11.745 -1.2109  0.3819  0.6325
 8265TIP3    H248991   6.704   5.043  11.720 -0.1202  0.0770  2.0792
 8266TIP3   OH248992   5.031   0.853  12.087 -0.0151 -0.2716 -0.1160
 8266TIP3    H148993   5.001   0.922  12.027  1.3728  0.5450  0.0773
 8266TIP3    H248994   4.974   0.861  12.163 -1.0511 -0.5610 -0.8369
 8267TIP3   OH248995   6.524   5.418  11.387 -0.1158  0.3393  0.0777
 8267TIP3    H148996   6.566   5.488  11.438 -1.1748  1.1886 -0.1848
 8267TIP3    H248997   6.499   5.459  11.305 -0.7381 -0.3515 -0.0914
 8268TIP3   OH248998   2.403   5.656  12.831  0.3697  0.0530  0.1872
 8268TIP3    H148999   2.319   5.677  12.872  0.4690 -0.5752  0.7332
 8268TIP3    H249000   2.418   5.564  12.854  0.0948 -0.5614 -1.8684
 8269TIP3   OH249001   1.789   0.767  12.631 -0.3769 -0.5817  0.5224
 8269TIP3    H149002   1.706   0.748  12.588 -1.2848  2.2593  0.8513
 8269TIP3    H249003   1.835   0.825  12.570 -0.3481  0.9969  1.9894
 8270TIP3   OH249004   3.963   3.273  10.980 -0.1594 -0.4225  0.1978
 8270TIP3    H149005   3.904   3.205  10.949 -0.0600 -1.0636  1.3425
 8270TIP3    H249006   4.029   3.281  10.912 -0.8821 -0.5603 -0.5374
 8271TIP3   OH249007   2.512   7.518  10.558 -0.5279  0.2945 -0.2866
 8271TIP3    H149008   2.548   7.477  10.636 -1.8182 -2.3982 -1.0021
 8271TIP3    H249009   2.574   7.587  10.536  0.2489  0.6488  2.6535
 8272TIP3   OH249010   7.489   0.054  12.672 -0.4749  0.0425 -0.0227
 8272TIP3    H149011   7.526   0.056  12.584  3.1481 -1.1318  1.2913
 8272TIP3    H249012   7.514   0.138  12.710 -1.4427  0.2666  0.1453
 8273TIP3   OH249013   3.153   6.077  11.102  0.3558  0.5389 -0.2488
 8273TIP3    H149014   3.199   6.101  11.022  1.0431  1.9599  0.5351
 8273TIP3    H249015   3.078   6.136  11.105 -0.2031 -0.1623 -0.3252
 8274TIP3   OH249016   3.362   4.715  12.820 -0.2438  0.6534  0.1679
 8274TIP3    H149017   3.338   4.756  12.903 -0.0748  0.7700  0.1605
 8274TIP3    H249018   3.326   4.627  12.825  0.7689  0.2587  0.8572
 8275TIP3   OH249019   0.634   0.543  11.569 -0.4865  0.4420  0.6175
 8275TIP3    H149020   0.681   0.567  11.649 -0.9365 -1.9486  1.7010
 8275TIP3    H249021   0.688   0.577  11.498  1.8524 -0.4634  1.8542
 8276TIP3   OH249022   6.426   7.092  12.743  0.1688  0.6266  0.0661
 8276TIP3    H149023   6.420   7.031  12.670  1.6043  1.3554 -0.6989
 8276TIP3    H249024   6.480   7.047  12.808 -0.5553  0.2451  0.4134
 8277TIP3   OH249025   5.337   3.908  11.608 -0.3505 -0.6957 -0.0025
 8277TIP3    H149026   5.319   3.869  11.693 -2.9116  0.2342 -0.0054
 8277TIP3    H249027   5.334   4.002  11.624 -3.1438 -0.4279 -1.3701
 8278TIP3   OH249028   2.705   4.666  11.690 -0.7348  0.0401  0.2392
 8278TIP3    H149029   2.730   4.736  11.630 -1.8494  1.4105  1.2890
 8278TIP3    H249030   2.613   4.648  11.668 -0.6188 -0.7042  0.3472
 8279TIP3   OH249031   4.281   2.886  12.506  0.6640 -0.2161 -0.3049
 8279TIP3    H149032   4.262   2.794  12.487 -2.0673  0.5479 -1.7485
 8279TIP3    H249033   4.210   2.914  12.564  0.8158  1.2448 -0.7782
 8280TIP3   OH249034   5.810   0.029  12.963  0.3223 -0.2452 -0.3429
 8280TIP3    H149035   5.742   0.048  13.028  0.5894 -1.1077  0.2060
 8280TIP3    H249036   5.773  -0.041  12.909  0.1883  0.3196 -0.9991
 8281TIP3   OH249037   4.776   1.837  12.020 -0.3162  0.3770  0.1713
 8281TIP3    H149038   4.739   1.870  11.938 -0.1031  1.4946  0.5063
 8281TIP3    H249039   4.709   1.779  12.056  0.2652 -1.4977 -1.6036
 8282TIP3   OH249040   5.274   1.019  11.103  0.2485  0.5428 -0.1976
 8282TIP3    H149041   5.359   1.061  11.092  0.6204 -0.3442 -0.9140
 8282TIP3    H249042   5.296   0.928  11.124 -0.5064  0.1169 -1.1905
 8283TIP3   OH249043   3.593   6.540  10.660 -0.2516 -0.4392  0.5411
 8283TIP3    H149044   3.516   6.583  10.697  0.1483  1.5604 -0.8030
 8283TIP3    H249045   3.558   6.486  10.589 -0.5524 -0.5786  0.7938
 8284TIP3   OH249046   1.849   1.240  12.883  0.3882  0.2378  0.3249
 8284TIP3    H149047   1.862   1.296  12.960  1.9082  2.5786 -1.5084
 8284TIP3    H249048   1.927   1.185  12.880 -0.9410 -1.9184  1.9177
 8285TIP3   OH249049   3.212   1.381  12.448 -0.3505  0.0362 -0.1192
 8285TIP3    H149050   3.244   1.464  12.412 -0.6939  0.0080 -0.5005
 8285TIP3    H249051   3.229   1.387  12.542 -2.3342  1.4351  0.1965
 8286TIP3   OH249052   0.565   7.013  11.878  0.6648 -0.0717 -0.6365
 8286TIP3    H149053   0.591   6.933  11.832 -0.0271 -0.2001 -0.8198
 8286TIP3    H249054   0.629   7.022  11.948  0.0684 -1.4693  0.1468
 8287TIP3   OH249055   4.102   7.089  11.049 -0.2262  0.1492 -1.0325
 8287TIP3    H149056   4.121   7.175  11.086 -1.1194 -0.1019  0.0754
 8287TIP3    H249057   4.053   7.108  10.969 -1.0351  0.6869 -0.4340
 8288TIP3   OH249058   5.240   5.849  12.536 -0.7605  0.1964  0.0686
 8288TIP3    H149059   5.147   5.856  12.514 -0.7196  1.4628  0.2211
 8288TIP3    H249060   5.240   5.830  12.630 -0.8662 -1.1195 -0.1741
 8289TIP3   OH249061   5.045   2.315  11.477  0.4026  0.0820 -0.3397
 8289TIP3    H149062   4.972   2.335  11.536 -0.1250 -1.1367 -0.5470
 8289TIP3    H249063   5.010   2.330  11.390 -0.1151 -1.8816 -0.5225
 8290TIP3   OH249064   4.229   6.864  11.186 -0.2302 -0.2532  0.3066
 8290TIP3    H149065   4.319   6.841  11.163 -0.8209 -2.0237 -0.3594
 8290TIP3    H249066   4.201   6.924  11.117 -1.1467 -3.5544 -2.4155
 8291TIP3   OH249067   0.279   6.558  12.289  0.4837  0.3463  0.8565
 8291TIP3    H149068   0.368   6.588  12.271 -0.1606  1.7705 -0.2346
 8291TIP3    H249069   0.244   6.534  12.203  0.2495 -1.5801  1.4410
 8292TIP3   OH249070   5.021   6.109  12.875 -0.2276  0.2082  0.3354
 8292TIP3    H149071   5.047   6.121  12.966 -0.7173 -2.4163  0.8993
 8292TIP3    H249072   4.926   6.117  12.876 -0.2623 -0.1602  0.1270
 8293TIP3   OH249073   2.988   3.037  11.953 -0.0850  0.8004 -0.1555
 8293TIP3    H149074   2.895   3.013  11.956  0.3988 -1.3779 -0.3005
 8293TIP3    H249075   3.017   3.026  12.043  0.6287 -1.5182 -0.6004
 8294TIP3   OH249076   5.146   0.841  12.374  0.3773 -0.2967  0.2121
 8294TIP3    H149077   5.187   0.896  12.440 -0.8208  2.6743 -1.2757
 8294TIP3    H249078   5.113   0.904  12.309  1.7506 -2.9605 -3.4018
 8295TIP3   OH249079   3.866   4.153  11.459 -0.1091  0.5303  0.0418
 8295TIP3    H149080   3.947   4.120  11.419  0.6976  0.1818  1.8604
 8295TIP3    H249081   3.818   4.074  11.483  0.9543  0.5842  2.6851
 8296TIP3   OH249082   6.505   2.222  11.731  0.0433  0.0398  1.0050
 8296TIP3    H149083   6.495   2.133  11.767  0.9446 -0.0977  0.9443
 8296TIP3    H249084   6.440   2.274  11.778 -2.0113 -1.0495 -0.4297
 8297TIP3   OH249085   7.150   0.425  12.216  0.6230 -0.1235 -0.0711
 8297TIP3    H149086   7.218   0.449  12.153  0.3636 -1.5615 -0.9260
 8297TIP3    H249087   7.085   0.377  12.165 -1.5839  2.0549  0.5285
 8298TIP3   OH249088   3.606   4.320  11.489 -0.3502  0.1465 -0.1866
 8298TIP3    H149089   3.698   4.318  11.464 -0.0825 -0.1273  0.7627
 8298TIP3    H249090   3.559   4.290  11.411  0.3600  0.2981 -0.6823
 8299TIP3   OH249091   2.131   5.954  13.040  0.3926 -0.4171 -0.0859
 8299TIP3    H149092   2.086   6.016  12.982  0.0316  0.4646  1.1012
 8299TIP3    H249093   2.076   5.951  13.119  1.1118 -1.2413  0.3990
 8300TIP3   OH249094   3.395   3.649  11.558  0.6628  0.0689 -0.0030
 8300TIP3    H149095   3.366   3.666  11.648  0.7834  0.5882 -0.0566
 8300TIP3    H249096   3.423   3.558  11.558  1.4547  0.3019  0.6997
 8301TIP3   OH249097   3.046   5.009  13.050 -0.6065  0.1859 -0.8559
 8301TIP3    H149098   2.984   5.069  13.009 -0.2248  0.7272 -0.6574
 8301TIP3    H249099   3.010   4.993  13.137 -0.8272 -0.0585 -0.9896
 8302TIP3   OH249100   3.146   0.439  11.050 -0.1086 -0.0811  0.2889
 8302TIP3    H149101   3.071   0.496  11.068 -0.8695 -0.7953 -0.5348
 8302TIP3    H249102   3.117   0.352  11.078  0.9621 -0.1217  1.3357
 8303TIP3   OH249103   2.776   0.788  12.486 -0.3072 -0.3839  0.4289
 8303TIP3    H149104   2.751   0.744  12.568 -2.8281  0.0700 -0.0426
 8303TIP3    H249105   2.716   0.754  12.421  2.2260 -1.4098 -1.5311
 8304TIP3   OH249106   6.322   5.572  13.635  0.1555  0.1155 -0.0620
 8304TIP3    H149107   6.303   5.658  13.671 -2.0089 -1.0191  1.7776
 8304TIP3    H249108   6.293   5.576  13.544  0.0372  1.3122  0.0199
 8305TIP3   OH249109   6.257   6.096  12.179 -0.3204 -0.5312  0.3748
 8305TIP3    H149110   6.283   6.040  12.106  0.6434 -0.9544  1.0162
 8305TIP3    H249111   6.280   6.184  12.150  1.0996 -0.8037  0.5649
 8306TIP3   OH249112   0.399   4.335  11.720 -0.5422  0.1386 -0.0058
 8306TIP3    H149113   0.419   4.428  11.731  2.3252 -0.5682  1.7878
 8306TIP3    H249114   0.407   4.321  11.625  0.9759  1.3751 -0.1194
 8307TIP3   OH249115   4.432   7.676  11.692 -0.6136 -0.6541 -0.1452
 8307TIP3    H149116   4.375   7.750  11.712 -0.6901 -0.6630 -0.3294
 8307TIP3    H249117   4.407   7.608  11.755  1.8437  0.6546  2.4470
 8308TIP3   OH249118   1.780   4.946  10.535 -0.0101 -0.0384 -0.1007
 8308TIP3    H149119   1.698   4.981  10.501 -0.5385 -0.5579  0.6356
 8308TIP3    H249120   1.840   5.021  10.534 -0.4990  0.3503 -0.5991
 8309TIP3   OH249121   0.006   6.299  13.176 -0.6686 -0.1890 -0.2857
 8309TIP3    H149122   0.050   6.372  13.132 -0.9769 -0.7944 -1.6419
 8309TIP3    H249123   0.043   6.221  13.135 -1.9134 -0.7326 -0.4076
 8310TIP3   OH249124   7.249   5.568  12.987 -0.3235  0.5593  0.2148
 8310TIP3    H149125   7.268   5.482  13.025  1.3117  0.4751 -0.7103
 8310TIP3    H249126   7.318   5.625  13.019 -1.8995  1.8072  1.5501
 8311TIP3   OH249127   2.009   6.255  12.246  0.0062  0.2037  0.1810
 8311TIP3    H149128   2.017   6.342  12.284  1.0624  0.6741 -1.0476
 8311TIP3    H249129   2.099   6.229  12.227 -0.4250 -0.2955 -1.3277
 8312TIP3   OH249130   5.688   6.039  11.143  0.3849  0.4136 -0.1613
 8312TIP3    H149131   5.601   6.051  11.105  1.0338  1.5392 -1.3731
 8312TIP3    H249132   5.695   5.944  11.156  0.3343 -0.1982 -3.5289
 8313TIP3   OH249133   1.917   5.820  13.166 -0.0842 -0.4105 -0.4468
 8313TIP3    H149134   1.849   5.781  13.221  0.7920 -2.6127 -0.8177
 8313TIP3    H249135   1.991   5.759  13.173  1.1209  0.8518 -1.6711
 8314TIP3   OH249136   2.707   0.053  10.503  0.3193  0.0032 -0.1178
 8314TIP3    H149137   2.720   0.090  10.416  1.9252  0.7228  0.3871
 8314TIP3    H249138   2.726   0.125  10.563 -2.2520 -0.0367  0.8582
 8315TIP3   OH249139   2.575   7.467  11.104 -0.0648 -0.4900  0.1213
 8315TIP3    H149140   2.555   7.553  11.139 -1.1135 -0.6216 -0.1415
 8315TIP3    H249141   2.670   7.468  11.092  0.2286 -0.1337  2.1070
 8316TIP3   OH249142   1.725   1.467  13.287  0.2896 -0.3411 -0.3868
 8316TIP3    H149143   1.717   1.562  13.284  1.0211 -0.2877 -1.7812
 8316TIP3    H249144   1.711   1.444  13.379  3.7636  1.4556  0.7423
 8317TIP3   OH249145   0.452   2.371  11.989  0.0284 -0.5432  0.0198
 8317TIP3    H149146   0.426   2.457  11.956  0.3144 -0.3041  0.4022
 8317TIP3    H249147   0.375   2.315  11.976 -1.4624  0.6297  2.9992
 8318TIP3   OH249148   6.947   4.332  13.340 -0.5040 -0.1592 -0.6290
 8318TIP3    H149149   6.949   4.296  13.252 -1.1471 -1.0346 -0.2960
 8318TIP3    H249150   7.017   4.398  13.341 -1.5125  0.9779 -2.2570
 8319TIP3   OH249151   4.249   1.050  12.461 -0.3552  0.2866 -0.0432
 8319TIP3    H149152   4.318   1.013  12.515  0.3797  0.1656 -1.0222
 8319TIP3    H249153   4.276   1.141  12.447 -1.2646  0.7134  0.9429
 8320TIP3   OH249154   7.224   1.127  11.136  0.2503  0.8369 -0.0462
 8320TIP3    H149155   7.229   1.213  11.094  0.1375 -0.2880 -2.5917
 8320TIP3    H249156   7.155   1.081  11.088  0.4736 -0.7540  1.0782
 8321TIP3   OH249157   4.483   0.251  10.520 -0.1408 -0.0702  0.0332
 8321TIP3    H149158   4.390   0.227  10.526 -0.2716  0.6732  1.5690
 8321TIP3    H249159   4.484   0.346  10.535  0.8519 -0.0234 -0.2707
 8322TIP3   OH249160   2.399   5.652  11.682 -0.3453  0.3339 -0.0788
 8322TIP3    H149161   2.413   5.569  11.636  1.2241  0.8607 -0.6343
 8322TIP3    H249162   2.400   5.718  11.612  2.9975  1.2485  0.6440
 8323TIP3   OH249163   1.524   3.653  10.573 -0.4526 -0.1986  1.0190
 8323TIP3    H149164   1.481   3.718  10.629  1.7330  1.9535  0.3508
 8323TIP3    H249165   1.452   3.600  10.538 -2.3210  1.7201  1.7689
 8324TIP3   OH249166   3.929   1.236  11.191  0.1281 -0.0527  0.3838
 8324TIP3    H149167   4.000   1.176  11.210  0.2474  0.1158  0.4722
 8324TIP3    H249168   3.932   1.301  11.261 -0.9170 -0.7602  1.1137
 8325TIP3   OH249169   3.149   6.382  11.598  0.5861 -0.2672 -0.4949
 8325TIP3    H149170   3.091   6.453  11.570 -0.1500 -0.8153 -0.3767
 8325TIP3    H249171   3.102   6.302  11.576  1.0241 -0.7172  0.1753
 8326TIP3   OH249172   5.340   7.666  12.205 -0.4533 -1.1752 -0.5576
 8326TIP3    H149173   5.272   7.653  12.139  0.3043  1.3115 -1.9655
 8326TIP3    H249174   5.409   7.713  12.159  0.7543 -0.6435  1.6703
 8327TIP3   OH249175   5.743   3.505  11.542  0.3731 -0.1024 -0.3482
 8327TIP3    H149176   5.720   3.587  11.499  2.2150  0.3191 -0.6429
 8327TIP3    H249177   5.705   3.513  11.630 -1.2113  0.1507 -1.0181
 8328TIP3   OH249178   1.818   4.628  10.966  0.3696  0.7936 -0.2988
 8328TIP3    H149179   1.736   4.662  11.001 -0.5476  0.9443 -2.4368
 8328TIP3    H249180   1.799   4.539  10.939  1.6550 -0.0910  1.4797
 8329TIP3   OH249181   1.902   1.227  12.609  0.0549 -0.6723  0.8419
 8329TIP3    H149182   1.989   1.262  12.588 -0.0712 -0.7195  0.2022
 8329TIP3    H249183   1.887   1.253  12.700  0.8347 -0.8663  1.0360
 8330TIP3   OH249184   0.509   2.825  12.775 -0.5213  0.4365 -0.9167
 8330TIP3    H149185   0.450   2.780  12.714 -1.1071 -0.0822  0.0080
 8330TIP3    H249186   0.541   2.901  12.725  0.1963 -0.7643 -2.3681
 8331TIP3   OH249187   4.009   2.834  11.754  0.0447 -0.5545 -0.3045
 8331TIP3    H149188   4.058   2.786  11.821 -0.4615 -0.2889  0.2716
 8331TIP3    H249189   3.982   2.915  11.798  2.2509  1.0749 -1.7057
 8332TIP3   OH249190   0.895   6.310  12.911 -0.2003 -1.1060  0.2119
 8332TIP3    H149191   0.966   6.292  12.972 -0.2574  1.5628  1.1889
 8332TIP3    H249192   0.823   6.341  12.966 -0.6961  0.0987 -1.0474
 8333TIP3   OH249193   0.971   3.725  11.125  0.1792  0.3324 -0.2674
 8333TIP3    H149194   0.892   3.725  11.179  0.5619 -1.0053  0.3309
 8333TIP3    H249195   0.948   3.672  11.049  0.7347 -0.7374  0.2945
 8334TIP3   OH249196   3.922   4.364  12.762  0.2872 -0.1833 -0.1660
 8334TIP3    H149197   3.860   4.436  12.756  0.9413  0.3254 -0.9627
 8334TIP3    H249198   3.870   4.290  12.795 -0.5503  0.4452 -0.0659
 8335TIP3   OH249199   3.705   4.412  12.167  0.3775 -0.4008 -0.2183
 8335TIP3    H149200   3.653   4.416  12.248 -1.7165  2.4782 -1.5420
 8335TIP3    H249201   3.766   4.485  12.175  1.7981 -1.5519 -0.2667
 8336TIP3   OH249202   7.320   2.660  16.836 -0.0661 -0.6473  0.1607
 8336TIP3    H149203   7.299   2.731  16.896  0.2154 -0.0938 -0.3865
 8336TIP3    H249204   7.332   2.583  16.892  1.3770  0.1089  0.9435
 8337TIP3   OH249205   7.168   7.113  12.796 -0.2569 -0.0064 -0.3496
 8337TIP3    H149206   7.252   7.151  12.824 -0.3957  0.1765 -0.1792
 8337TIP3    H249207   7.169   7.024  12.831  1.3316 -1.2272 -3.1312
 8338TIP3   OH249208   1.045   0.963  10.854  0.0168  0.1853  0.1204
 8338TIP3    H149209   1.068   0.881  10.896  0.1751 -0.0447 -0.4087
 8338TIP3    H249210   0.953   0.977  10.877 -0.6693 -1.2464 -1.5356
 8339TIP3   OH249211   0.500   6.722  11.450  0.6070 -0.1776  0.2275
 8339TIP3    H149212   0.588   6.757  11.464  0.7338 -0.5229  0.3073
 8339TIP3    H249213   0.469   6.765  11.371  0.6303  0.3630  0.5071
 8340TIP3   OH249214   3.203   3.919  10.873 -0.1210  0.8316 -0.2086
 8340TIP3    H149215   3.207   3.844  10.814 -0.5372  1.6783 -1.3365
 8340TIP3    H249216   3.258   3.893  10.948 -0.4898 -0.7004 -0.4275
 8341TIP3   OH249217   3.469   0.917  11.852  0.1862 -0.3697  0.0744
 8341TIP3    H149218   3.528   0.923  11.927  0.3546  0.2008 -0.0933
 8341TIP3    H249219   3.482   0.830  11.817  1.8293  0.1487 -0.6782
 8342TIP3   OH249220   0.709   5.880  10.680  0.0771  0.0750 -0.1884
 8342TIP3    H149221   0.790   5.842  10.645  0.4294  0.1821  0.4849
 8342TIP3    H249222   0.729   5.896  10.772 -0.1382  1.6999 -0.4011
 8343TIP3   OH249223   5.250   1.863  11.983 -0.4482  0.1456  0.0394
 8343TIP3    H149224   5.215   1.885  11.897 -2.4584 -1.0919  0.4743
 8343TIP3    H249225   5.345   1.854  11.968 -0.8124 -0.7948 -2.2262
 8344TIP3   OH249226   5.814   1.507  11.982 -0.1903  0.0022 -0.8690
 8344TIP3    H149227   5.746   1.445  12.008 -0.9561  1.0444 -0.2889
 8344TIP3    H249228   5.799   1.520  11.888  0.0816 -0.7987 -1.0307
 8345TIP3   OH249229   4.299   5.761  12.936 -0.4653  0.3290  0.1228
 8345TIP3    H149230   4.255   5.754  12.851  1.0635  0.7366 -0.7358
 8345TIP3    H249231   4.282   5.850  12.964 -0.7671  0.2687  0.1394
 8346TIP3   OH249232   3.923   0.220  11.379 -0.0078  0.3285 -0.5624
 8346TIP3    H149233   3.920   0.275  11.457 -0.8486 -0.7926  0.2235
 8346TIP3    H249234   3.993   0.157  11.397 -0.8722 -0.5587 -0.2650
 8347TIP3   OH249235   0.116   2.901  11.460  0.2354 -0.3509  0.4269
 8347TIP3    H149236   0.155   2.869  11.541  0.7818  0.6672  0.5920
 8347TIP3    H249237   0.183   2.958  11.422  0.2755 -1.3495 -1.1164
 8348TIP3   OH249238   6.542   4.801  17.219 -0.0199  0.0976  0.3221
 8348TIP3    H149239   6.620   4.746  17.221 -0.5371 -0.6607  0.0961
 8348TIP3    H249240   6.497   4.783  17.301  1.3889  2.5946  1.7763
 8349TIP3   OH249241   0.814   2.767  13.223 -0.4889  0.2416 -0.2499
 8349TIP3    H149242   0.775   2.763  13.311 -1.9469 -0.7928 -0.8914
 8349TIP3    H249243   0.743   2.801  13.168  0.0855 -0.0648 -1.1852
 8350TIP3   OH249244   4.643   2.285  11.681 -0.1280 -0.2540  0.1717
 8350TIP3    H149245   4.560   2.322  11.712 -0.8684 -1.4887 -0.2561
 8350TIP3    H249246   4.646   2.306  11.588  2.0940  3.4450  0.8763
 8351TIP3   OH249247   2.823   4.186  11.777  0.1436 -0.4955 -0.3123
 8351TIP3    H149248   2.777   4.248  11.721 -1.3311 -2.1633 -1.0609
 8351TIP3    H249249   2.885   4.142  11.718  0.7913 -0.1376  0.0880
 8352TIP3   OH249250   1.422   3.280  12.110 -0.5856 -0.1450  0.1651
 8352TIP3    H149251   1.466   3.354  12.153 -1.3351  0.7394 -0.5497
 8352TIP3    H249252   1.493   3.227  12.074  0.0267 -0.4444  1.7114
 8353TIP3   OH249253   5.931   4.391  12.082 -0.2737  0.7613  0.3271
 8353TIP3    H149254   5.843   4.380  12.046 -0.1807 -0.2900  0.3831
 8353TIP3    H249255   5.988   4.345  12.020 -0.0342 -0.5237  1.4468
 8354TIP3   OH249256   4.149   1.911  10.648 -0.2383 -0.3539 -0.3116
 8354TIP3    H149257   4.136   1.993  10.695 -3.1783 -0.5579 -0.5471
 8354TIP3    H249258   4.102   1.846  10.701  0.5411 -1.5415 -1.0349
 8355TIP3   OH249259   1.819   3.400  12.962  0.0686  0.0716 -0.5768
 8355TIP3    H149260   1.830   3.488  12.999  1.3921 -0.1322 -0.4199
 8355TIP3    H249261   1.855   3.341  13.029 -1.9735 -0.7344 -0.1045
 8356TIP3   OH249262   2.391   3.239  12.840  0.4647  0.0258 -0.5659
 8356TIP3    H149263   2.328   3.219  12.909  0.6402  2.3247  0.3604
 8356TIP3    H249264   2.476   3.235  12.884  0.5159  2.4127 -0.3423
 8357TIP3   OH249265   2.723   4.367  10.413  0.1077 -0.2037 -0.0969
 8357TIP3    H149266   2.789   4.328  10.356  0.0248 -0.4526 -0.0244
 8357TIP3    H249267   2.762   4.449  10.443  0.2368 -0.1740 -0.3409
 8358TIP3   OH249268   4.139   2.078  10.906  0.1799 -0.0116  0.1459
 8358TIP3    H149269   4.069   2.027  10.946  0.3609 -0.9014 -0.6245
 8358TIP3    H249270   4.214   2.019  10.904  0.4374  0.3207 -0.6479
 8359TIP3   OH249271   4.910   0.911  10.880  0.8109 -0.0561 -0.4088
 8359TIP3    H149272   4.970   0.854  10.929  0.4204  0.2538  0.4394
 8359TIP3    H249273   4.834   0.855  10.862  1.1118 -0.2825 -1.0007
 8360TIP3   OH249274   2.987   4.767  12.030 -0.2684 -0.0268 -0.4965
 8360TIP3    H149275   2.897   4.742  12.009  0.0783 -3.0686  1.1454
 8360TIP3    H249276   3.041   4.721  11.966  0.2588 -1.3750  0.8535
 8361TIP3   OH249277   1.751   1.574  11.163 -0.0487  0.2523  0.0355
 8361TIP3    H149278   1.812   1.503  11.184 -0.2601 -0.0313 -0.2988
 8361TIP3    H249279   1.729   1.612  11.248 -2.9913 -2.5804  0.7394
 8362TIP3   OH249280   4.977   1.735  11.092 -0.0677  0.3513  0.0454
 8362TIP3    H149281   4.912   1.665  11.092 -0.0543  0.3294  0.6861
 8362TIP3    H249282   5.061   1.689  11.096  0.0424  0.3527 -1.7175
 8363TIP3   OH249283   6.595   1.909  12.152  0.1194 -0.2477 -0.4639
 8363TIP3    H149284   6.579   1.989  12.103  1.1456 -0.4369 -1.1319
 8363TIP3    H249285   6.604   1.938  12.243 -0.2033  0.3048 -0.6054
 8364TIP3   OH249286   5.482   2.037  11.203  0.6717 -0.2418 -0.1048
 8364TIP3    H149287   5.524   2.000  11.281 -0.0916 -0.6736  0.1157
 8364TIP3    H249288   5.441   1.962  11.159 -1.7249  0.3802  0.8646
 8365TIP3   OH249289   2.281   5.375  11.289  0.4988 -0.0334  0.0633
 8365TIP3    H149290   2.309   5.300  11.342  0.4304 -0.4552 -0.4893
 8365TIP3    H249291   2.236   5.336  11.214 -0.6433  0.5963  0.3908
 8366TIP3   OH249292   0.937   1.752  11.460 -0.3200 -0.1928 -0.0076
 8366TIP3    H149293   1.006   1.816  11.446 -1.7993  1.5107  0.1623
 8366TIP3    H249294   0.983   1.670  11.478  1.6248  0.7264 -0.5931
 8367TIP3   OH249295   3.172   2.216  10.953 -0.3922 -0.0387  1.0345
 8367TIP3    H149296   3.159   2.310  10.963 -0.1554  0.5595 -2.9891
 8367TIP3    H249297   3.084   2.181  10.943 -0.3447  0.1764 -0.1937
 8368TIP3   OH249298   6.974   1.759  11.648 -0.1259 -0.2757  0.0308
 8368TIP3    H149299   6.989   1.682  11.593  1.0366 -0.0569  0.0176
 8368TIP3    H249300   6.934   1.725  11.728  1.3706 -1.0434  0.4815
 8369TIP3   OH249301   4.813   5.099  12.827  0.2729  0.1417  0.3996
 8369TIP3    H149302   4.816   5.038  12.753 -1.3154  0.0674  0.3628
 8369TIP3    H249303   4.784   5.182  12.788 -0.5443  0.1065  0.9096
 8370TIP3   OH249304   4.641   1.397  10.608 -0.3804  0.0447  0.4587
 8370TIP3    H149305   4.547   1.391  10.621 -0.3115 -1.4255  0.4130
 8370TIP3    H249306   4.654   1.483  10.567 -1.8706 -0.3474 -0.9610
 8371TIP3   OH249307   1.407   1.639  12.082  0.1961  0.2755  0.0773
 8371TIP3    H149308   1.417   1.693  12.160 -2.3635  1.5007 -0.3213
 8371TIP3    H249309   1.337   1.577  12.104 -0.4000  0.4795 -1.1160
 8372TIP3   OH249310   5.256   1.561  11.860 -0.2522 -0.1877  0.0906
 8372TIP3    H149311   5.345   1.589  11.837 -0.1737 -0.0082  0.6004
 8372TIP3    H249312   5.257   1.466  11.846  0.0426 -0.1982  0.1732
 8373TIP3   OH249313   1.742   3.564  10.699  0.3536  0.3701 -0.1910
 8373TIP3    H149314   1.750   3.625  10.773  0.7290 -0.6669  0.6474
 8373TIP3    H249315   1.663   3.592  10.653 -0.2931  0.5978  1.0187
 8374TIP3   OH249316   6.150   4.305  10.780  0.0433  0.2230  0.1148
 8374TIP3    H149317   6.128   4.303  10.687 -1.0292  0.7353  0.3420
 8374TIP3    H249318   6.072   4.272  10.824  0.2074  0.8054  0.8711
 8375TIP3   OH249319   0.890   1.858  12.525 -0.3804 -0.0496 -0.6861
 8375TIP3    H149320   0.867   1.766  12.516 -0.9251  0.1213 -1.0419
 8375TIP3    H249321   0.926   1.865  12.614 -0.8069 -0.5062 -0.4748
 8376TIP3   OH249322   6.968   6.247  11.590  0.0427  0.3725 -0.2448
 8376TIP3    H149323   6.923   6.205  11.518 -2.0158  1.1782  0.4986
 8376TIP3    H249324   6.993   6.333  11.556 -1.8467  1.1606  0.2510
 8377TIP3   OH249325   5.470   3.951  12.459  0.3376  0.6694  0.0131
 8377TIP3    H149326   5.398   3.967  12.397 -0.1225 -2.4716 -0.4020
 8377TIP3    H249327   5.428   3.946  12.544 -0.0744 -1.6108 -0.2822
 8378TIP3   OH249328   4.135   3.762  10.731 -0.0725 -0.1428 -0.2008
 8378TIP3    H149329   4.109   3.818  10.658  1.2276 -0.5411 -1.0016
 8378TIP3    H249330   4.084   3.681  10.717 -0.6192  0.1735 -0.0555
 8379TIP3   OH249331   5.513   6.512  11.547 -0.0310  0.0357 -0.1029
 8379TIP3    H149332   5.528   6.546  11.458  0.4964 -1.1727 -0.4960
 8379TIP3    H249333   5.564   6.569  11.604 -0.5641  0.9708 -0.5470
 8380TIP3   OH249334   4.710   5.521  12.327 -0.1651  0.0953  0.0529
 8380TIP3    H149335   4.681   5.435  12.296  1.8423 -0.8995  0.7735
 8380TIP3    H249336   4.675   5.526  12.416  0.9573 -0.6673  0.5602
 8381TIP3   OH249337   5.060   3.871  10.793  0.0260 -0.3131  0.1763
 8381TIP3    H149338   5.018   3.844  10.875  0.6547  1.1849  1.0210
 8381TIP3    H249339   5.093   3.789  10.756 -1.1512 -1.1527  0.8901
 8382TIP3   OH249340   3.507   5.884  10.762 -0.6739 -0.0656 -0.3708
 8382TIP3    H149341   3.439   5.822  10.787  0.6172 -0.6997  1.7596
 8382TIP3    H249342   3.492   5.960  10.818 -0.0291  0.0534 -0.3547
 8383TIP3   OH249343   3.917   2.436  11.258  0.6495  0.1762  0.1887
 8383TIP3    H149344   3.998   2.426  11.307  0.3689 -2.2906  0.3088
 8383TIP3    H249345   3.920   2.366  11.192 -1.2462  0.1574  0.0503
 8384TIP3   OH249346   6.403   1.843  12.914  0.5418 -0.3795 -0.3754
 8384TIP3    H149347   6.387   1.823  13.006  0.4507  1.1429 -0.0436
 8384TIP3    H249348   6.319   1.826  12.870 -0.0266  0.9217  0.1865
 8385TIP3   OH249349   0.298   6.922  12.310 -0.1978  0.1654  0.2175
 8385TIP3    H149350   0.362   6.854  12.332  1.2391  0.3094 -2.8629
 8385TIP3    H249351   0.349   7.003  12.308 -0.6368  0.4356 -1.3588
 8386TIP3   OH249352   4.979   5.435  11.082 -0.6068 -0.6992  0.0626
 8386TIP3    H149353   5.071   5.442  11.106 -0.5547  0.9745 -0.5304
 8386TIP3    H249354   4.935   5.502  11.136 -1.6177 -1.9750  0.9038
 8387TIP3   OH249355   5.865   1.137  12.132  0.4584  0.0231 -0.1274
 8387TIP3    H149356   5.934   1.070  12.130 -0.2394 -0.7031 -2.2107
 8387TIP3    H249357   5.906   1.213  12.090  0.4594  0.0755 -0.0306
 8388TIP3   OH249358   6.054   0.294  11.457  0.0032 -0.2865  0.4921
 8388TIP3    H149359   6.034   0.218  11.402 -0.1881  0.3140 -0.2782
 8388TIP3    H249360   6.065   0.366  11.395  1.9152 -0.0297  1.0642
 8389TIP3   OH249361   2.927   4.412  10.989 -0.1140  0.8921  0.0969
 8389TIP3    H149362   2.993   4.392  10.921 -0.4442 -1.4370  0.3743
 8389TIP3    H249363   2.844   4.410  10.942 -0.1295  2.4419  0.0155
 8390TIP3   OH249364   7.022   5.980  13.025 -0.1477  0.0956  0.2474
 8390TIP3    H149365   7.057   5.894  13.050 -0.3583 -0.2953 -0.7665
 8390TIP3    H249366   6.929   5.976  13.047 -0.1920  0.0012  0.0449
 8391TIP3   OH249367   6.395   2.380  11.043 -0.4590 -0.3505 -0.0929
 8391TIP3    H149368   6.456   2.360  10.972 -1.5612 -1.8377 -0.6737
 8391TIP3    H249369   6.426   2.463  11.079  1.4025 -0.6576 -0.8921
 8392TIP3   OH249370   4.178   0.435  11.961 -0.0226  0.1766  0.0156
 8392TIP3    H149371   4.201   0.398  11.876 -0.9037 -0.1813 -0.0779
 8392TIP3    H249372   4.083   0.422  11.968 -0.3511  2.2390  0.0659
 8393TIP3   OH249373   0.809   0.945  13.142  0.3167 -0.2019  0.1507
 8393TIP3    H149374   0.734   0.994  13.176 -0.3669 -2.3563  1.9531
 8393TIP3    H249375   0.885   0.990  13.179 -0.1875  0.4892  0.3833
 8394TIP3   OH249376   3.474   4.000  12.124  0.2456 -0.0434  0.2026
 8394TIP3    H149377   3.536   3.963  12.061  0.8200 -1.1571  1.3795
 8394TIP3    H249378   3.400   4.029  12.070  0.2497 -1.9166 -0.9122
 8395TIP3   OH249379   5.840   3.535  12.226 -0.4041 -0.2588  0.7401
 8395TIP3    H149380   5.842   3.628  12.245 -0.3411 -0.1255  0.1169
 8395TIP3    H249381   5.813   3.530  12.134 -0.6727 -0.8642  0.8450
 8396TIP3   OH249382   2.157   0.572  11.941 -0.0453 -0.0747 -0.1450
 8396TIP3    H149383   2.213   0.501  11.910 -1.6071 -0.8962 -1.2060
 8396TIP3    H249384   2.103   0.532  12.009  1.4338  1.0242  1.7915
 8397TIP3   OH249385   0.012   4.043  11.126 -0.0781  0.2463 -0.1075
 8397TIP3    H149386  -0.009   4.102  11.198 -0.5584 -1.5099  1.2606
 8397TIP3    H249387  -0.072   4.021  11.087  0.2573  2.1737 -2.1187
 8398TIP3   OH249388   0.170   0.512  11.962 -0.6641 -0.6462 -0.3361
 8398TIP3    H149389   0.105   0.481  12.025 -1.7195 -0.1313 -1.1398
 8398TIP3    H249390   0.183   0.439  11.902  0.8864 -1.4022  0.8477
 8399TIP3   OH249391   6.834   4.675  11.495  0.6755 -0.2845  0.0711
 8399TIP3    H149392   6.876   4.649  11.577  0.3739 -2.4244 -0.3990
 8399TIP3    H249393   6.906   4.682  11.433  0.5449 -3.4500 -0.6078
 8400TIP3   OH249394   1.066   6.726  11.591 -0.2976 -0.0518 -0.3348
 8400TIP3    H149395   1.160   6.717  11.576 -0.2305  1.1018 -0.7486
 8400TIP3    H249396   1.057   6.740  11.685 -0.1103 -0.7244 -0.2147
 8401TIP3   OH249397   2.950   5.579  10.719 -0.5751  0.0953  0.1495
 8401TIP3    H149398   2.915   5.597  10.806  0.3571 -0.1522  0.5867
 8401TIP3    H249399   2.873   5.581  10.661 -1.0539  1.3231  0.8053
 8402TIP3   OH249400   0.240   2.094  10.765 -0.0246 -0.0133  0.2477
 8402TIP3    H149401   0.286   2.177  10.771  0.0980 -0.1386  1.0638
 8402TIP3    H249402   0.167   2.102  10.826  1.2858 -1.3374  2.0688
 8403TIP3   OH249403   5.438   0.203  12.819  0.0982  0.1249  0.0586
 8403TIP3    H149404   5.440   0.235  12.909 -2.3780  0.1009  0.1739
 8403TIP3    H249405   5.391   0.120  12.824  0.1447 -0.0002 -1.2329
 8404TIP3   OH249406   3.242   5.226  11.567  0.7889  0.1084 -0.3885
 8404TIP3    H149407   3.312   5.214  11.632  1.1118 -2.4038 -1.0835
 8404TIP3    H249408   3.162   5.202  11.614  0.8367 -0.2323 -0.4734
 8405TIP3   OH249409   6.041   2.723  12.673  0.2410  0.4128  0.4334
 8405TIP3    H149410   6.002   2.794  12.725  1.0925  1.2041  0.0250
 8405TIP3    H249411   6.006   2.643  12.712 -0.7628  1.0481  0.8936
 8406TIP3   OH249412   7.587   1.915  12.638 -0.7787 -0.1852  0.3296
 8406TIP3    H149413   7.495   1.940  12.628 -0.2782  1.2089 -1.4885
 8406TIP3    H249414   7.624   1.925  12.550  1.3476  0.3804  1.2194
 8407TIP3   OH249415   1.181   7.132  12.228  0.6606  0.3440 -0.4632
 8407TIP3    H149416   1.179   7.111  12.135  0.0305  0.2869 -0.4400
 8407TIP3    H249417   1.096   7.105  12.261  0.0861  2.1999 -0.2800
 8408TIP3   OH249418   5.665   6.319  10.336 -0.2865 -0.1939 -0.1345
 8408TIP3    H149419   5.733   6.254  10.355 -1.9028 -1.5505  1.4034
 8408TIP3    H249420   5.680   6.389  10.399 -0.7647 -0.8750  0.7610
 8409TIP3   OH249421   2.304   2.014  12.356  0.1344 -0.2411 -0.1679
 8409TIP3    H149422   2.329   2.002  12.265  0.0970 -2.7472  0.0903
 8409TIP3    H249423   2.292   1.925  12.390 -1.2026  0.6446  1.9098
 8410TIP3   OH249424   0.510   5.809  12.889 -0.0307 -0.3758 -0.3242
 8410TIP3    H149425   0.542   5.724  12.917 -1.9148 -1.2992 -0.8294
 8410TIP3    H249426   0.441   5.831  12.952  1.2192  1.3871  0.5312
 8411TIP3   OH249427   3.345   4.920  10.746  0.1011  0.3746 -0.4067
 8411TIP3    H149428   3.430   4.958  10.765  1.0975 -2.0539  0.3538
 8411TIP3    H249429   3.288   4.953  10.815  1.5760 -1.4378  1.8330
 8412TIP3   OH249430   4.351   1.855  11.692  0.0591  0.3897  0.0333
 8412TIP3    H149431   4.341   1.937  11.740  0.8626  1.4815 -1.5424
 8412TIP3    H249432   4.317   1.874  11.604 -0.2029 -1.1292 -0.2318
 8413TIP3   OH249433   4.858   0.869  12.311 -0.1763 -0.0232 -0.4228
 8413TIP3    H149434   4.877   0.953  12.353  1.2541 -0.1581 -0.7298
 8413TIP3    H249435   4.763   0.866  12.305 -0.2481  1.9259 -1.0915
 8414TIP3   OH249436   7.317   4.243  13.253  0.5251  0.2126 -0.3216
 8414TIP3    H149437   7.403   4.215  13.222  0.0794 -0.9074 -0.6066
 8414TIP3    H249438   7.258   4.173  13.224 -0.3661  0.6092  0.4994
 8415TIP3   OH249439   5.508   5.517  12.462  0.6566 -0.1686  0.3990
 8415TIP3    H149440   5.413   5.528  12.459  0.7175  0.5947 -3.1927
 8415TIP3    H249441   5.542   5.605  12.452  1.6837 -0.6331 -0.3393
 8416TIP3   OH249442   6.889   2.901  10.813  0.0998  0.0569  0.1769
 8416TIP3    H149443   6.940   2.951  10.749 -0.4346 -0.5302 -0.7380
 8416TIP3    H249444   6.934   2.817  10.819 -0.6016 -0.3829 -0.4651
 8417TIP3   OH249445   2.446   2.322  12.056  0.4398  0.7778 -0.1815
 8417TIP3    H149446   2.451   2.418  12.055  0.0790  0.8170 -1.6616
 8417TIP3    H249447   2.421   2.300  11.966  0.5623 -0.7101  0.1395
 8418TIP3   OH249448   6.496   1.239  11.002 -0.1567  0.1372  0.6235
 8418TIP3    H149449   6.437   1.298  10.954  0.1511 -0.4163 -0.4608
 8418TIP3    H249450   6.484   1.263  11.094 -0.7792  1.2137  0.2824
 8419TIP3   OH249451   2.509   5.609  11.933  0.1459 -0.8491 -0.1044
 8419TIP3    H149452   2.427   5.610  11.982  0.9775 -1.6812  1.3840
 8419TIP3    H249453   2.483   5.594  11.842 -1.2630 -2.5162  0.5236
 8420TIP3   OH249454   4.655   4.484  11.347  0.0141  0.7065 -0.3715
 8420TIP3    H149455   4.677   4.403  11.301  0.5893  0.7139 -0.1144
 8420TIP3    H249456   4.672   4.553  11.283 -0.2080  0.6423 -0.4990
 8421TIP3   OH249457   3.581   2.226  11.865  0.2408  0.1999 -0.1031
 8421TIP3    H149458   3.492   2.205  11.837  0.1099 -0.2229  0.6060
 8421TIP3    H249459   3.570   2.277  11.945  0.6400 -3.0962  2.2325
 8422TIP3   OH249460   5.987   0.313  11.980 -0.5387  0.5150 -0.1159
 8422TIP3    H149461   5.936   0.337  12.057  1.1519  1.1080  0.8786
 8422TIP3    H249462   6.078   0.319  12.009  0.1099 -0.8237 -1.7138
 8423TIP3   OH249463   0.662   3.665  12.027  0.2217 -0.4424 -0.4671
 8423TIP3    H149464   0.741   3.625  11.991  0.4392 -0.4144 -0.0300
 8423TIP3    H249465   0.600   3.667  11.954  0.3090 -1.3061 -0.5653
 8424TIP3   OH249466   5.871   4.508  10.785  0.5303  0.1740  0.1806
 8424TIP3    H149467   5.929   4.516  10.709 -0.3928  0.5597 -0.5198
 8424TIP3    H249468   5.875   4.416  10.810  2.8898  0.5216  1.3673
 8425TIP3   OH249469   7.628   6.265  10.834  0.4462 -0.0401 -0.8001
 8425TIP3    H149470   7.650   6.356  10.814  0.3851  0.2480  0.4152
 8425TIP3    H249471   7.551   6.247  10.779  0.9828  0.3403 -1.7120
 8426TIP3   OH249472   5.137   2.046  12.168  0.2659 -0.6331  0.0311
 8426TIP3    H149473   5.191   2.096  12.108  0.0146  1.1528  1.2205
 8426TIP3    H249474   5.067   2.010  12.114 -0.0921  1.1321 -0.7436
 8427TIP3   OH249475   1.369   0.295  13.274  0.3553 -0.1714 -0.0106
 8427TIP3    H149476   1.374   0.291  13.369  0.9123 -1.0526 -0.0667
 8427TIP3    H249477   1.457   0.271  13.244  0.1412 -0.0634 -0.7442
 8428TIP3   OH249478   2.591   4.034  13.130  0.1812 -0.3941  0.1403
 8428TIP3    H149479   2.544   3.982  13.066  1.2085  0.7916 -1.6610
 8428TIP3    H249480   2.595   4.122  13.092 -0.0795  0.6479  2.3233
 8429TIP3   OH249481   0.659   7.330  12.802 -0.0159  0.4390 -0.1774
 8429TIP3    H149482   0.713   7.406  12.823 -0.0760  0.2488  0.7257
 8429TIP3    H249483   0.694   7.260  12.857 -1.4497  0.4229  0.7735
 8430TIP3   OH249484   6.146   1.001  11.796  0.3408 -0.0542 -0.2600
 8430TIP3    H149485   6.191   0.979  11.877  1.4553 -2.3749 -1.4005
 8430TIP3    H249486   6.202   1.068  11.755  0.0179  0.7824  0.6193
 8431TIP3   OH249487   2.200   5.542  11.010 -0.1707 -0.5234  0.2139
 8431TIP3    H149488   2.252   5.486  11.068 -0.5246  0.2325  1.3020
 8431TIP3    H249489   2.125   5.569  11.064 -0.2683  0.5776 -0.4398
 8432TIP3   OH249490   1.539   4.006  10.634 -0.4178 -0.5721  0.3074
 8432TIP3    H149491   1.558   4.099  10.635 -1.8635 -0.2314 -1.0139
 8432TIP3    H249492   1.456   3.997  10.680  0.0297 -1.3127  1.0078
 8433TIP3   OH249493   0.002   3.659  11.594  0.4501 -0.7859 -0.1076
 8433TIP3    H149494  -0.020   3.719  11.666  0.7969 -0.2731 -0.4191
 8433TIP3    H249495   0.004   3.572  11.635  0.6021 -0.5052  0.4953
 8434TIP3   OH249496   1.118   0.368  13.190  0.2902 -0.2869 -0.4930
 8434TIP3    H149497   1.181   0.428  13.229  0.6669  0.6456 -2.4152
 8434TIP3    H249498   1.163   0.283  13.187  0.5417 -0.1852  0.3004
 8435TIP3   OH249499   2.720   4.367  11.572 -0.2273 -0.0211 -0.3083
 8435TIP3    H149500   2.639   4.408  11.602  0.3304 -0.4192  1.9332
 8435TIP3    H249501   2.778   4.440  11.551 -1.2221  0.2756 -2.3393
 8436TIP3   OH249502   6.267   2.201  10.789  0.2741 -0.1677  0.0902
 8436TIP3    H149503   6.216   2.282  10.791  0.2606 -0.1133 -1.2270
 8436TIP3    H249504   6.327   2.208  10.863  0.8512  1.4456 -0.4845
 8437TIP3   OH249505   5.053   6.781  11.868 -0.0569 -0.7358 -0.0371
 8437TIP3    H149506   5.114   6.850  11.841  0.9472 -2.0198 -1.1913
 8437TIP3    H249507   4.999   6.766  11.791 -0.9480 -0.5725  0.5378
 8438TIP3   OH249508   0.473   3.203  12.291  0.1182 -0.0112 -0.3763
 8438TIP3    H149509   0.416   3.153  12.349  1.0406 -2.0836 -1.1884
 8438TIP3    H249510   0.420   3.280  12.267 -1.5793 -0.8761  0.3972
 8439TIP3   OH249511   2.489   3.516  12.796 -0.6137  0.3829  0.1576
 8439TIP3    H149512   2.459   3.528  12.886  0.8331  2.7723  0.4218
 8439TIP3    H249513   2.584   3.507  12.803 -0.5143  0.1767 -1.1154
 8440TIP3   OH249514   4.589   3.223  12.156 -0.5108 -0.4409 -0.5064
 8440TIP3    H149515   4.507   3.221  12.206  0.0386 -0.0039  0.4572
 8440TIP3    H249516   4.656   3.204  12.221  0.4709  2.3799 -0.5296
 8441TIP3   OH249517   0.366   5.162  11.034  0.3237 -0.2611 -0.6783
 8441TIP3    H149518   0.400   5.107  11.105 -2.4998 -1.8315 -0.4134
 8441TIP3    H249519   0.401   5.123  10.954  1.9275  0.3373 -0.3115
 8442TIP3   OH249520   7.206   2.802  10.725  0.5137 -0.5527  0.1765
 8442TIP3    H149521   7.296   2.769  10.730  0.8125  0.3563  1.0843
 8442TIP3    H249522   7.208   2.884  10.774 -0.7861 -0.4564  0.0887
 8443TIP3   OH249523   7.507   3.797  11.193 -0.1333  0.2892 -0.3031
 8443TIP3    H149524   7.470   3.830  11.112 -1.5092  0.9345  0.5568
 8443TIP3    H249525   7.459   3.842  11.262  0.9832 -0.2556  0.8845
 8444TIP3   OH249526   6.558   1.596  10.986  0.4379  0.6255  0.2680
 8444TIP3    H149527   6.479   1.546  11.006  0.2668  1.0147  0.5640
 8444TIP3    H249528   6.526   1.681  10.958  0.6996  0.3907 -0.8222
 8445TIP3   OH249529   3.513   3.210  11.104 -0.1536  0.1678 -0.1223
 8445TIP3    H149530   3.595   3.166  11.127 -0.5778 -0.2662  0.5972
 8445TIP3    H249531   3.536   3.266  11.030  0.7168 -0.1976 -0.1412
 8446TIP3   OH249532   4.969   7.409  11.474 -0.0819  0.1007  0.5547
 8446TIP3    H149533   4.902   7.476  11.458  0.9319  1.1250  0.4815
 8446TIP3    H249534   4.928   7.327  11.447 -1.6400  0.5618  1.3881
 8447TIP3   OH249535   6.257   2.297  11.262  0.7098 -0.2073 -0.3451
 8447TIP3    H149536   6.314   2.340  11.326 -0.4263  1.0384 -0.1116
 8447TIP3    H249537   6.295   2.321  11.177  2.1584 -1.7767 -0.2019
 8448TIP3   OH249538   4.664   3.444  11.274 -0.4377 -0.5369 -0.0476
 8448TIP3    H149539   4.739   3.412  11.324  0.5537 -2.6461 -2.6381
 8448TIP3    H249540   4.636   3.523  11.320  2.0133 -0.8644  2.2247
 8449TIP3   OH249541   0.529   5.914  11.273  0.2210  0.0181  0.3648
 8449TIP3    H149542   0.565   5.884  11.190 -0.0299 -0.7672  0.5313
 8449TIP3    H249543   0.437   5.931  11.255  0.0540 -0.6171  0.5891
 8450TIP3   OH249544   5.957   3.476  11.394  0.5162  0.4403 -0.1463
 8450TIP3    H149545   5.888   3.506  11.453  0.7680  3.7316 -1.3183
 8450TIP3    H249546   6.028   3.447  11.451 -1.0112 -1.1079  1.0752
 8451TIP3   OH249547   0.384   0.047  12.734 -0.6652 -0.5690  0.0108
 8451TIP3    H149548   0.373  -0.005  12.814  0.7333 -2.9065 -1.1804
 8451TIP3    H249549   0.479   0.058  12.725 -0.8694  1.0261 -0.5404
 8452TIP3   OH249550   5.712   2.095  10.940  0.2756  0.0399 -0.7147
 8452TIP3    H149551   5.682   2.007  10.917 -0.0620 -0.2601  0.7418
 8452TIP3    H249552   5.807   2.089  10.940  0.3028  0.1499 -2.2907
 8453TIP3   OH249553   2.785   6.150  13.036  0.3357  0.9701  0.6935
 8453TIP3    H149554   2.734   6.092  13.093  0.7487  0.2473  0.3435
 8453TIP3    H249555   2.721   6.185  12.974 -0.1171  1.7594  1.5873
 8454TIP3   OH249556   5.236   2.758  12.030  0.3852  0.0121 -0.4138
 8454TIP3    H149557   5.226   2.782  11.937  0.9780  0.8576 -0.2704
 8454TIP3    H249558   5.299   2.821  12.064  1.6757 -1.5203  0.1111
 8455TIP3   OH249559   3.690   5.205  12.366 -0.5729 -0.1418 -0.1880
 8455TIP3    H149560   3.711   5.168  12.452  1.6778 -0.8319 -0.9715
 8455TIP3    H249561   3.759   5.269  12.350 -2.6109  2.1895 -0.2687
 8456TIP3   OH249562   5.863   0.692  12.367  0.2739 -0.3288  0.1483
 8456TIP3    H149563   5.909   0.732  12.441 -0.1727  3.5487 -1.4186
 8456TIP3    H249564   5.772   0.722  12.376  0.2463  0.4412 -1.9986
 8457TIP3   OH249565   6.455   5.006  11.468 -0.3148  0.2974  0.4165
 8457TIP3    H149566   6.483   4.953  11.394 -0.3102 -1.0620  1.3426
 8457TIP3    H249567   6.474   4.951  11.545  0.0982  1.8308  1.4572
 8458TIP3   OH249568   3.916   0.387  10.698  0.2273 -0.5869 -0.1170
 8458TIP3    H149569   3.821   0.395  10.698  0.2420 -0.2532  0.9811
 8458TIP3    H249570   3.933   0.297  10.723  0.2041 -0.8155 -0.8945
 8459TIP3   OH249571   5.985   3.727  12.924  0.1672 -0.7076 -0.1852
 8459TIP3    H149572   6.049   3.757  12.860  0.0045  0.1606  0.0440
 8459TIP3    H249573   5.984   3.632  12.914  0.0867 -0.5876 -1.5195
 8460TIP3   OH249574   5.099   2.869  10.812  0.4584 -0.0612  0.1078
 8460TIP3    H149575   5.175   2.875  10.871  1.0230 -1.4631 -0.4383
 8460TIP3    H249576   5.128   2.912  10.732  0.4323 -0.0231  0.1187
 8461TIP3   OH249577   3.475   3.154  12.562 -0.1548  0.4548  0.0847
 8461TIP3    H149578   3.477   3.244  12.594 -1.3181  0.4508  0.2303
 8461TIP3    H249579   3.394   3.150  12.509 -0.6863 -0.7763  0.9566
 8462TIP3   OH249580   1.182   6.038  13.077  0.3029  0.5498 -0.1226
 8462TIP3    H149581   1.140   6.124  13.069  0.1900  0.4443 -0.7227
 8462TIP3    H249582   1.133   5.994  13.147 -0.1226  0.6942 -0.3289
 8463TIP3   OH249583   3.646   7.341  12.482 -0.0438 -0.5601 -0.1205
 8463TIP3    H149584   3.732   7.344  12.439 -0.2437  0.4470 -0.4812
 8463TIP3    H249585   3.662   7.298  12.565  0.6557 -1.1198 -0.5313
 8464TIP3   OH249586   5.491   0.299  12.584 -0.2246 -0.1658  0.3864
 8464TIP3    H149587   5.475   0.268  12.673 -1.4001 -1.5920 -0.2928
 8464TIP3    H249588   5.441   0.240  12.528  1.5968 -0.1851 -1.3462
 8465TIP3   OH249589   5.573   7.362  11.148 -0.1731  0.1172 -0.3882
 8465TIP3    H149590   5.568   7.338  11.241 -0.2812 -0.8639 -0.6455
 8465TIP3    H249591   5.660   7.400  11.138 -0.1114  0.1090  0.0842
 8466TIP3   OH249592   0.444   5.735  10.912 -0.6333 -0.0419  0.4094
 8466TIP3    H149593   0.511   5.799  10.938 -1.5639  0.3661  1.9091
 8466TIP3    H249594   0.438   5.744  10.817  1.3370 -0.0026  0.2397
 8467TIP3   OH249595   1.268   2.912  10.787 -0.3248 -0.2652  0.2074
 8467TIP3    H149596   1.324   2.982  10.820 -1.3091  0.6639 -0.0406
 8467TIP3    H249597   1.312   2.831  10.814  0.8810  0.4411  0.4078
 8468TIP3   OH249598   4.170   2.580  11.063 -0.4575 -0.7327 -0.6764
 8468TIP3    H149599   4.085   2.567  11.021 -1.3040  0.6717  0.4973
 8468TIP3    H249600   4.172   2.673  11.083  2.5938 -0.1178 -3.1534
 8469TIP3   OH249601   2.004   3.377  12.311  0.3688  0.2904  0.2737
 8469TIP3    H149602   1.944   3.330  12.253  0.9278 -0.1391  0.0409
 8469TIP3    H249603   2.012   3.321  12.388  0.0166  0.6254  0.5578
 8470TIP3   OH249604   1.648   0.484  13.182 -0.2621 -0.0569 -0.4911
 8470TIP3    H149605   1.565   0.519  13.212  0.1146 -0.2744  0.8758
 8470TIP3    H249606   1.659   0.403  13.231  0.8189  0.0540 -0.5196
 8471TIP3   OH249607   6.770   5.168  10.643 -0.2301 -0.5509  0.3287
 8471TIP3    H149608   6.726   5.202  10.722 -0.6697 -1.2349  0.3890
 8471TIP3    H249609   6.758   5.073  10.648  0.7339 -0.7038  0.0216
 8472TIP3   OH249610   6.240   7.289  12.870 -0.4382 -0.3761 -0.3091
 8472TIP3    H149611   6.252   7.378  12.837 -0.8058  0.7422  2.3166
 8472TIP3    H249612   6.325   7.247  12.855  0.2952  0.9649 -0.1190
 8473TIP3   OH249613   5.297   6.452  10.465  0.7578  0.5060 -0.4512
 8473TIP3    H149614   5.275   6.519  10.400 -0.7717 -0.1373 -0.6619
 8473TIP3    H249615   5.321   6.375  10.413  2.3393  0.8056 -0.2125
 8474TIP3   OH249616   0.320   6.460  13.135  0.3931  0.2231 -0.5398
 8474TIP3    H149617   0.240   6.486  13.089 -0.4798  0.1564  0.8577
 8474TIP3    H249618   0.351   6.383  13.088 -0.5294  0.0800 -0.9455
 8475TIP3   OH249619   0.162   6.179  10.989 -0.0038 -0.0173  0.6692
 8475TIP3    H149620   0.240   6.153  10.939 -1.0391 -2.0015 -0.0249
 8475TIP3    H249621   0.118   6.243  10.933  0.0176 -0.5475  0.0252
 8476TIP3   OH249622   7.440   7.148  12.077  0.2906  0.1385  0.0700
 8476TIP3    H149623   7.379   7.088  12.119  0.0542 -1.2302 -2.0449
 8476TIP3    H249624   7.526   7.115  12.099  0.1830 -0.2014 -0.0126
 8477TIP3   OH249625   4.398   2.491  11.181 -0.2121 -0.2036  0.3517
 8477TIP3    H149626   4.304   2.483  11.164 -0.3548  0.9709  0.4994
 8477TIP3    H249627   4.428   2.558  11.120  0.3607  0.0191  0.8698
 8478TIP3   OH249628   2.731   1.733  11.715 -0.0898  0.7656 -0.1556
 8478TIP3    H149629   2.637   1.741  11.702  0.0743  0.9077 -1.3680
 8478TIP3    H249630   2.747   1.639  11.718 -0.4784  0.7058  1.9607
 8479TIP3   OH249631   3.144   4.408  11.177 -0.5353 -0.0045 -0.1278
 8479TIP3    H149632   3.087   4.439  11.107 -1.0624 -2.1277 -0.7210
 8479TIP3    H249633   3.097   4.333  11.215  0.9495 -0.5691  0.6911
 8480TIP3   OH249634   0.603   3.575  13.192 -0.0527  0.0644  0.4185
 8480TIP3    H149635   0.514   3.541  13.200 -0.2067  0.8375  2.6368
 8480TIP3    H249636   0.592   3.662  13.152 -0.0853 -0.5706 -1.0059
 8481TIP3   OH249637   3.331   4.953  12.413  0.1531 -0.0496  0.2911
 8481TIP3    H149638   3.315   4.865  12.447 -0.6881 -1.9471 -4.3124
 8481TIP3    H249639   3.408   4.943  12.357 -0.8900  1.7280 -1.5834
 8482TIP3   OH249640   2.284   0.314  11.938 -0.0070  0.2638  0.0108
 8482TIP3    H149641   2.213   0.252  11.959  0.7476 -1.8709 -3.0192
 8482TIP3    H249642   2.349   0.298  12.006 -0.9643 -0.2747  0.8434
 8483TIP3   OH249643   7.445   1.227  10.797  0.7249  0.1440  0.1766
 8483TIP3    H149644   7.531   1.186  10.801  0.7532  0.1730 -0.1213
 8483TIP3    H249645   7.430   1.243  10.704 -0.2912 -1.3434  0.0338
 8484TIP3   OH249646   5.560   4.193  11.452 -0.0651  0.3538  0.2931
 8484TIP3    H149647   5.502   4.180  11.528  1.1687 -0.5699  1.1253
 8484TIP3    H249648   5.604   4.276  11.470 -1.7349  1.5232 -0.7895
 8485TIP3   OH249649   6.444   4.574  11.835  0.1103 -0.3059  0.0915
 8485TIP3    H149650   6.418   4.537  11.919  1.0135  1.4797  1.2163
 8485TIP3    H249651   6.530   4.612  11.850  0.1438  0.3665 -1.5415
 8486TIP3   OH249652   7.089   5.887  13.459 -1.3365  0.3097  0.4304
 8486TIP3    H149653   7.006   5.893  13.413 -1.2652  1.5752  0.4261
 8486TIP3    H249654   7.129   5.973  13.447 -0.3456 -0.0545  1.0266
 8487TIP3   OH249655   0.801   4.389  11.345  0.0691  0.8170 -0.0649
 8487TIP3    H149656   0.881   4.346  11.378  0.2892  0.4689 -1.0111
 8487TIP3    H249657   0.753   4.318  11.302 -1.0136  0.9156  0.9440
 8488TIP3   OH249658   4.163   5.622  11.277  0.4945 -0.3732  0.5944
 8488TIP3    H149659   4.164   5.717  11.289  0.5208 -0.5018  1.6896
 8488TIP3    H249660   4.070   5.598  11.278  0.3645 -0.1920 -1.3784
 8489TIP3   OH249661   4.515   6.340  10.559  0.0611  0.3320 -0.3650
 8489TIP3    H149662   4.534   6.426  10.521  0.1431  1.0893  1.2962
 8489TIP3    H249663   4.432   6.314  10.519 -0.9270  2.0530  0.4298
 8490TIP3   OH249664   0.400   7.391  12.807  0.1871  0.1269  0.5359
 8490TIP3    H149665   0.370   7.396  12.716 -2.3307  1.4274  1.3500
 8490TIP3    H249666   0.493   7.414  12.804 -0.1269  1.2944 -1.5626
 8491TIP3   OH249667   1.753   3.923  11.729  0.1364 -0.1730 -0.2798
 8491TIP3    H149668   1.774   3.831  11.709  1.0192  0.1614 -0.9222
 8491TIP3    H249669   1.810   3.946  11.802 -0.2936 -0.2170  0.0737
 8492TIP3   OH249670   7.348   5.373  13.173  0.1008 -0.1597 -0.1850
 8492TIP3    H149671   7.268   5.391  13.222  0.2339  0.4777 -0.1962
 8492TIP3    H249672   7.416   5.422  13.218  0.9365 -2.3500  1.1083
 8493TIP3   OH249673   6.248   0.050  12.102  0.4200 -0.2213 -0.2955
 8493TIP3    H149674   6.243   0.140  12.134 -0.2701 -0.4958  0.3695
 8493TIP3    H249675   6.263  -0.003  12.180  0.1622 -0.7550 -0.6050
 8494TIP3   OH249676   7.473   7.373  13.460  0.2447  0.0175  0.6980
 8494TIP3    H149677   7.495   7.318  13.534 -2.6080 -1.7431  0.4016
 8494TIP3    H249678   7.447   7.457  13.499  1.2196 -0.0263  1.4559
 8495TIP3   OH249679   7.082   2.962  11.257  0.0040  0.4656  0.2535
 8495TIP3    H149680   7.145   2.923  11.317  1.6762 -0.3262 -1.8942
 8495TIP3    H249681   7.031   2.887  11.224  0.9623  0.4824 -1.3441
 8496TIP3   OH249682   6.765   5.258  12.861 -0.4688 -0.2318  0.2312
 8496TIP3    H149683   6.713   5.184  12.831 -3.0465  0.9200  1.6011
 8496TIP3    H249684   6.761   5.321  12.789 -1.7952  0.2276  0.6948
 8497TIP3   OH249685   4.438   1.668  13.335 -0.0886  0.1353 -0.7420
 8497TIP3    H149686   4.493   1.739  13.301 -1.0677  0.0800 -2.5191
 8497TIP3    H249687   4.455   1.594  13.277 -0.5267 -0.5148 -0.0663
 8498TIP3   OH249688   0.896   6.448  11.909  0.2396  0.0643 -0.3119
 8498TIP3    H149689   0.917   6.539  11.887  2.1617 -0.1204  0.4933
 8498TIP3    H249690   0.802   6.448  11.926  0.0136  1.6699 -1.3239
 8499TIP3   OH249691   2.358   4.340  10.810  0.4883 -0.6161 -0.4009
 8499TIP3    H149692   2.360   4.331  10.715 -0.0796 -1.4327 -0.3438
 8499TIP3    H249693   2.356   4.435  10.825 -0.0345 -0.4898 -1.2156
 8500TIP3   OH249694   1.513   4.387  11.396  0.3998 -0.6020 -0.0738
 8500TIP3    H149695   1.605   4.362  11.409  1.2377  2.0016 -0.3356
 8500TIP3    H249696   1.514   4.438  11.315 -0.9105  0.9803  0.8422
 8501TIP3   OH249697   4.890   7.025  11.580 -0.1988 -0.0119  0.1292
 8501TIP3    H149698   4.803   6.985  11.579 -0.2903  0.1882 -0.8350
 8501TIP3    H249699   4.887   7.091  11.511  0.3119  0.8971  0.9496
 8502TIP3   OH249700   3.039   5.764  11.027 -0.1416 -0.4414 -0.2658
 8502TIP3    H149701   3.059   5.854  11.050  0.0410 -0.7434  0.7951
 8502TIP3    H249702   3.097   5.711  11.081 -1.2902 -1.2348  0.2554
 8503TIP3   OH249703   7.232   5.247  12.575 -0.2901  0.3116 -0.0485
 8503TIP3    H149704   7.145   5.286  12.578 -0.0592  0.8048  0.2540
 8503TIP3    H249705   7.230   5.190  12.498  0.2499  3.0209 -2.2123
 8504TIP3   OH249706   4.590   4.392  11.596  0.5393  0.2632  0.9241
 8504TIP3    H149707   4.621   4.416  11.509  1.5419 -0.8470  0.9463
 8504TIP3    H249708   4.500   4.424  11.599  0.2299 -0.3071 -0.7937
 8505TIP3   OH249709   7.630   6.998  12.257 -0.1516  0.4950  0.3323
 8505TIP3    H149710   7.674   6.923  12.216  0.0642 -0.0414  1.5180
 8505TIP3    H249711   7.549   6.962  12.292  0.0080  0.7804  1.0120
 8506TIP3   OH249712   1.377   0.430  11.847  0.4822 -0.4014 -0.5732
 8506TIP3    H149713   1.332   0.346  11.834  1.6900 -0.6073 -5.1786
 8506TIP3    H249714   1.469   0.406  11.859  0.4944  0.2509  0.8003
 8507TIP3   OH249715   3.593   0.035  11.069  0.1359 -0.3248 -0.2144
 8507TIP3    H149716   3.512   0.028  11.018 -1.6030  2.0271  1.9423
 8507TIP3    H249717   3.640   0.108  11.029 -1.2318  1.5265  1.3378
 8508TIP3   OH249718   3.394   1.180  11.251 -0.3280 -0.0762 -0.1610
 8508TIP3    H149719   3.428   1.147  11.168  0.1260 -0.0621  0.0187
 8508TIP3    H249720   3.303   1.204  11.232 -0.3287 -0.3955 -0.5660
 8509TIP3   OH249721   5.953   0.133  10.646 -0.6233 -0.4878  0.1154
 8509TIP3    H149722   6.010   0.068  10.688  0.3359  0.0697 -0.2971
 8509TIP3    H249723   5.866   0.094  10.649 -0.0205 -1.9122 -0.3701
 8510TIP3   OH249724   5.307   2.907  10.999 -0.2277  0.0516  0.8033
 8510TIP3    H149725   5.401   2.902  10.984 -0.0840 -1.5804  2.0222
 8510TIP3    H249726   5.299   2.936  11.090 -0.9562  1.7984  0.2255
 8511TIP3   OH249727   0.760   5.294  12.724  0.6344 -0.4774 -0.1702
 8511TIP3    H149728   0.751   5.388  12.743 -0.8023 -0.5871 -0.2234
 8511TIP3    H249729   0.744   5.251  12.808 -0.6576 -0.7486 -0.5417
 8512TIP3   OH249730   5.140   7.506  11.243 -0.1277  0.0424 -0.8316
 8512TIP3    H149731   5.062   7.522  11.190 -1.4641 -1.1056  0.6771
 8512TIP3    H249732   5.107   7.503  11.333  1.5407 -1.2066 -0.2187
 8513TIP3   OH249733   3.541   1.089  12.865  0.1081 -0.0728  0.6705
 8513TIP3    H149734   3.493   1.042  12.934  1.0180 -0.6912  0.8946
 8513TIP3    H249735   3.485   1.082  12.788  0.3330 -1.7730  0.6297
 8514TIP3   OH249736   0.641   5.280  11.048 -0.2765 -0.0076  0.2133
 8514TIP3    H149737   0.653   5.374  11.038  0.1404  0.2123  2.3847
 8514TIP3    H249738   0.548   5.266  11.028 -0.8009  1.1741  1.5817
 8515TIP3   OH249739   5.978   2.561  11.777 -0.4560  0.5457 -0.1711
 8515TIP3    H149740   5.923   2.483  11.780  1.2717 -0.6792  2.1461
 8515TIP3    H249741   5.935   2.617  11.711 -3.6025 -0.9234  0.4206
 8516TIP3   OH249742   0.404   6.855  13.991 -0.4317 -0.3488 -0.1197
 8516TIP3    H149743   0.496   6.871  13.969  0.1354  0.0845  2.3595
 8516TIP3    H249744   0.375   6.936  14.032 -1.5341 -0.9760  0.3742
 8517TIP3   OH249745   2.030   1.889  11.995 -0.4951 -0.0745  0.5162
 8517TIP3    H149746   1.942   1.925  12.008 -0.5399  0.0881 -0.2134
 8517TIP3    H249747   2.066   1.941  11.924  0.7649  0.8772  1.7950
 8518TIP3   OH249748   6.181   2.050  11.062  0.1530  0.5450 -0.7695
 8518TIP3    H149749   6.102   2.089  11.098  0.2909  0.3920 -0.2895
 8518TIP3    H249750   6.252   2.089  11.113  0.4093  0.8716 -1.3632
 8519TIP3   OH249751   3.214   6.496  10.536  0.3189 -0.2209 -0.6574
 8519TIP3    H149752   3.154   6.431  10.574 -1.2821  0.8972 -1.1303
 8519TIP3    H249753   3.156   6.555  10.488  1.6968  1.5705 -0.2193
 8520TIP3   OH249754   0.425   5.474  11.002  0.6163 -0.7108  0.2858
 8520TIP3    H149755   0.345   5.438  10.964 -0.3991  0.0676  1.5755
 8520TIP3    H249756   0.419   5.568  10.987  0.6066 -0.4865  1.5555
 8521TIP3   OH249757   3.259   5.909  13.287 -0.4081 -0.4274  0.0725
 8521TIP3    H149758   3.211   5.890  13.367 -2.1599  0.5261 -0.6911
 8521TIP3    H249759   3.262   6.005  13.284 -1.6182 -0.3920 -1.6435
 8522TIP3   OH249760   6.956   4.142  11.697 -0.4083 -0.0065  0.9726
 8522TIP3    H149761   7.032   4.097  11.660  0.8680  1.1009  2.1475
 8522TIP3    H249762   6.884   4.080  11.686  0.8021 -1.3939  0.4951
 8523TIP3   OH249763   2.520   4.931  12.061  0.6966  0.0124  0.4209
 8523TIP3    H149764   2.456   4.935  11.989  1.1056 -1.3493 -0.0503
 8523TIP3    H249765   2.601   4.963  12.022  0.4165  1.4154  0.9255
 8524TIP3   OH249766   4.852   2.685  12.124 -0.2687  0.2349  0.1061
 8524TIP3    H149767   4.917   2.617  12.105 -1.7788 -1.0778 -0.5853
 8524TIP3    H249768   4.808   2.654  12.203 -0.2848  0.9555  0.3890
 8525TIP3   OH249769   5.781   1.001  11.163 -0.7175 -0.2835  0.1640
 8525TIP3    H149770   5.856   0.945  11.140 -0.3898 -0.4516  1.5322
 8525TIP3    H249771   5.733   0.950  11.229 -1.7533  0.0509 -0.3154
 8526TIP3   OH249772   3.069   0.632  12.104 -0.4000  0.1339 -0.0979
 8526TIP3    H149773   3.023   0.637  12.188 -1.4738  2.7125 -0.7313
 8526TIP3    H249774   3.090   0.723  12.083  3.0736 -0.7328 -0.9737
 8527TIP3   OH249775   2.319   3.151  10.426  0.1987 -0.1372 -0.2703
 8527TIP3    H149776   2.318   3.151  10.522 -0.2733 -0.6882 -0.2698
 8527TIP3    H249777   2.240   3.103  10.401  0.0782  0.4061 -0.9456
 8528TIP3   OH249778   0.375   4.215  10.492 -0.0972  0.1367  0.5411
 8528TIP3    H149779   0.391   4.134  10.542  0.3611 -0.0083  0.1639
 8528TIP3    H249780   0.457   4.231  10.445 -0.2185  0.7722  0.5380
 8529TIP3   OH249781   2.059   0.811  11.704  0.1553 -0.1562  0.4134
 8529TIP3    H149782   2.083   0.786  11.614  0.1612  1.4305 -0.0622
 8529TIP3    H249783   1.966   0.833  11.698 -0.4471 -2.2216  1.3334
 8530TIP3   OH249784   5.620   0.716  12.227 -0.1619  0.0930 -0.4588
 8530TIP3    H149785   5.571   0.798  12.220 -0.4716  0.0188  0.6018
 8530TIP3    H249786   5.552   0.649  12.234  0.0890 -0.2784 -1.4209
 8531TIP3   OH249787   1.979   3.078  10.958 -0.0084  0.0435  0.1947
 8531TIP3    H149788   1.925   3.139  11.009  0.7763  1.9243 -1.0939
 8531TIP3    H249789   2.062   3.125  10.944  1.2774 -1.9961  0.5168
 8532TIP3   OH249790   1.598   2.168  10.885  0.3914  0.4008 -0.2039
 8532TIP3    H149791   1.672   2.219  10.854 -0.0326  0.1065 -1.8054
 8532TIP3    H249792   1.612   2.080  10.848 -1.4954  0.7225 -1.8794
 8533TIP3   OH249793   0.420   2.898  11.902  0.1940  0.0348  0.4590
 8533TIP3    H149794   0.438   2.941  11.985  0.0963  0.0987  0.4472
 8533TIP3    H249795   0.485   2.936  11.842  0.3388 -0.0945  0.5314
 8534TIP3   OH249796   3.360   0.979  10.741 -0.0195 -0.1252  0.3503
 8534TIP3    H149797   3.436   0.929  10.711  0.1977 -1.8317  3.3557
 8534TIP3    H249798   3.287   0.946  10.688  0.9641  0.1712 -1.2613
 8535TIP3   OH249799   2.655   7.060  10.735 -0.2395 -0.0744 -0.0652
 8535TIP3    H149800   2.609   7.118  10.795 -1.2649  0.4684 -1.3265
 8535TIP3    H249801   2.586   7.020  10.682  0.6543  0.0743 -1.4039
 8536TIP3   OH249802   0.628   7.534  12.264 -0.1056 -0.4841 -0.4277
 8536TIP3    H149803   0.540   7.569  12.250 -0.5596 -1.4080  0.0071
 8536TIP3    H249804   0.655   7.570  12.349  0.4833  0.8373 -1.1420
 8537TIP3   OH249805   1.831   3.299  11.099 -0.1211 -0.2786 -0.4745
 8537TIP3    H149806   1.883   3.269  11.173  0.0970 -0.8713 -0.8643
 8537TIP3    H249807   1.748   3.327  11.138  1.0708  2.4132  0.4169
 8538TIP3   OH249808   1.719   1.910  11.980 -0.2010  0.4659  0.1945
 8538TIP3    H149809   1.704   1.828  12.027  1.0052  1.0842  1.7836
 8538TIP3    H249810   1.670   1.975  12.030  1.6099  1.2456  1.0523
 8539TIP3   OH249811   6.610   5.672  11.483 -0.3541 -0.1134 -0.2868
 8539TIP3    H149812   6.566   5.756  11.493 -0.0380 -0.2628  3.8574
 8539TIP3    H249813   6.675   5.687  11.414  0.8418  3.6174  1.4275
 8540TIP3   OH249814   3.950   4.761  10.667  0.0453 -0.2212  0.1951
 8540TIP3    H149815   3.877   4.779  10.727  0.9290 -0.6146  1.4501
 8540TIP3    H249816   3.955   4.839  10.612 -0.3356  0.4980  1.1358
 8541TIP3   OH249817   3.645   2.613  10.595  0.5477  0.1716  0.3339
 8541TIP3    H149818   3.593   2.564  10.531 -1.2695 -0.3208  2.1083
 8541TIP3    H249819   3.724   2.559  10.607  0.1755 -0.5466 -0.3088
 8542TIP3   OH249820   4.278   2.474  13.398 -1.1542 -0.1736  0.3724
 8542TIP3    H149821   4.201   2.518  13.363 -1.0817 -1.2839 -1.3173
 8542TIP3    H249822   4.348   2.540  13.395 -1.2574 -0.1101 -1.2686
 8543TIP3   OH249823   2.455   7.246  11.263 -0.1605  0.3318 -0.6225
 8543TIP3    H149824   2.539   7.229  11.307 -0.6000 -0.4528 -0.0597
 8543TIP3    H249825   2.466   7.333  11.224  0.6024  0.6166  0.1806
 8544TIP3   OH249826   4.866   6.521  10.887 -0.3063  0.1708 -0.6211
 8544TIP3    H149827   4.837   6.447  10.834  1.4971 -0.8384 -0.2912
 8544TIP3    H249828   4.962   6.520  10.879  0.1078 -0.2276  2.8348
 8545TIP3   OH249829   3.538   2.638  11.976 -0.5773  0.1805  0.9582
 8545TIP3    H149830   3.498   2.625  11.890  0.0305  0.2180  0.6643
 8545TIP3    H249831   3.468   2.618  12.038 -0.9368 -0.1338  0.4614
 8546TIP3   OH249832   0.011   5.303  11.302 -0.2930 -0.1651 -0.3096
 8546TIP3    H149833   0.074   5.232  11.289 -0.0228 -0.1127  0.6144
 8546TIP3    H249834   0.013   5.353  11.221 -0.1396 -0.9387 -0.7979
 8547TIP3   OH249835   1.360   6.224  11.183  0.3264 -0.6054 -0.0856
 8547TIP3    H149836   1.285   6.215  11.123 -1.0792  0.1478  1.4736
 8547TIP3    H249837   1.321   6.249  11.266  2.3813  0.3068  0.6656
 8548TIP3   OH249838   2.349   7.065  12.388  0.2255  0.0488  0.0983
 8548TIP3    H149839   2.311   7.042  12.473 -0.2511 -0.3266 -0.2075
 8548TIP3    H249840   2.296   7.017  12.324  1.8148 -1.2829 -0.2898
 8549TIP3   OH249841   0.895   2.024  11.914  0.1483 -0.0603  0.5657
 8549TIP3    H149842   0.819   2.071  11.947 -0.0478  0.9240 -1.1864
 8549TIP3    H249843   0.864   1.934  11.903 -0.2128 -0.0713  1.5559
 8550TIP3   OH249844   3.314   5.554  18.239  0.1371  0.2290 -0.6065
 8550TIP3    H149845   3.333   5.612  18.165  0.4508  1.0393  0.1012
 8550TIP3    H249846   3.347   5.600  18.316 -1.1715 -0.0975  0.1851
 8551TIP3   OH249847   2.400   3.905  11.665  0.2805  0.2593  0.6743
 8551TIP3    H149848   2.456   3.965  11.714  1.4433  0.0915 -0.3883
 8551TIP3    H249849   2.318   3.903  11.714  0.8914  1.2096  1.7874
 8552TIP3   OH249850   5.248   2.173  11.929  0.2713 -0.5736 -0.3234
 8552TIP3    H149851   5.278   2.232  11.860 -0.1414 -0.7074 -0.6177
 8552TIP3    H249852   5.216   2.096  11.884  0.3707 -0.8321  0.0390
 8553TIP3   OH249853   3.898   4.615  12.125 -0.4661 -0.1536  0.0159
 8553TIP3    H149854   3.902   4.669  12.204  0.4547 -0.4896  0.2066
 8553TIP3    H249855   3.870   4.676  12.056 -0.1607  0.4031  0.3735
 8554TIP3   OH249856   2.552   6.404  10.969 -0.3107  0.3135 -0.2109
 8554TIP3    H149857   2.492   6.397  11.043  0.1672 -2.3660  0.0411
 8554TIP3    H249858   2.557   6.498  10.950 -2.5715  0.8358  1.3716
 8555TIP3   OH249859   7.478   7.574  13.681  0.0794 -0.6081  0.2099
 8555TIP3    H149860   7.483   7.669  13.679  0.6886 -0.5864  1.4900
 8555TIP3    H249861   7.568   7.545  13.696 -0.1454 -1.3741  0.1373
 8556TIP3   OH249862   7.163   6.864  12.884 -0.1129  0.0003 -0.3095
 8556TIP3    H149863   7.175   6.884  12.977  1.7721 -0.9470 -0.3134
 8556TIP3    H249864   7.243   6.818  12.858 -1.3844 -1.4331 -1.9514
 8557TIP3   OH249865   2.874   1.254  11.484  0.7163  0.3607 -0.6073
 8557TIP3    H149866   2.832   1.171  11.504 -0.3571  1.1413  0.4990
 8557TIP3    H249867   2.942   1.232  11.420  1.3808 -1.5855  0.6771
 8558TIP3   OH249868   4.651   5.391  10.420 -0.0569 -0.0882 -0.0401
 8558TIP3    H149869   4.724   5.391  10.482 -0.7090 -0.2854  0.7511
 8558TIP3    H249870   4.688   5.355  10.339  0.9324  0.6373  0.0761
 8559TIP3   OH249871   5.689   7.058  13.026  0.1225 -0.6996  0.1215
 8559TIP3    H149872   5.723   6.976  13.062 -0.8050 -1.2525 -0.2250
 8559TIP3    H249873   5.619   7.084  13.087 -0.7773 -1.1121 -0.7015
 8560TIP3   OH249874   4.563   6.548  10.326  1.3625 -0.2696  0.1134
 8560TIP3    H149875   4.478   6.507  10.312  1.4653 -0.6321  0.5176
 8560TIP3    H249876   4.626   6.488  10.286  1.3128  0.8087 -1.6784
 8561TIP3   OH249877   0.235   4.280  11.307 -0.2555  0.0506 -0.0743
 8561TIP3    H149878   0.285   4.333  11.369  0.5780 -0.5160 -0.2427
 8561TIP3    H249879   0.243   4.191  11.341  0.3911 -0.2976 -1.1088
 8562TIP3   OH249880   4.513   1.172  17.476 -0.2254  0.4469 -0.0108
 8562TIP3    H149881   4.608   1.169  17.476 -0.2114  0.6140  0.5954
 8562TIP3    H249882   4.487   1.133  17.393  0.3375 -0.7265  0.3436
 8563TIP3   OH249883   5.681   6.227  10.747  1.1691 -0.2418 -0.4244
 8563TIP3    H149884   5.706   6.150  10.798 -0.9382 -1.5523 -1.2398
 8563TIP3    H249885   5.715   6.211  10.659 -1.1027 -1.3807 -1.1752
 8564TIP3   OH249886   1.087   4.653  10.532  1.0006 -0.6143 -0.3962
 8564TIP3    H149887   1.181   4.634  10.537  1.3432  0.3299 -2.2914
 8564TIP3    H249888   1.056   4.603  10.456  0.4257  0.6837 -1.0443
 8565TIP3   OH249889   1.101   2.032  10.706  0.2037 -0.5184  0.2284
 8565TIP3    H149890   1.169   2.039  10.639 -1.9028 -1.8704 -2.2545
 8565TIP3    H249891   1.140   1.976  10.774  1.7250 -0.8717 -0.8743
 8566TIP3   OH249892   5.292   5.271  12.411  0.1483  0.2420  0.2812
 8566TIP3    H149893   5.353   5.236  12.347 -0.3044  1.3390 -0.7796
 8566TIP3    H249894   5.343   5.335  12.461 -0.4239  2.2075 -1.5342
 8567TIP3   OH249895   3.809   2.685  11.203 -0.4900 -0.5924  0.0106
 8567TIP3    H149896   3.749   2.647  11.139 -0.6800 -0.8039  0.3131
 8567TIP3    H249897   3.855   2.610  11.241 -2.1503 -0.7415  1.9198
 8568TIP3   OH249898   5.144   3.719  11.957 -0.0682 -0.2137 -0.1072
 8568TIP3    H149899   5.127   3.780  11.885 -2.0270 -0.6478 -0.0675
 8568TIP3    H249900   5.189   3.645  11.916  1.0592  0.6222 -0.4086
 8569TIP3   OH249901   1.523   2.086  12.537 -0.1159  0.4509 -0.1284
 8569TIP3    H149902   1.568   2.111  12.617  0.7401  0.3523 -0.5579
 8569TIP3    H249903   1.570   2.008  12.507 -0.6024  0.3255 -0.5758
 8570TIP3   OH249904   2.574   6.688  13.059  0.0966  0.1126  0.4189
 8570TIP3    H149905   2.563   6.608  13.110  0.0372  0.0385  0.2909
 8570TIP3    H249906   2.663   6.718  13.080  0.6958 -0.8103 -0.6890
 8571TIP3   OH249907   4.505   7.565  12.847  0.4897 -0.3337 -0.0127
 8571TIP3    H149908   4.437   7.498  12.838 -2.3345  2.1545  1.1646
 8571TIP3    H249909   4.511   7.580  12.942 -0.0300  2.0279 -0.2997
 8572TIP3   OH249910   3.699   7.140  11.113  0.0143 -0.4968 -0.3358
 8572TIP3    H149911   3.680   7.209  11.049 -2.1918  0.7641  1.5396
 8572TIP3    H249912   3.730   7.067  11.060 -1.9316  0.3903 -2.9213
 8573TIP3   OH249913   3.912   4.938  11.774  0.2259 -0.2959  0.7439
 8573TIP3    H149914   3.998   4.969  11.802  0.7746 -1.0014 -0.1086
 8573TIP3    H249915   3.904   4.968  11.683 -0.0525 -0.9701  0.5404
 8574TIP3   OH249916   5.367   0.179  10.705  0.0687 -0.3993 -0.6546
 8574TIP3    H149917   5.388   0.098  10.659 -0.7015 -0.5894 -0.6779
 8574TIP3    H249918   5.293   0.157  10.760  0.8094 -0.1025  0.4969
 8575TIP3   OH249919   3.701   0.180  10.705  0.0650 -0.6311 -0.3075
 8575TIP3    H149920   3.711   0.214  10.794 -0.2747 -1.3035 -0.0046
 8575TIP3    H249921   3.623   0.224  10.672  1.5923  1.5833 -1.2347
 8576TIP3   OH249922   5.482   5.452  11.279 -0.1138 -0.6270  0.2827
 8576TIP3    H149923   5.456   5.529  11.328  0.4836 -1.1215  1.4260
 8576TIP3    H249924   5.566   5.427  11.317  1.7658  0.5171 -2.8091
 8577TIP3   OH249925   5.794   3.144  11.767 -0.4946 -0.5104 -0.0940
 8577TIP3    H149926   5.760   3.192  11.691  1.4738 -1.2909 -1.5414
 8577TIP3    H249927   5.862   3.200  11.803  1.0860 -1.6892 -1.1529
 8578TIP3   OH249928   2.150   1.234  12.314 -0.0036  0.4935 -0.2002
 8578TIP3    H149929   2.166   1.141  12.329  1.6407  0.2043 -3.0832
 8578TIP3    H249930   2.159   1.274  12.401  1.5398 -1.7496  0.7756
 8579TIP3   OH249931   1.687   7.654  13.138 -0.2759  0.0019  0.0400
 8579TIP3    H149932   1.764   7.694  13.097 -1.1864  1.1538 -0.6346
 8579TIP3    H249933   1.702   7.560  13.132  1.0785  0.2012 -0.0607
 8580TIP3   OH249934   0.751   6.819  11.787  0.1709 -0.2914  0.6036
 8580TIP3    H149935   0.760   6.822  11.692 -1.8671 -0.1492  0.3623
 8580TIP3    H249936   0.837   6.790  11.819  1.7588  2.2380 -1.0653
 8581TIP3   OH249937   6.686   1.811  11.175  0.0079 -0.5427  0.0240
 8581TIP3    H149938   6.661   1.726  11.210 -0.3958 -0.5481 -0.2719
 8581TIP3    H249939   6.763   1.794  11.122 -0.3229 -0.7984 -0.3790
 8582TIP3   OH249940   4.892   5.921  11.261 -0.6071 -0.0323 -0.3302
 8582TIP3    H149941   4.975   5.929  11.216  0.4898 -0.4749  1.5057
 8582TIP3    H249942   4.855   5.839  11.228 -0.0646 -0.1070 -0.7683
 8583TIP3   OH249943   7.543   5.340  10.370 -0.4133 -0.0881 -0.2282
 8583TIP3    H149944   7.623   5.304  10.331 -1.7085 -2.1690 -1.0980
 8583TIP3    H249945   7.575   5.404  10.434  1.8938  0.0108 -1.3763
 8584TIP3   OH249946   1.768   5.502  11.688  0.6306  0.8924  0.3774
 8584TIP3    H149947   1.702   5.444  11.726  1.6656 -1.6384 -1.4406
 8584TIP3    H249948   1.851   5.469  11.722  1.3166  0.6048 -1.4977
 8585TIP3   OH249949   0.260   5.740  11.720  0.0233  0.0047  0.0369
 8585TIP3    H149950   0.345   5.726  11.762  0.0245  0.7216  0.2813
 8585TIP3    H249951   0.257   5.834  11.704  0.2233 -0.2916 -1.9919
 8586TIP3   OH249952   3.051   4.539  11.825 -0.1496  0.7929  0.2856
 8586TIP3    H149953   3.110   4.484  11.774  0.5180  0.1902  1.6555
 8586TIP3    H249954   2.999   4.585  11.759 -0.3345 -1.0310 -0.9429
 8587TIP3   OH249955   5.288   0.305  11.950 -0.6024  0.4012  0.6368
 8587TIP3    H149956   5.201   0.324  11.985 -2.1928 -2.2223 -1.4476
 8587TIP3    H249957   5.299   0.368  11.878 -1.1439  0.2432  0.4110
 8588TIP3   OH249958   3.298   3.260  10.675 -0.4633  0.2299  0.4841
 8588TIP3    H149959   3.299   3.222  10.763 -1.3129 -0.6643  0.1300
 8588TIP3    H249960   3.369   3.215  10.629 -0.6963 -0.0757  0.4161
 8589TIP3   OH249961   4.924   5.936  13.222  0.1968  0.5133 -0.0175
 8589TIP3    H149962   4.980   5.950  13.146  0.0228 -0.4942 -0.3489
 8589TIP3    H249963   4.984   5.934  13.296  0.3821  1.3760 -0.1336
 8590TIP3   OH249964   1.140   3.977  12.519 -0.4435  0.5744 -0.0023
 8590TIP3    H149965   1.187   3.985  12.436 -0.9843  0.3174 -0.3399
 8590TIP3    H249966   1.118   3.885  12.525 -1.7336  0.8424 -0.3239
 8591TIP3   OH249967   7.537   6.445  11.621  0.2270  0.7366  0.0182
 8591TIP3    H149968   7.495   6.530  11.608 -0.9579 -0.0449 -1.5426
 8591TIP3    H249969   7.586   6.429  11.541  1.5943  0.5585  0.8701
 8592TIP3   OH249970   1.212   7.048  13.188  0.2274  0.0114 -0.5346
 8592TIP3    H149971   1.250   7.045  13.101  0.7261 -0.3637 -0.3068
 8592TIP3    H249972   1.124   7.011  13.177  0.4895 -0.5501 -0.7727
 8593TIP3   OH249973   1.578   1.520  11.504  0.2284  0.1786  0.0444
 8593TIP3    H149974   1.673   1.515  11.511  0.3187  0.3591 -0.8559
 8593TIP3    H249975   1.550   1.432  11.482  0.4870  0.6494 -2.4542
 8594TIP3   OH249976   1.193   4.260  12.009 -0.3051  0.0564  0.3078
 8594TIP3    H149977   1.270   4.267  12.065 -0.0114  0.9694 -0.1969
 8594TIP3    H249978   1.228   4.252  11.921 -0.7784 -0.7043  0.1789
 8595TIP3   OH249979   0.389   4.415  11.099  0.4411 -0.0285 -0.1990
 8595TIP3    H149980   0.322   4.372  11.150  0.0957  2.0568  1.2179
 8595TIP3    H249981   0.417   4.489  11.153  1.3752  1.2017 -2.2460
 8596TIP3   OH249982   1.099   0.306  12.403  0.1940  0.1118  0.0434
 8596TIP3    H149983   1.005   0.317  12.390  0.1804  0.5110  0.4311
 8596TIP3    H249984   1.131   0.267  12.322 -0.3994 -0.5798  0.1364
 8597TIP3   OH249985   1.109   5.277  12.544  0.0824  0.3117 -0.5718
 8597TIP3    H149986   1.081   5.220  12.616 -3.4420  2.3904 -0.0640
 8597TIP3    H249987   1.149   5.353  12.587  1.9812 -0.3327 -1.1024
 8598TIP3   OH249988   2.579   2.485  12.432  0.0331 -0.3046  0.4650
 8598TIP3    H149989   2.509   2.420  12.439 -0.6510  0.3744  0.0917
 8598TIP3    H249990   2.587   2.523  12.520 -0.3515 -0.0934  0.4073
 8599TIP3   OH249991   4.769   7.625  11.696 -0.4449 -0.0850 -0.0240
 8599TIP3    H149992   4.679   7.654  11.685 -0.4758 -0.1761 -0.0109
 8599TIP3    H249993   4.813   7.649  11.614 -1.0441 -2.1841 -1.0367
 8600TIP3   OH249994   5.294   1.623  12.619  0.1534 -0.2764 -0.6133
 8600TIP3    H149995   5.319   1.614  12.527  3.2210 -1.5899  0.2309
 8600TIP3    H249996   5.222   1.561  12.630 -1.8006  1.4664 -2.5025
 8601TIP3   OH249997   5.639   0.747  12.530 -0.5948  0.6078 -0.0464
 8601TIP3    H149998   5.563   0.693  12.509 -0.3180  0.7768 -1.6343
 8601TIP3    H249999   5.666   0.719  12.617 -0.9137 -1.3020 -0.5203
 8602TIP3   OH250000   6.746   1.138  12.409  0.3350  0.2924 -0.1497
 8602TIP3    H150001   6.832   1.137  12.365 -0.1631  0.0312 -1.1466
 8602TIP3    H250002   6.683   1.124  12.338 -0.4221 -1.5911  0.8149
 8603TIP3   OH250003   6.389   6.114  11.366 -0.7021 -0.3018 -0.3072
 8603TIP3    H150004   6.359   6.197  11.328  1.7824  0.0363 -1.7500
 8603TIP3    H250005   6.398   6.132  11.460 -0.2182  1.0961 -0.5974
 8604TIP3   OH250006   5.033   1.525  12.887 -0.6157 -0.7008 -0.5172
 8604TIP3    H150007   4.943   1.509  12.916 -0.8866  1.0812 -0.2783
 8604TIP3    H250008   5.026   1.542  12.794 -0.4312 -1.1581 -0.6190
 8605TIP3   OH250009   0.851   2.106  11.455 -0.2039 -0.1407  0.1415
 8605TIP3    H150010   0.916   2.058  11.404 -1.3659 -0.0828 -1.4362
 8605TIP3    H250011   0.877   2.198  11.445 -0.6866 -0.0946 -0.7317
 8606TIP3   OH250012   7.573   5.462  13.293 -0.4941  0.1138 -0.7121
 8606TIP3    H150013   7.616   5.378  13.307  1.4290  1.1002 -0.3187
 8606TIP3    H250014   7.631   5.509  13.233 -0.0764  2.1510  1.1484
 8607TIP3   OH250015   5.416   7.205  10.573 -0.3219 -0.6494 -0.6577
 8607TIP3    H150016   5.504   7.208  10.537 -0.5383  2.5176 -1.2186
 8607TIP3    H250017   5.427   7.221  10.667 -0.2799 -0.7833 -0.6395
 8608TIP3   OH250018   6.547   1.503  12.671 -0.1564 -0.2484 -0.5853
 8608TIP3    H150019   6.548   1.508  12.575 -0.9090 -0.0693 -0.5945
 8608TIP3    H250020   6.463   1.461  12.691 -0.7814  1.2302  0.0482
 8609TIP3   OH250021   3.098   2.217  11.596 -0.3773 -0.5722  0.4449
 8609TIP3    H150022   3.164   2.217  11.527  0.2445 -0.8721  1.0310
 8609TIP3    H250023   3.065   2.127  11.598 -0.9565 -0.3767  0.0196
 8610TIP3   OH250024   7.217   1.126  11.981  0.1919  0.2975 -0.5772
 8610TIP3    H150025   7.274   1.083  12.044  1.4829  1.7279 -0.7169
 8610TIP3    H250026   7.142   1.156  12.034  0.7917  0.6331  0.0917
 8611TIP3   OH250027   7.619   7.301  11.469 -0.0708 -0.1452  0.0758
 8611TIP3    H150028   7.706   7.286  11.431 -0.4750  0.7921 -1.2783
 8611TIP3    H250029   7.574   7.217  11.458 -0.1704  0.0960 -1.5433
 8612TIP3   OH250030   0.501   6.684  11.736  0.3001 -0.0243  0.3730
 8612TIP3    H150031   0.573   6.746  11.754 -0.3220  0.6132  0.7028
 8612TIP3    H250032   0.499   6.677  11.641  0.5587  0.2433  0.3464
 8613TIP3   OH250033   1.310   3.913  12.055 -0.6088 -0.1381 -0.4043
 8613TIP3    H150034   1.313   3.836  12.111  0.7176 -0.0305 -0.2996
 8613TIP3    H250035   1.311   3.878  11.966 -0.9759 -0.2634 -0.3605
 8614TIP3   OH250036   3.258   3.276  12.143 -0.1675  0.1725 -0.2827
 8614TIP3    H150037   3.272   3.348  12.081  0.0448  0.4624  0.0958
 8614TIP3    H250038   3.258   3.319  12.229 -0.2887 -0.2499 -0.0711
 8615TIP3   OH250039   0.976   1.157  11.608  0.3419  0.3007 -0.3557
 8615TIP3    H150040   1.015   1.236  11.645  0.9893  0.4850 -1.3951
 8615TIP3    H250041   0.884   1.180  11.593  0.7299  1.2044 -1.5261
 8616TIP3   OH250042   5.453   6.833  11.824 -0.1409  0.1511 -0.4238
 8616TIP3    H150043   5.402   6.792  11.893 -2.8169  2.8788 -0.5909
 8616TIP3    H250044   5.480   6.917  11.860  3.3922 -0.6724 -0.7975
 8617TIP3   OH250045   7.548   0.122  11.985 -0.2933 -0.3816 -0.1684
 8617TIP3    H150046   7.536   0.096  11.894  0.7666  0.8666 -0.6927
 8617TIP3    H250047   7.601   0.051  12.023  1.0802  0.0966 -1.1106
 8618TIP3   OH250048   1.623   3.909  12.093  0.1288 -0.3634  0.0256
 8618TIP3    H150049   1.714   3.878  12.088  0.0970 -0.3035 -1.1777
 8618TIP3    H250050   1.570   3.831  12.079 -0.0399 -0.5020  1.2874
 8619TIP3   OH250051   1.220   1.609  11.487 -0.0080  0.8228  0.4062
 8619TIP3    H150052   1.212   1.555  11.565 -0.1507  0.1506 -0.0632
 8619TIP3    H250053   1.310   1.643  11.490  0.4455 -0.3142  0.1538
 8620TIP3   OH250054   2.659   7.444  10.791  0.9193  0.3094  0.5302
 8620TIP3    H150055   2.682   7.383  10.861 -1.0125 -0.7384  0.3116
 8620TIP3    H250056   2.654   7.529  10.834 -1.2488 -0.4702  1.9549
 8621TIP3   OH250057   4.545   6.936  11.454 -0.7327 -0.2550 -0.9711
 8621TIP3    H150058   4.502   6.852  11.467 -0.0284 -0.4842  0.0312
 8621TIP3    H250059   4.632   6.915  11.421  0.0359 -0.0589  0.7823
 8622TIP3   OH250060   5.654   1.696  11.234 -0.0543 -0.0465  0.1779
 8622TIP3    H150061   5.697   1.772  11.273  0.9209 -1.7021  2.5439
 8622TIP3    H250062   5.701   1.683  11.151  1.3887  0.5144  0.8682
 8623TIP3   OH250063   0.943   5.509  13.102  0.2419 -0.2712  0.4463
 8623TIP3    H150064   0.892   5.560  13.166 -0.7216 -0.8500  0.1690
 8623TIP3    H250065   0.877   5.458  13.055  0.9185  0.1314 -1.0110
 8624TIP3   OH250066   2.287   0.782  13.092  0.1035  0.7370 -0.0241
 8624TIP3    H150067   2.311   0.858  13.039 -0.6685 -0.7724 -2.7282
 8624TIP3    H250068   2.368   0.731  13.100  0.1811  0.8782  0.0850
 8625TIP3   OH250069   4.029   5.184  11.190  0.4561 -0.2508 -0.3692
 8625TIP3    H150070   4.082   5.119  11.238  1.7016 -0.1483 -1.5455
 8625TIP3    H250071   3.940   5.172  11.224  1.3205  0.1144  2.2781
 8626TIP3   OH250072   5.227   2.436  12.316  0.0639  0.2062 -0.6918
 8626TIP3    H150073   5.143   2.406  12.283 -0.1083  0.9931 -1.0029
 8626TIP3    H250074   5.281   2.446  12.238  0.6327 -0.8095 -0.4478
 8627TIP3   OH250075   1.777   2.298  11.654 -0.1706  0.1083 -0.2742
 8627TIP3    H150076   1.802   2.255  11.573  1.2673 -0.7224  0.5664
 8627TIP3    H250077   1.783   2.392  11.634 -0.4965 -0.0776 -1.2984
 8628TIP3   OH250078   1.742   4.280  11.473 -0.0676  0.3250 -0.5928
 8628TIP3    H150079   1.718   4.299  11.564  0.6710  0.6566 -0.4591
 8628TIP3    H250080   1.741   4.185  11.467  0.6086  0.2677 -0.0208
 8629TIP3   OH250081   5.123   2.739  11.738  0.0275  0.2319  0.3385
 8629TIP3    H150082   5.184   2.685  11.687 -0.4050  1.2822 -1.3755
 8629TIP3    H250083   5.039   2.694  11.729 -0.0177  0.3323  0.2577
 8630TIP3   OH250084   0.859   2.059  12.314  0.3262  0.2392 -0.1920
 8630TIP3    H150085   0.900   1.988  12.364  1.5684  1.7867  1.0998
 8630TIP3    H250086   0.780   2.020  12.278 -1.2118 -0.8097  3.7412
 8631TIP3   OH250087   6.699   0.226  11.066  0.2185 -0.2778  0.4078
 8631TIP3    H150088   6.723   0.213  10.974 -1.6053 -0.5868 -0.0611
 8631TIP3    H250089   6.694   0.138  11.102 -1.5287 -0.3447  0.1000
 8632TIP3   OH250090   5.411   0.867  11.436  0.6026 -1.3947  0.1863
 8632TIP3    H150091   5.433   0.839  11.525  0.3643  0.3570  0.8322
 8632TIP3    H250092   5.366   0.950  11.448  2.8652  0.2308 -1.7097
 8633TIP3   OH250093   7.255   5.168  11.073 -0.2150 -0.3183 -0.3440
 8633TIP3    H150094   7.307   5.128  11.143 -1.3012 -2.9635 -0.9237
 8633TIP3    H250095   7.312   5.235  11.036  1.4229 -0.7109  1.2957
 8634TIP3   OH250096   2.938   6.042  12.319  0.7095  0.1537 -0.1574
 8634TIP3    H150097   2.998   6.117  12.328 -0.3227  0.9351  0.4461
 8634TIP3    H250098   2.990   5.975  12.276  1.8120  1.0568 -0.2829
 8635TIP3   OH250099   1.599   6.846  12.753  0.1339  0.7767 -0.0021
 8635TIP3    H150100   1.673   6.876  12.806  0.4258  0.7488 -0.3858
 8635TIP3    H250101   1.603   6.901  12.674  0.3343  0.1182 -0.4615
 8636TIP3   OH250102   5.321   3.646  12.465 -0.2211 -0.0198 -0.5058
 8636TIP3    H150103   5.397   3.589  12.476 -0.7586 -0.4725  0.9791
 8636TIP3    H250104   5.326   3.675  12.373  0.8599 -1.2864 -0.8703
 8637TIP3   OH250105   0.127   4.916  11.049 -0.3923 -0.0703  0.2731
 8637TIP3    H150106   0.148   4.824  11.032 -0.6635 -0.0781 -0.0493
 8637TIP3    H250107   0.032   4.922  11.033 -0.0706  0.6704 -1.6620
 8638TIP3   OH250108   0.267   1.137  12.680 -0.5507  0.0049 -0.3166
 8638TIP3    H150109   0.198   1.203  12.669  0.0543  0.6463 -0.3430
 8638TIP3    H250110   0.333   1.161  12.615 -0.4984 -0.8662 -0.5876
 8639TIP3   OH250111   6.606   3.759  11.694 -0.1326 -0.8306 -0.3472
 8639TIP3    H150112   6.611   3.671  11.657  2.5648 -0.6989 -0.5068
 8639TIP3    H250113   6.679   3.764  11.755  0.2881  1.5243 -0.9257
 8640TIP3   OH250114   3.308   6.802  11.042 -0.0331  0.3524  0.3047
 8640TIP3    H150115   3.351   6.882  11.071 -0.3161  0.8938 -0.7082
 8640TIP3    H250116   3.350   6.732  11.092  0.7403  1.0535  0.6518
 8641TIP3   OH250117   7.111   4.569  10.788  0.0939  0.5592  0.3568
 8641TIP3    H150118   7.119   4.661  10.811 -0.5765  0.2596  1.9674
 8641TIP3    H250119   7.034   4.539  10.837  1.6670 -1.3945  1.7914
 8642TIP3   OH250120   1.465   2.662  10.745  0.2490  0.0148  0.1486
 8642TIP3    H150121   1.477   2.602  10.672 -0.6758 -0.1794  0.1444
 8642TIP3    H250122   1.520   2.738  10.723  1.3274 -0.7501  0.0925
 8643TIP3   OH250123   0.277   5.125  11.860 -0.8011  0.2285 -0.0712
 8643TIP3    H150124   0.325   5.045  11.881 -1.8293  0.1093  2.0952
 8643TIP3    H250125   0.185   5.099  11.861 -1.1412  1.3843  0.5316
 8644TIP3   OH250126   6.083   3.564  11.989  0.5456  0.3881  0.1963
 8644TIP3    H150127   6.065   3.579  11.896 -1.2453  1.6267  0.6970
 8644TIP3    H250128   6.137   3.485  11.990  0.4400  0.2308 -1.8746
 8645TIP3   OH250129   2.228   2.760  11.432 -0.3982  0.1774 -0.7590
 8645TIP3    H150130   2.151   2.818  11.436  0.8109  1.8440  2.4740
 8645TIP3    H250131   2.300   2.818  11.405  0.5307 -0.1655  0.8782
 8646TIP3   OH250132   7.426   2.675  11.122 -0.2877 -0.0258 -0.1024
 8646TIP3    H150133   7.397   2.743  11.060  1.8998 -0.3897 -1.6568
 8646TIP3    H250134   7.498   2.716  11.170 -0.3730 -0.5583  0.4871
 8647TIP3   OH250135   3.342   3.057  11.765 -0.1646 -0.6875 -0.1498
 8647TIP3    H150136   3.401   3.118  11.809 -2.3391  0.5577  1.2344
 8647TIP3    H250137   3.329   2.986  11.828 -0.3832 -0.7828 -0.2983
 8648TIP3   OH250138   3.589   4.641  11.179  0.2376 -0.4623 -0.2027
 8648TIP3    H150139   3.501   4.673  11.201  0.5489  0.3112 -0.0549
 8648TIP3    H250140   3.610   4.686  11.097  0.0217 -1.5544 -0.8707
 8649TIP3   OH250141   6.676   0.993  12.641 -0.3354  0.1216  0.2406
 8649TIP3    H150142   6.586   0.968  12.621 -0.3060  0.0686  0.1745
 8649TIP3    H250143   6.701   1.052  12.571  0.3045 -1.2976 -0.7756
 8650TIP3   OH250144   1.395   0.107  10.581 -0.9515  0.1838 -0.3674
 8650TIP3    H150145   1.467   0.045  10.581 -1.3203 -0.2688 -1.2547
 8650TIP3    H250146   1.436   0.192  10.592 -0.3149 -0.1046 -0.4632
 8651TIP3   OH250147   7.632   4.040  12.302 -0.5622 -0.0392 -0.5557
 8651TIP3    H150148   7.705   4.030  12.363 -0.0726  0.2602 -1.0813
 8651TIP3    H250149   7.575   4.105  12.343 -1.5701 -1.7041  0.8120
 8652TIP3   OH250150   1.061   3.726  12.336 -0.3033  0.2259 -0.0455
 8652TIP3    H150151   1.021   3.666  12.273 -0.1072 -0.4319  0.4498
 8652TIP3    H250152   0.995   3.736  12.405 -0.0955  0.0984  0.1741
 8653TIP3   OH250153   4.702   2.615  12.787  0.2199  0.9240 -0.0351
 8653TIP3    H150154   4.625   2.612  12.844  1.2210 -2.8170  1.4179
 8653TIP3    H250155   4.773   2.581  12.841  1.6642 -1.0616 -2.9406
 8654TIP3   OH250156   4.669   3.057  11.327 -0.0498 -0.1536 -0.5563
 8654TIP3    H150157   4.650   3.077  11.419  1.0859 -1.9629  0.1270
 8654TIP3    H250158   4.583   3.060  11.284 -1.0466 -1.9052  1.1431
 8655TIP3   OH250159   2.254   5.257  12.011 -0.4475 -0.5734  0.2241
 8655TIP3    H150160   2.341   5.255  12.051 -0.1511  0.9827 -0.2896
 8655TIP3    H250161   2.194   5.236  12.083  0.2138  0.2428  1.0376
 8656TIP3   OH250162   4.034   5.028  12.250 -0.2793 -0.2500 -0.3815
 8656TIP3    H150163   3.966   5.069  12.195 -0.1607  1.1885  0.4776
 8656TIP3    H250164   4.105   5.092  12.251 -0.3631 -0.1365  1.5953
 8657TIP3   OH250165   3.255   6.720  12.856  0.4186  0.6347  0.1049
 8657TIP3    H150166   3.280   6.634  12.822  0.7530  1.3083 -1.4303
 8657TIP3    H250167   3.163   6.729  12.833 -0.8042 -0.8398  3.6558
 8658TIP3   OH250168   1.004   7.167  12.004 -0.1550  0.5085 -0.3111
 8658TIP3    H150169   1.023   7.261  12.005  1.0394  0.2906  1.2727
 8658TIP3    H250170   0.910   7.161  12.022 -0.0235  1.3917  0.7832
 8659TIP3   OH250171   7.084   3.250  11.608  0.8937 -0.0388 -0.0715
 8659TIP3    H150172   7.100   3.261  11.515 -0.0228 -1.6765 -0.4544
 8659TIP3    H250173   6.991   3.266  11.619  0.9040 -0.3299  0.4815
 8660TIP3   OH250174   2.094   5.802  10.930  0.1708 -0.0438 -1.1463
 8660TIP3    H150175   2.188   5.810  10.946  0.1700  0.1411 -1.2381
 8660TIP3    H250176   2.053   5.821  11.015 -0.0038  4.1956 -1.9986
 8661TIP3   OH250177   1.276   0.499  12.501  0.0271  0.2042  0.7565
 8661TIP3    H150178   1.241   0.417  12.466 -0.0094  1.2717 -1.8991
 8661TIP3    H250179   1.217   0.521  12.574 -1.2547 -1.0473  0.1448
 8662TIP3   OH250180   1.820   4.370  10.881  0.1736 -0.6232  0.2073
 8662TIP3    H150181   1.853   4.397  10.795  0.7992 -0.5552  0.4618
 8662TIP3    H250182   1.897   4.332  10.925  0.0172 -0.0717  0.9784
 8663TIP3   OH250183   4.155   4.981  11.326 -0.3506  0.1144 -0.4036
 8663TIP3    H150184   4.133   4.889  11.337  1.1829 -0.0874  1.5559
 8663TIP3    H250185   4.244   4.989  11.361  1.0788  1.6581 -3.8871
 8664TIP3   OH250186   4.078   2.414  12.436 -0.2871 -0.0190  0.1288
 8664TIP3    H150187   4.063   2.354  12.509  0.2066 -0.6129 -0.2443
 8664TIP3    H250188   3.991   2.440  12.407 -0.6606 -2.5374 -1.3084
 8665TIP3   OH250189   2.077   6.562  13.048  0.4654  0.0030 -0.3097
 8665TIP3    H150190   2.063   6.489  12.989 -0.3712  1.2111 -1.6703
 8665TIP3    H250191   2.156   6.606  13.015  1.3960 -0.6575  0.9335
 8666TIP3   OH250192   7.423   5.781  11.633 -0.6876  0.1670 -0.5948
 8666TIP3    H150193   7.505   5.795  11.586 -0.4951 -2.9331 -1.3581
 8666TIP3    H250194   7.447   5.787  11.725  0.3166 -0.2436 -0.8200
 8667TIP3   OH250195   0.038   1.060  12.397 -0.5768  0.0392 -0.2014
 8667TIP3    H150196   0.050   1.153  12.416 -0.9932  0.0986 -0.2160
 8667TIP3    H250197   0.041   1.054  12.301  1.2346 -0.2194 -0.1526
 8668TIP3   OH250198   0.761   0.054  10.978 -0.0803  0.1283  0.3648
 8668TIP3    H150199   0.780   0.103  11.057  0.2657  1.6888 -0.6349
 8668TIP3    H250200   0.831  -0.012  10.973 -0.0460  0.0917  1.2896
 8669TIP3   OH250201   1.051   0.660  11.718  0.5215  0.2424 -0.0538
 8669TIP3    H150202   1.070   0.567  11.710 -0.4053  0.2226 -3.5971
 8669TIP3    H250203   0.962   0.664  11.752 -0.2083 -0.3051 -1.8000
 8670TIP3   OH250204   3.902   0.429  11.133  0.0155  0.5319 -0.6076
 8670TIP3    H150205   3.922   0.359  11.195  0.3816  0.5675 -0.6817
 8670TIP3    H250206   3.906   0.509  11.185  3.0431  0.8569 -1.1748
 8671TIP3   OH250207   1.672   1.229  11.674  0.0066  0.2846  0.2395
 8671TIP3    H150208   1.698   1.199  11.587  1.0867  1.2837  0.1901
 8671TIP3    H250209   1.578   1.245  11.667 -0.1739 -0.9071 -0.3509
 8672TIP3   OH250210   0.485   7.051  12.505 -0.3833 -0.4137 -0.1917
 8672TIP3    H150211   0.474   7.133  12.458 -0.9387 -0.9904 -1.1062
 8672TIP3    H250212   0.400   7.035  12.547 -1.0870 -1.6739 -1.9741
 8673TIP3   OH250213   4.886   1.976  11.396  0.2182  0.0370  0.2769
 8673TIP3    H150214   4.977   1.987  11.368  0.2826 -0.0099  0.4716
 8673TIP3    H250215   4.835   1.992  11.316  0.3134  1.4550  0.4780
 8674TIP3   OH250216   7.350   2.300  10.894  0.5026  0.1345  0.3454
 8674TIP3    H150217   7.426   2.345  10.930  0.2449  1.1917 -0.3765
 8674TIP3    H250218   7.385   2.248  10.822  0.4856  1.1671 -0.4454
 8675TIP3   OH250219   3.807   5.064  12.860  0.4236 -0.1240  0.1512
 8675TIP3    H150220   3.742   5.103  12.918 -2.2795 -0.9388 -2.1011
 8675TIP3    H250221   3.890   5.071  12.907 -1.3634  0.4256  3.4640
 8676TIP3   OH250222   1.015   3.105  13.032 -0.4601  0.1576 -0.2487
 8676TIP3    H150223   1.060   3.034  13.078  2.1944  0.7615 -1.6958
 8676TIP3    H250224   1.079   3.176  13.031 -1.1818  0.8760 -3.0128
 8677TIP3   OH250225   3.346   0.005  10.945  0.2146 -0.0791  0.4522
 8677TIP3    H150226   3.279  -0.014  10.880  0.0488  1.0532  0.2805
 8677TIP3    H250227   3.298   0.012  11.028  0.2627 -0.2692  0.4977
 8678TIP3   OH250228   4.152   3.879  12.691  0.1604 -0.0732 -0.0539
 8678TIP3    H150229   4.103   3.816  12.743 -0.9878  0.7144 -0.1503
 8678TIP3    H250230   4.240   3.840  12.683 -0.3031 -1.2884  0.5007
 8679TIP3   OH250231   1.714   7.390  12.415 -0.6875  0.4163 -0.1732
 8679TIP3    H150232   1.723   7.473  12.462 -1.3820  0.2544  0.2487
 8679TIP3    H250233   1.620   7.374  12.411 -0.5290 -0.7565  0.4710
 8680TIP3   OH250234   2.585   3.091  11.615 -0.1074  0.2292  0.8736
 8680TIP3    H150235   2.598   3.130  11.701  0.6297  0.4306  0.6774
 8680TIP3    H250236   2.672   3.089  11.576 -0.1088 -1.6397  0.8792
 8681TIP3   OH250237   6.907   5.542  12.995  0.5349  0.2539  0.0017
 8681TIP3    H150238   6.820   5.569  13.025  0.8541 -0.4570  1.7015
 8681TIP3    H250239   6.967   5.576  13.061  1.1218 -2.8812  1.2985
 8682TIP3   OH250240   5.531   0.133  11.626  0.2221 -0.3809 -0.2962
 8682TIP3    H150241   5.619   0.146  11.663 -0.1373  0.6926  0.2417
 8682TIP3    H250242   5.495   0.059  11.675  0.3675 -0.0183  0.3770
 8683TIP3   OH250243   7.604   6.561  10.733  0.3158 -0.4833 -0.3951
 8683TIP3    H150244   7.675   6.625  10.729  0.9727 -1.0920  0.9982
 8683TIP3    H250245   7.585   6.541  10.641  0.6872  1.0380 -0.8288
 8684TIP3   OH250246   4.804   5.331  12.661 -0.0531 -0.0982 -0.2430
 8684TIP3    H150247   4.881   5.341  12.606 -0.4558 -0.1982 -0.8312
 8684TIP3    H250248   4.738   5.388  12.621 -0.4929 -0.5230 -0.1395
 8685TIP3   OH250249   2.248   6.852  11.103 -0.1784  0.2784  0.1915
 8685TIP3    H150250   2.154   6.834  11.116 -0.4955  0.3544 -1.6398
 8685TIP3    H250251   2.259   6.943  11.131 -0.5167  0.0899  0.9716
 8686TIP3   OH250252   0.840   5.668  13.306 -0.2454  0.0504 -0.3290
 8686TIP3    H150253   0.895   5.745  13.293 -0.2862  0.1300 -0.0350
 8686TIP3    H250254   0.755   5.703  13.332 -0.1784 -0.1047  0.1031
 8687TIP3   OH250255   2.539   5.958  12.294  0.4143 -0.2871  0.2223
 8687TIP3    H150256   2.606   6.013  12.252 -1.8534  1.7956 -0.9218
 8687TIP3    H250257   2.550   5.973  12.387  1.2813  0.3454  0.0277
 8688TIP3   OH250258   3.449   1.095  10.981  0.2093  0.1093  0.5577
 8688TIP3    H150259   3.526   1.038  10.986  1.5228  1.7999  0.7089
 8688TIP3    H250260   3.410   1.075  10.896  0.3079 -1.3639  0.8255
 8689TIP3   OH250261   4.059   5.481  11.953  0.3629 -0.0648 -0.2244
 8689TIP3    H150262   4.075   5.574  11.942  2.0948 -0.2491  0.5070
 8689TIP3    H250263   4.098   5.441  11.875  1.1841 -0.3035  0.2965
 8690TIP3   OH250264   3.986   6.598  11.953 -0.0046  0.0240 -0.2939
 8690TIP3    H150265   3.969   6.589  11.859  0.9783 -0.1103 -0.4785
 8690TIP3    H250266   3.902   6.624  11.991 -0.8452 -1.5849 -0.9611
 8691TIP3   OH250267   6.389   6.298  10.665  0.5286 -0.5773  0.1421
 8691TIP3    H150268   6.378   6.391  10.684 -0.0089 -1.1283  2.9495
 8691TIP3    H250269   6.483   6.283  10.668  0.5667 -0.2653  0.5313
 8692TIP3   OH250270   3.108   5.453  11.431  0.1142 -0.5649  0.1197
 8692TIP3    H150271   3.038   5.390  11.446  1.0170 -1.7090 -0.3674
 8692TIP3    H250272   3.189   5.404  11.447  0.8327  1.1517  2.4167
 8693TIP3   OH250273   4.853   7.515  12.676 -0.4194  0.0041 -0.5522
 8693TIP3    H150274   4.859   7.447  12.609  0.5838 -0.4560 -0.0241
 8693TIP3    H250275   4.931   7.569  12.662  1.2541 -1.5968  1.7849
 8694TIP3   OH250276   1.618   1.709  13.350  0.5979 -0.0620 -0.5105
 8694TIP3    H150277   1.616   1.692  13.444  1.0626 -0.8367 -0.6334
 8694TIP3    H250278   1.535   1.755  13.333  0.5921  0.2454  0.2987
 8695TIP3   OH250279   3.657   5.198  12.659  0.0890 -0.3002  0.4728
 8695TIP3    H150280   3.722   5.250  12.707  0.9722 -1.3463  0.4447
 8695TIP3    H250281   3.647   5.118  12.711 -0.8027 -0.3692  0.2029
 8696TIP3   OH250282   6.111   0.688  12.791  0.3718  0.8387 -0.0630
 8696TIP3    H150283   6.205   0.704  12.787  0.3432  0.9238 -0.4264
 8696TIP3    H250284   6.085   0.717  12.879  0.2220  3.2551 -0.8493
 8697TIP3   OH250285   2.692   4.024  11.437 -0.2474 -0.1091 -0.6756
 8697TIP3    H150286   2.748   4.031  11.360  0.4418  0.6950 -0.1241
 8697TIP3    H250287   2.614   4.075  11.415 -0.4336 -0.5883 -1.1520
 8698TIP3   OH250288   3.246   2.302  12.423  0.4723  0.5251 -0.1346
 8698TIP3    H150289   3.200   2.311  12.339  0.3466  0.5327 -0.0650
 8698TIP3    H250290   3.195   2.237  12.472  0.9172  0.0270 -0.3161
 8699TIP3   OH250291   3.325   6.344  11.212  0.2357 -0.3701  0.0771
 8699TIP3    H150292   3.242   6.314  11.176  0.2707 -0.3020 -0.0591
 8699TIP3    H250293   3.344   6.282  11.283 -1.6892  1.5742  2.4886
 8700TIP3   OH250294   4.581   5.660  12.146  0.1956 -0.0726  0.1505
 8700TIP3    H150295   4.623   5.605  12.213 -1.2825 -1.0796  0.3041
 8700TIP3    H250296   4.489   5.635  12.149 -0.3737  1.7962 -0.4330
 8701TIP3   OH250297   1.065   6.074  12.747 -0.3416 -0.0854 -0.3188
 8701TIP3    H150298   1.005   6.106  12.680 -0.2840 -0.7510 -0.7022
 8701TIP3    H250299   1.012   6.066  12.826 -0.6653 -0.3059 -0.5591
 8702TIP3   OH250300   6.877   4.494  12.320  0.0929  0.3262  0.3585
 8702TIP3    H150301   6.870   4.412  12.272  2.5188 -0.7122  1.6000
 8702TIP3    H250302   6.878   4.468  12.412 -0.8776  1.9430  0.8799
 8703TIP3   OH250303   5.842   3.635  10.881  0.5923  0.2113 -0.2864
 8703TIP3    H150304   5.870   3.626  10.972  0.7844  0.1367 -0.3518
 8703TIP3    H250305   5.841   3.546  10.847  0.6260  0.2493 -0.3882
 8704TIP3   OH250306   0.752   3.264  13.231 -0.3524 -0.0255 -0.4729
 8704TIP3    H150307   0.728   3.355  13.213  0.6164  0.5119  0.8020
 8704TIP3    H250308   0.841   3.269  13.266 -0.4760 -1.4274  0.1108
 8705TIP3   OH250309   2.659   5.972  13.179  0.0010 -0.0992 -0.0589
 8705TIP3    H150310   2.630   5.888  13.144  1.4701 -1.1125  1.0233
 8705TIP3    H250311   2.626   5.973  13.269  0.0048  0.4776 -0.0616
 8706TIP3   OH250312   5.954   2.993  11.595  0.4029  0.0383 -0.1737
 8706TIP3    H150313   5.901   3.027  11.667  0.2222 -0.7849  0.0894
 8706TIP3    H250314   6.044   3.013  11.620  0.3970 -0.8259  0.6234
 8707TIP3   OH250315   1.368   2.281  12.277 -0.4585  0.0338 -0.2350
 8707TIP3    H150316   1.353   2.322  12.362  1.2567 -0.5302  0.3886
 8707TIP3    H250317   1.347   2.350  12.213  1.8567  1.8247  0.7545
 8708TIP3   OH250318   6.968   7.195  12.605  0.3191 -0.5757  0.6307
 8708TIP3    H150319   7.031   7.163  12.669  0.5765  0.8329  1.1227
 8708TIP3    H250320   7.012   7.269  12.564 -0.1019 -1.0642 -0.7314
 8709TIP3   OH250321   1.001   6.439  11.311  0.4808 -0.0711  0.0183
 8709TIP3    H150322   1.029   6.454  11.221  0.6298  2.6816  0.4340
 8709TIP3    H250323   1.078   6.402  11.355  0.3918 -1.4691 -0.9397
 8710TIP3   OH250324   0.402   1.795  12.392  0.1704 -0.3268 -1.0925
 8710TIP3    H150325   0.471   1.729  12.396 -0.3833 -0.9039 -0.9335
 8710TIP3    H250326   0.349   1.770  12.315 -0.7701 -0.8110 -0.3147
 8711TIP3   OH250327   1.660   3.263  12.768  0.2741  0.1102  0.5704
 8711TIP3    H150328   1.691   3.297  12.684  0.0429  0.2132  0.5272
 8711TIP3    H250329   1.710   3.312  12.834  1.0717 -0.5516  0.4884
 8712TIP3   OH250330   4.766   1.572  11.628  0.0229  0.4345 -0.1824
 8712TIP3    H150331   4.751   1.477  11.631  1.4022  0.2051  0.4199
 8712TIP3    H250332   4.855   1.583  11.663  0.6516  1.7927 -2.0501
 8713TIP3   OH250333   1.852   7.332  10.673  0.0956 -0.3810  0.6750
 8713TIP3    H150334   1.863   7.237  10.676  2.1248 -0.4307 -2.8349
 8713TIP3    H250335   1.926   7.363  10.620 -1.2185  3.0121  0.5775
 8714TIP3   OH250336   2.979   1.943  10.653 -0.3224  0.2077  0.1575
 8714TIP3    H150337   2.953   2.020  10.704  1.8789  1.5854 -0.6304
 8714TIP3    H250338   2.956   1.868  10.708 -1.7062  1.4644  1.3625
 8715TIP3   OH250339   2.808   1.879  13.000 -0.3230  0.0130  0.2892
 8715TIP3    H150340   2.767   1.940  12.939 -3.2539 -0.8332  1.2686
 8715TIP3    H250341   2.819   1.799  12.950 -0.4677  0.0561  0.1882
 8716TIP3   OH250342   1.547   3.548  11.557 -0.6119  0.0279  0.2455
 8716TIP3    H150343   1.476   3.484  11.563 -1.8431  1.3249  0.2442
 8716TIP3    H250344   1.611   3.508  11.499 -0.6599 -1.7916  1.3866
 8717TIP3   OH250345   3.454   4.523  11.502  0.0552 -0.2157  0.6057
 8717TIP3    H150346   3.527   4.585  11.496 -0.8974  1.0096  1.0813
 8717TIP3    H250347   3.495   4.437  11.499  1.5116  0.4348  0.8162
 8718TIP3   OH250348   2.432   0.710  12.521 -0.0712  0.1065  0.4817
 8718TIP3    H150349   2.367   0.768  12.479 -1.0902 -0.9576  0.5312
 8718TIP3    H250350   2.467   0.762  12.593 -1.7878  0.3016  1.2244
 8719TIP3   OH250351   0.767   1.321  12.347 -0.8560 -0.2013 -0.2446
 8719TIP3    H150352   0.754   1.231  12.315  0.0704 -0.8683  1.1593
 8719TIP3    H250353   0.819   1.363  12.279  0.3153 -1.3186 -0.0831
 8720TIP3   OH250354   5.024   0.743  13.583  0.0413  0.5721 -0.6000
 8720TIP3    H150355   5.074   0.770  13.506 -0.4443 -0.2811 -1.2382
 8720TIP3    H250356   4.965   0.817  13.600  0.2749  0.8431 -0.9395
 8721TIP3   OH250357   7.653   5.605  10.477 -0.3701 -0.2642  0.1841
 8721TIP3    H150358   7.730   5.547  10.476 -0.2284 -0.0891  0.7513
 8721TIP3    H250359   7.673   5.671  10.544 -0.1650  0.9490 -1.0290
 8722TIP3   OH250360   3.352   5.311  12.947 -0.1759 -0.1631  0.6022
 8722TIP3    H150361   3.292   5.356  13.007  0.4653  1.2775  0.1922
 8722TIP3    H250362   3.366   5.373  12.876 -1.0981 -1.9283 -1.2077
 8723TIP3   OH250363   5.663   0.052  12.326  0.5807  0.3918 -0.0816
 8723TIP3    H150364   5.704  -0.033  12.342 -1.6360 -0.7524 -0.0154
 8723TIP3    H250365   5.570   0.032  12.319 -0.1431  2.9707  1.0167
 8724TIP3   OH250366   0.676   0.265  11.458  0.4747 -0.2437 -0.8179
 8724TIP3    H150367   0.709   0.266  11.548  1.8489 -1.4377 -1.2753
 8724TIP3    H250368   0.587   0.230  11.466  0.6179 -0.4247  0.0817
 8725TIP3   OH250369   0.030   4.960  11.895 -0.8492 -0.3603 -0.0490
 8725TIP3    H150370   0.067   4.896  11.833  1.0097 -1.6579  2.2374
 8725TIP3    H250371  -0.024   4.907  11.954 -2.1407  0.7681 -0.1726
 8726TIP3   OH250372   1.509   2.096  11.501  0.2596 -0.0845 -0.4165
 8726TIP3    H150373   1.503   2.097  11.596 -0.7547 -0.4459 -0.4679
 8726TIP3    H250374   1.419   2.084  11.471  0.6473 -0.6644 -1.4057
 8727TIP3   OH250375   2.253   4.954  10.984  0.0354  0.7796 -0.5920
 8727TIP3    H150376   2.298   4.950  10.900  1.1703 -0.6579  0.0291
 8727TIP3    H250377   2.176   4.898  10.973  0.2585  0.4800 -0.6314
 8728TIP3   OH250378   3.665   0.167  11.680 -0.1117 -0.1323  0.2419
 8728TIP3    H150379   3.688   0.226  11.609 -2.5914 -0.9213 -1.3378
 8728TIP3    H250380   3.630   0.224  11.749  1.1800  0.5259  0.3854
 8729TIP3   OH250381   3.183   0.917  12.410 -0.1390 -0.5743  0.2226
 8729TIP3    H150382   3.273   0.947  12.419 -0.1231 -0.8429  1.0802
 8729TIP3    H250383   3.163   0.926  12.317  0.2477  0.9702  0.2537
 8730TIP3   OH250384   3.451   2.606  10.781 -0.8401  0.7189  0.1170
 8730TIP3    H150385   3.534   2.626  10.737 -0.1860 -0.7520  0.6148
 8730TIP3    H250386   3.418   2.691  10.811 -0.4126  1.5398 -1.6220
 8731TIP3   OH250387   3.126   5.697  12.018 -0.1592  0.5515  0.3721
 8731TIP3    H150388   3.187   5.631  11.987  0.2530  1.3714 -0.6216
 8731TIP3    H250389   3.057   5.699  11.952 -1.1783 -0.2180  1.3736
 8732TIP3   OH250390   2.418   5.664  10.594 -0.3721  0.2385 -0.2774
 8732TIP3    H150391   2.380   5.751  10.607 -0.3461  0.4525 -1.5647
 8732TIP3    H250392   2.354   5.618  10.540 -1.1982 -1.1512  1.7437
 8733TIP3   OH250393   7.522   4.581  12.664 -0.2084  0.4005 -0.1717
 8733TIP3    H150394   7.469   4.613  12.591 -0.7726 -0.1822 -0.0304
 8733TIP3    H250395   7.462   4.527  12.715  1.0711 -2.4887 -1.4225
 8734TIP3   OH250396   6.144   5.532  12.632  0.0115 -0.1922 -0.0830
 8734TIP3    H150397   6.081   5.460  12.628  0.9818 -1.0264 -0.8373
 8734TIP3    H250398   6.214   5.500  12.689 -0.1607  0.6774  0.6444
 8735TIP3   OH250399   6.867   4.099  10.966  0.3913  0.4755 -0.3795
 8735TIP3    H150400   6.779   4.127  10.940 -0.2858 -0.9482  0.2593
 8735TIP3    H250401   6.905   4.063  10.886 -0.7157 -1.5082 -0.0903
 8736TIP3   OH250402   4.980   3.665  12.997 -0.8921  0.2830 -0.2333
 8736TIP3    H150403   4.917   3.595  13.010  0.9789 -1.5679 -0.5717
 8736TIP3    H250404   4.970   3.691  12.906 -0.9839 -0.1998 -0.3629
 8737TIP3   OH250405   2.609   1.784  10.702 -0.0786 -0.3358  0.6214
 8737TIP3    H150406   2.653   1.701  10.719 -1.6355 -1.0995  1.1417
 8737TIP3    H250407   2.581   1.815  10.789 -0.8152 -0.0314  0.2847
 8738TIP3   OH250408   5.538   5.697  10.552  0.0455 -0.1555  0.6729
 8738TIP3    H150409   5.508   5.624  10.606  0.2879 -0.7762 -0.0029
 8738TIP3    H250410   5.556   5.657  10.466  1.8686  0.3577  0.7819
 8739TIP3   OH250411   3.479   0.186  12.592 -0.2461  0.0931 -0.0217
 8739TIP3    H150412   3.529   0.106  12.573  0.1280  0.1435  0.7190
 8739TIP3    H250413   3.388   0.160  12.578 -0.0139  0.2376 -2.2281
 8740TIP3   OH250414   2.063   5.652  13.419 -0.6758 -0.3377  0.2651
 8740TIP3    H150415   2.079   5.582  13.482  0.0527 -0.2937  0.1398
 8740TIP3    H250416   1.968   5.664  13.419 -0.9150 -1.9995 -0.4357
 8741TIP3   OH250417   7.390   5.931  12.496  0.5173  0.5012  0.0427
 8741TIP3    H150418   7.371   5.959  12.407  3.3492  1.0924 -0.4589
 8741TIP3    H250419   7.483   5.908  12.495  0.5002  0.0129  2.7115
 8742TIP3   OH250420   1.063   6.952  11.359 -0.4268  0.1581  0.0829
 8742TIP3    H150421   1.042   6.861  11.342  0.4099 -0.0553  0.1516
 8742TIP3    H250422   1.012   6.975  11.437  1.1257 -0.9600  1.5016
 8743TIP3   OH250423   7.025   5.496  10.850 -0.1290  0.2294 -0.2703
 8743TIP3    H150424   7.005   5.589  10.862 -2.0888 -0.2151  0.2701
 8743TIP3    H250425   7.093   5.495  10.782 -1.3592  1.9893 -1.6556
 8744TIP3   OH250426   6.241   7.304  11.889  0.1373 -0.2023 -0.4307
 8744TIP3    H150427   6.334   7.313  11.911 -0.3501  1.1813  1.2116
 8744TIP3    H250428   6.218   7.217  11.921  0.2478  0.4984  1.6870
 8745TIP3   OH250429   4.672   1.743  12.798 -0.5425  0.0052  0.0182
 8745TIP3    H150430   4.698   1.666  12.849  0.2279  0.3333  0.1336
 8745TIP3    H250431   4.695   1.817  12.854 -1.5337  0.3178  0.0230
 8746TIP3   OH250432   0.349   1.683  12.125  0.5152 -0.1786 -0.0310
 8746TIP3    H150433   0.379   1.676  12.034  1.5487 -0.2905  0.3080
 8746TIP3    H250434   0.260   1.720  12.118  2.2314  4.5835 -0.9607
 8747TIP3   OH250435   0.453   4.174  10.984 -0.5490 -0.1546  0.8980
 8747TIP3    H150436   0.383   4.109  10.984 -0.2826 -0.8685 -4.3507
 8747TIP3    H250437   0.409   4.258  10.980 -1.0234 -0.3857  1.2290
 8748TIP3   OH250438   5.527   1.839  12.214  0.3825  0.0074  0.0125
 8748TIP3    H150439   5.536   1.926  12.175 -2.2502  0.6286  0.5873
 8748TIP3    H250440   5.520   1.780  12.139 -0.8279  0.7013 -0.4446
 8749TIP3   OH250441   1.235   7.657  12.288  0.0912  0.2355  0.1025
 8749TIP3    H150442   1.238   7.742  12.245 -0.6856  1.2714  1.9644
 8749TIP3    H250443   1.316   7.651  12.338  1.4357 -1.3687 -2.0860
 8750TIP3   OH250444   1.328   6.861  12.820 -0.0277  0.0275 -0.1400
 8750TIP3    H150445   1.406   6.861  12.765 -0.6046 -0.6474 -0.9968
 8750TIP3    H250446   1.273   6.792  12.783  0.7737 -2.5867  3.0597
 8751TIP3   OH250447   3.890   5.444  11.175  0.2254  0.5040  0.0895
 8751TIP3    H150448   3.923   5.355  11.189 -0.7500  0.3400  1.5682
 8751TIP3    H250449   3.807   5.432  11.128  0.2521  0.6536  0.0030
 8752TIP3   OH250450   4.681   3.814  12.655 -0.0848 -0.6066  0.1997
 8752TIP3    H150451   4.698   3.826  12.562  0.3517  0.3557  0.3980
 8752TIP3    H250452   4.716   3.893  12.697 -2.0134 -0.1182  0.9837
 8753TIP3   OH250453   6.563   0.427  10.943 -0.0467 -0.4776  0.0347
 8753TIP3    H150454   6.551   0.396  10.853 -2.4886 -0.2567  0.2085
 8753TIP3    H250455   6.595   0.350  10.990 -0.0700 -0.9865 -0.7531
 8754TIP3   OH250456   1.499   2.016  11.774 -0.4270 -0.1974  0.2445
 8754TIP3    H150457   1.477   1.927  11.800 -2.3332 -0.6905 -2.5785
 8754TIP3    H250458   1.430   2.071  11.812 -0.5616 -0.2700  0.1074
 8755TIP3   OH250459   4.118   7.053  12.274  0.1138  0.3103  0.2758
 8755TIP3    H150460   4.065   7.122  12.234  0.6786 -0.2105 -1.4353
 8755TIP3    H250461   4.065   7.023  12.348 -2.3535 -0.6359 -1.7233
 8756TIP3   OH250462   2.800   6.951  11.538 -0.2275 -0.4603 -0.1239
 8756TIP3    H150463   2.766   6.874  11.582  0.0491 -0.1451  0.6558
 8756TIP3    H250464   2.806   7.018  11.606 -1.8520  0.7234 -1.0669
 8757TIP3   OH250465   2.222   4.198  13.399 -0.2160 -0.2521  0.4752
 8757TIP3    H150466   2.184   4.141  13.332  2.1911 -0.7584 -0.5685
 8757TIP3    H250467   2.310   4.164  13.412  0.5214  1.8711  1.4960
 8758TIP3   OH250468   6.977   6.318  12.238 -0.6965  0.6497  0.0835
 8758TIP3    H150469   6.930   6.377  12.179 -2.0135 -1.2813 -0.9178
 8758TIP3    H250470   7.052   6.289  12.186 -0.9131  0.2582 -0.0124
 8759TIP3   OH250471   5.389   5.995  11.546  0.1585 -0.2740 -0.0754
 8759TIP3    H150472   5.370   6.051  11.621  1.3264 -0.6980  0.5684
 8759TIP3    H250473   5.429   6.054  11.482  1.4219 -0.3485  0.6148
 8760TIP3   OH250474   6.771   4.352  11.683  0.9360  0.1837 -0.6759
 8760TIP3    H150475   6.716   4.337  11.606  0.4292 -1.2228 -0.0712
 8760TIP3    H250476   6.850   4.301  11.667  1.2239  0.6126 -0.6513
 8761TIP3   OH250477   1.763   5.205  10.742  0.2999  0.2253  0.7037
 8761TIP3    H150478   1.722   5.265  10.804  0.5579 -0.9464  2.0651
 8761TIP3    H250479   1.798   5.135  10.797  1.0628 -0.5540 -0.7350
 8762TIP3   OH250480   3.782   6.826  12.001  0.0114 -0.4334  1.1788
 8762TIP3    H150481   3.808   6.879  11.925  0.4862 -1.8521  0.3063
 8762TIP3    H250482   3.739   6.888  12.060 -1.2111  0.5484 -0.6579
 8763TIP3   OH250483   7.509   4.169  12.603 -0.1212 -0.0645  0.1778
 8763TIP3    H150484   7.422   4.168  12.563 -0.4269 -0.0508  0.8231
 8763TIP3    H250485   7.493   4.145  12.694  0.6571 -0.8692  0.1078
 8764TIP3   OH250486   1.181   1.629  17.258  1.0488  0.3504  0.5211
 8764TIP3    H150487   1.230   1.547  17.261  2.5000  1.0993 -1.1511
 8764TIP3    H250488   1.214   1.674  17.181 -1.0789  1.6827  0.2997
 8765TIP3   OH250489   1.159   7.260  10.951 -0.2703  0.2905 -0.1236
 8765TIP3    H150490   1.139   7.167  10.938 -2.0280  0.3469  1.6237
 8765TIP3    H250491   1.137   7.302  10.869 -1.3473 -0.5848 -0.2943
 8766TIP3   OH250492   2.278   2.766  10.849  0.1876 -0.6128  1.0184
 8766TIP3    H150493   2.320   2.683  10.828  0.5074  0.4606 -3.3051
 8766TIP3    H250494   2.350   2.826  10.868  0.0652 -0.7394  1.9460
 8767TIP3   OH250495   2.011   4.460  12.205 -0.1836 -0.2045  0.1734
 8767TIP3    H150496   1.931   4.508  12.222  0.8780  1.2796  1.2612
 8767TIP3    H250497   2.050   4.502  12.128 -0.1669 -0.5537 -0.0131
 8768TIP3   OH250498   2.563   3.542  13.360 -0.5898 -0.4668  0.2112
 8768TIP3    H150499   2.619   3.496  13.423 -0.3253 -1.9523 -1.0312
 8768TIP3    H250500   2.526   3.615  13.409  3.8509  1.8465  0.6839
 8769TIP3   OH250501   6.907   5.995  12.406 -0.4908 -0.2641  0.5864
 8769TIP3    H150502   6.876   5.920  12.457 -0.4466  0.9350  2.5210
 8769TIP3    H250503   6.828   6.033  12.369 -0.9333  0.4302  2.1328
 8770TIP3   OH250504   0.685   6.904  13.932 -0.1645  0.1492 -0.1939
 8770TIP3    H150505   0.720   6.836  13.875 -0.4201 -0.1527  0.0059
 8770TIP3    H250506   0.761   6.957  13.957 -0.1133  0.5445 -1.1556
 8771TIP3   OH250507   5.697   4.946  12.819  0.3625 -0.2842 -0.4021
 8771TIP3    H150508   5.738   4.949  12.905 -1.5325  0.0306  0.5516
 8771TIP3    H250509   5.635   4.874  12.824  0.7506 -0.7570 -1.7886
 8772TIP3   OH250510   3.177   0.435  11.710  0.3310  0.2950  0.1586
 8772TIP3    H150511   3.265   0.453  11.676 -0.2204  0.6010 -1.1262
 8772TIP3    H250512   3.192   0.417  11.803  1.4715  2.7222  0.5230
 8773TIP3   OH250513   7.125   5.466  13.336  0.3345  0.1371  0.1396
 8773TIP3    H150514   7.150   5.528  13.404  0.0739  0.1216  0.2516
 8773TIP3    H250515   7.030   5.476  13.327  0.1468 -0.8786  0.8086
 8774TIP3   OH250516   0.093   7.216  12.174 -0.0065  0.6075 -0.1741
 8774TIP3    H150517   0.058   7.144  12.226 -1.1116  0.3913 -1.1775
 8774TIP3    H250518   0.182   7.229  12.208  0.1402 -1.0676  0.1833
 8775TIP3   OH250519   6.844   0.797  12.286  0.0562  0.0498 -0.3002
 8775TIP3    H150520   6.909   0.843  12.338 -1.3935  0.4424  1.2287
 8775TIP3    H250521   6.840   0.709  12.324  0.0423 -0.1332 -0.7143
 8776TIP3   OH250522   5.309   3.008  18.804 -0.0756  0.4483 -0.1802
 8776TIP3    H150523   5.332   3.093  18.842 -1.0946  0.4819  0.3950
 8776TIP3    H250524   5.213   3.009  18.799 -0.3450 -1.7052  2.3578
 8777TIP3   OH250525   4.783   0.290  11.916 -0.3843  0.3108  0.2614
 8777TIP3    H150526   4.808   0.369  11.868  0.8378  0.8042  1.6367
 8777TIP3    H250527   4.694   0.272  11.887 -0.4537  1.8265 -0.5804
 8778TIP3   OH250528   0.573   0.310  10.692 -0.5818 -0.1071 -0.8388
 8778TIP3    H150529   0.487   0.274  10.672 -0.0489 -1.4308 -0.8018
 8778TIP3    H250530   0.631   0.235  10.695  0.2893  0.5793  0.7559
 8779TIP3   OH250531   5.910   0.744  12.086  0.0421 -0.0609 -0.1259
 8779TIP3    H150532   5.871   0.706  12.165 -0.0807  1.1483  0.4124
 8779TIP3    H250533   5.840   0.796  12.047  1.1926  2.6661  1.2030
 8780TIP3   OH250534   3.474   3.527  11.310 -0.4799  0.4754  0.0933
 8780TIP3    H150535   3.495   3.561  11.223 -0.4403  1.0839  0.3411
 8780TIP3    H250536   3.465   3.604  11.365  0.9868  0.0581  0.9798
 8781TIP3   OH250537   5.476   6.148  13.320 -0.6802 -0.5873 -0.4194
 8781TIP3    H150538   5.539   6.128  13.389  0.7466  0.0279 -1.5084
 8781TIP3    H250539   5.399   6.182  13.367  0.7639  1.1389  0.8293
 8782TIP3   OH250540   1.331   6.731  11.086 -0.8018 -0.1221  0.3029
 8782TIP3    H150541   1.377   6.661  11.132 -1.3208 -1.0607 -0.5733
 8782TIP3    H250542   1.393   6.762  11.020 -1.0258 -0.6472 -0.1610
 8783TIP3   OH250543   4.545   3.425  11.820 -0.7035 -0.2924  0.0140
 8783TIP3    H150544   4.488   3.349  11.832 -0.2836 -0.4523  1.1310
 8783TIP3    H250545   4.485   3.497  11.801 -1.0196 -1.1732 -2.7095
 8784TIP3   OH250546   3.165   2.996  12.164  0.3923  0.0744  0.3345
 8784TIP3    H150547   3.193   2.943  12.239 -0.1665  0.7265  1.0159
 8784TIP3    H250548   3.217   3.076  12.172  0.3852  0.1121 -0.0220
 8785TIP3   OH250549   6.878   3.572  11.818 -0.3387  0.0842  0.1383
 8785TIP3    H150550   6.954   3.529  11.857 -2.0544  0.0202  3.7914
 8785TIP3    H250551   6.888   3.664  11.841 -0.4558  0.4103 -1.0392
 8786TIP3   OH250552   6.331   4.945  12.301  0.0839  0.1463 -0.0553
 8786TIP3    H150553   6.322   4.975  12.392 -2.7534  0.3701 -0.3360
 8786TIP3    H250554   6.255   4.889  12.287  0.6951 -0.2099 -2.1990
 8787TIP3   OH250555   7.099   0.350  10.214 -0.1594  0.3063  0.0702
 8787TIP3    H150556   7.033   0.282  10.205  0.1649  0.2102 -2.5571
 8787TIP3    H250557   7.053   0.424  10.252 -2.0778  0.4864 -2.3425
 8788TIP3   OH250558   3.651   7.141  10.646  0.1788 -0.1312 -0.4695
 8788TIP3    H150559   3.586   7.076  10.673 -0.3600  0.6886  0.2845
 8788TIP3    H250560   3.726   7.089  10.618 -0.1754 -1.0782  0.2629
 8789TIP3   OH250561   5.963   2.426  11.526  0.3669  0.3087  0.3006
 8789TIP3    H150562   5.925   2.354  11.475 -0.8345  0.6506  0.6846
 8789TIP3    H250563   5.920   2.505  11.493  1.3602  0.8195  0.1824
 8790TIP3   OH250564   5.929   3.850  11.645  0.4299 -0.0354 -0.1372
 8790TIP3    H150565   5.910   3.799  11.724  0.9234  3.5425  2.5558
 8790TIP3    H250566   5.847   3.850  11.596 -0.4748 -0.8447  1.3089
 8791TIP3   OH250567   1.311   5.381  12.783  0.1869  0.2703  0.5791
 8791TIP3    H150568   1.393   5.365  12.829  0.3590 -1.7934 -0.3382
 8791TIP3    H250569   1.243   5.375  12.850  0.6860  0.9504  1.1562
 8792TIP3   OH250570   6.048   1.009  12.948  0.0094  0.3008  0.5879
 8792TIP3    H150571   5.987   1.070  12.906 -0.5087 -0.3483  0.3808
 8792TIP3    H250572   6.004   0.924  12.943  0.1444  0.1282  2.0148
 8793TIP3   OH250573   0.546   7.465  10.486 -1.1420 -0.0830  0.6997
 8793TIP3    H150574   0.593   7.513  10.554 -0.9415 -0.8165  1.0931
 8793TIP3    H250575   0.584   7.377  10.488 -0.9925 -0.0543 -0.5098
 8794TIP3   OH250576   0.844   5.903  12.280 -0.0463 -0.0412  0.1902
 8794TIP3    H150577   0.784   5.908  12.354  1.4377  0.9201  1.3847
 8794TIP3    H250578   0.927   5.872  12.317  0.4819 -0.4365 -1.2388
 8795TIP3   OH250579   5.396   3.204  11.983  0.0078  0.3905  0.1826
 8795TIP3    H150580   5.333   3.133  11.970  0.2621  0.0636  0.6847
 8795TIP3    H250581   5.424   3.194  12.074  2.2251 -0.6499 -0.5546
 8796TIP3   OH250582   0.682   2.321  10.700  0.2549  0.5085 -0.2174
 8796TIP3    H150583   0.772   2.338  10.728  1.3624  0.4132 -3.3532
 8796TIP3    H250584   0.682   2.229  10.674 -0.8410  0.4346 -0.0117
 8797TIP3   OH250585   3.132   4.054  10.551  0.2486  0.0038  0.0730
 8797TIP3    H150586   3.228   4.047  10.546  0.3624  0.3472  1.2872
 8797TIP3    H250587   3.116   4.144  10.577 -0.4806  0.2673 -1.2261
 8798TIP3   OH250588   2.712   5.794  12.014  0.3714  0.4703 -0.2979
 8798TIP3    H150589   2.680   5.707  11.991 -0.2816  0.4141  0.7489
 8798TIP3    H250590   2.744   5.784  12.104 -1.0532  1.6407  0.3646
 8799TIP3   OH250591   5.496   2.297  11.814 -0.5053 -0.4353  0.1433
 8799TIP3    H150592   5.548   2.219  11.833  0.1380  0.0005  0.2236
 8799TIP3    H250593   5.561   2.366  11.799 -1.0474  0.5187  1.8676
 8800TIP3   OH250594   5.901   6.219  13.305 -0.5361  0.0606  0.1647
 8800TIP3    H150595   5.860   6.133  13.292 -1.7290  0.8579 -1.6981
 8800TIP3    H250596   5.876   6.245  13.393  1.1518 -2.1403  1.4145
 8801TIP3   OH250597   6.202   2.065  12.128 -0.5045 -0.5920  0.2518
 8801TIP3    H150598   6.248   2.055  12.211  1.8472  1.3056 -0.7137
 8801TIP3    H250599   6.215   1.981  12.083  0.8796 -0.5607  0.5588
 8802TIP3   OH250600   1.558   0.627  12.789 -0.0580  0.3613  0.3476
 8802TIP3    H150601   1.519   0.578  12.862  1.3930 -0.1295  0.8291
 8802TIP3    H250602   1.521   0.715  12.797 -1.1437 -0.1009  0.6960
 8803TIP3   OH250603   6.243   1.616  11.720  0.1226 -0.6427  0.5926
 8803TIP3    H150604   6.261   1.699  11.762 -2.9868 -0.7305  2.4360
 8803TIP3    H250605   6.238   1.636  11.627 -0.0825  1.1560  0.9649
 8804TIP3   OH250606   0.037   7.426  10.514  0.0363  0.0024 -0.5665
 8804TIP3    H150607  -0.022   7.489  10.557  0.6573  1.1933 -1.3894
 8804TIP3    H250608  -0.022   7.362  10.475 -0.5583 -1.0539  1.8805
 8805TIP3   OH250609   0.442   5.860  12.610 -0.5268  0.1360 -0.5893
 8805TIP3    H150610   0.371   5.823  12.557 -1.8533 -0.3498  1.4208
 8805TIP3    H250611   0.427   5.826  12.698  1.7360  0.7173  0.0940
 8806TIP3   OH250612   4.754   3.704  11.414  0.1066 -0.0682 -0.3500
 8806TIP3    H150613   4.683   3.655  11.456 -0.1659 -0.7717 -1.5815
 8806TIP3    H250614   4.710   3.762  11.352  0.1058  4.2986  3.2613
 8807TIP3   OH250615   1.756   4.101  12.312  0.0935  0.2103  0.1646
 8807TIP3    H150616   1.816   4.108  12.238 -0.5112 -0.0830 -0.3667
 8807TIP3    H250617   1.739   4.191  12.338  0.5566  0.3034  0.1540
 8808TIP3   OH250618   0.245   3.375  12.194 -0.3398  0.4584  0.0680
 8808TIP3    H150619   0.228   3.297  12.141  2.6717  0.7449 -1.5361
 8808TIP3    H250620   0.191   3.443  12.154 -0.8032 -0.1378 -0.3556
 8809TIP3   OH250621   2.895   3.129  11.187  0.6405 -0.1857 -0.3279
 8809TIP3    H150622   2.893   3.180  11.106  0.6405 -2.6678 -2.0060
 8809TIP3    H250623   2.823   3.164  11.239 -1.0703 -0.2083 -2.5439
 8810TIP3   OH250624   1.151   3.311  10.435 -0.1828  0.6536  0.2108
 8810TIP3    H150625   1.102   3.248  10.488  0.8961 -0.1987  0.2356
 8810TIP3    H250626   1.223   3.260  10.397  0.6488  1.8473  0.1147
 8811TIP3   OH250627   6.812   7.450  12.614  0.3314 -0.3711 -0.2375
 8811TIP3    H150628   6.843   7.359  12.608 -0.0317 -0.3914 -4.0812
 8811TIP3    H250629   6.880   7.502  12.572 -0.6720  0.7990 -0.4658
 8812TIP3   OH250630   0.844   6.450  10.913  0.3181 -0.3570 -0.2144
 8812TIP3    H150631   0.935   6.474  10.900  0.0526  0.2743 -0.9596
 8812TIP3    H250632   0.801   6.531  10.942 -0.0465 -0.5951 -0.0752
 8813TIP3   OH250633   2.641   0.672  11.749  0.0237  0.1386 -0.2565
 8813TIP3    H150634   2.555   0.669  11.791 -0.5156 -1.0159 -1.3917
 8813TIP3    H250635   2.640   0.752  11.696 -0.7007 -0.3384 -0.9732
 8814TIP3   OH250636   1.061   5.537  10.914 -0.1050 -0.4217  0.5979
 8814TIP3    H150637   1.132   5.493  10.868 -0.5543 -0.9030  0.3500
 8814TIP3    H250638   1.104   5.606  10.965  0.5038 -0.5307  0.2400
 8815TIP3   OH250639   2.509   0.297  11.739 -0.1809  1.0575 -0.1753
 8815TIP3    H150640   2.595   0.305  11.782 -0.4722  1.3659  0.3644
 8815TIP3    H250641   2.447   0.327  11.805 -0.5214  3.1526 -1.3658
 8816TIP3   OH250642   5.002   0.703  12.639 -0.0532  0.6476  0.4211
 8816TIP3    H150643   5.000   0.747  12.554  1.0554 -0.5107 -0.2445
 8816TIP3    H250644   4.920   0.654  12.643 -0.1967  0.8584  0.1060
 8817TIP3   OH250645   1.255   4.083  12.957 -0.5204 -0.3930 -0.2179
 8817TIP3    H150646   1.177   4.042  12.993  0.2692 -0.8652  1.0263
 8817TIP3    H250647   1.228   4.116  12.871 -1.8094 -1.3928 -0.2184
 8818TIP3   OH250648   0.755   3.641  10.967 -0.1121 -0.1228 -0.3353
 8818TIP3    H150649   0.737   3.564  11.020  0.3305  1.4856  2.3163
 8818TIP3    H250650   0.715   3.621  10.882  0.8026 -3.6014 -0.0853
 8819TIP3   OH250651   1.056   4.240  11.399 -0.3625 -0.2881 -0.2053
 8819TIP3    H150652   1.112   4.163  11.408  0.9103  0.7070  0.7862
 8819TIP3    H250653   1.117   4.314  11.395 -1.5755  0.9426  1.9751
 8820TIP3   OH250654   6.715   6.616  11.535 -0.5338  0.0783  0.0833
 8820TIP3    H150655   6.757   6.697  11.564  2.1438 -0.8948 -0.7530
 8820TIP3    H250656   6.762   6.593  11.455 -0.4771 -2.8397  0.8534
 8821TIP3   OH250657   4.943   7.202  12.783  0.2900  0.2791 -0.1657
 8821TIP3    H150658   4.911   7.289  12.759  1.4080  0.6899 -0.2008
 8821TIP3    H250659   4.870   7.163  12.831 -0.5540  0.8911 -0.9083
 8822TIP3   OH250660   3.654   5.667  11.456 -0.1310  0.3693  0.5746
 8822TIP3    H150661   3.559   5.676  11.446 -0.2245 -0.5289  0.5806
 8822TIP3    H250662   3.665   5.621  11.540  0.1032 -2.9176 -1.0960
 8823TIP3   OH250663   2.395   2.342  11.058 -0.1858  0.4308  0.6108
 8823TIP3    H150664   2.365   2.396  11.131 -0.4263  0.2929  0.6162
 8823TIP3    H250665   2.317   2.332  11.003 -0.8890 -2.0823  1.9194
 8824TIP3   OH250666   5.188   0.542  11.489 -0.2194 -0.3633  0.2298
 8824TIP3    H150667   5.129   0.604  11.531  1.7507  2.2829 -0.5906
 8824TIP3    H250668   5.152   0.529  11.402 -2.3735 -3.0661  1.3729
 8825TIP3   OH250669   1.187   0.838  12.153  0.3475  0.2404  0.2675
 8825TIP3    H150670   1.120   0.898  12.186  0.6930 -0.6141  2.7609
 8825TIP3    H250671   1.141   0.754  12.144 -0.2624  0.7902 -3.6685
 8826TIP3   OH250672   6.943   6.476  13.237 -0.2598 -0.7407 -0.0717
 8826TIP3    H150673   6.947   6.387  13.272 -0.7879 -0.6454  0.2382
 8826TIP3    H250674   6.946   6.464  13.142 -2.0307 -1.2146 -0.1084
 8827TIP3   OH250675   1.762   5.853  11.750 -0.1518  0.6987  0.4152
 8827TIP3    H150676   1.834   5.791  11.743 -0.5752  0.3463 -1.1750
 8827TIP3    H250677   1.685   5.804  11.724 -0.7706  1.4470  0.7681
 8828TIP3   OH250678   2.459   2.085  11.118 -0.0005  0.4057 -0.4079
 8828TIP3    H150679   2.420   2.166  11.084 -1.3589 -0.2243 -0.4012
 8828TIP3    H250680   2.481   2.105  11.209 -1.8208  0.3030  0.0923
 8829TIP3   OH250681   2.363   2.861  12.962 -0.3227  0.4528 -0.3242
 8829TIP3    H150682   2.393   2.936  13.013  2.6698 -0.1325 -1.0000
 8829TIP3    H250683   2.374   2.889  12.871  0.4930 -0.6458 -0.5815
 8830TIP3   OH250684   3.871   7.376  12.330 -0.2593  0.0318 -0.4230
 8830TIP3    H150685   3.951   7.421  12.356 -0.1397  0.2777 -1.2000
 8830TIP3    H250686   3.895   7.329  12.250 -0.2595 -1.7519  0.5666
 8831TIP3   OH250687   5.196   1.335  12.851 -0.2799 -0.2784  0.3295
 8831TIP3    H150688   5.140   1.412  12.859 -0.5145 -0.0573 -2.3452
 8831TIP3    H250689   5.273   1.356  12.904 -0.4972  1.6756 -0.0508
 8832TIP3   OH250690   0.192   6.453  12.010 -0.2314  0.0356 -0.5520
 8832TIP3    H150691   0.197   6.446  11.914 -0.0759 -0.8589 -0.4863
 8832TIP3    H250692   0.204   6.364  12.041  1.6337  0.5618  0.3972
 8833TIP3   OH250693   3.868   2.661  12.980  0.9791  0.3144 -0.2392
 8833TIP3    H150694   3.780   2.693  13.001  1.3625  2.0483 -1.1378
 8833TIP3    H250695   3.866   2.644  12.886  1.5298  0.0874 -0.2170
 8834TIP3   OH250696   6.710   4.881  12.198 -0.3611  0.2984 -0.0664
 8834TIP3    H150697   6.801   4.900  12.176 -1.3298  2.1626 -2.9233
 8834TIP3    H250698   6.666   4.966  12.198 -2.3593 -0.6653 -0.0756
 8835TIP3   OH250699   5.396   4.703  11.413 -0.2100  0.0213  0.2170
 8835TIP3    H150700   5.311   4.701  11.369 -0.2324 -3.9613  0.1111
 8835TIP3    H250701   5.453   4.650  11.357  2.6888  3.0891 -0.0743
 8836TIP3   OH250702   4.300   6.211  12.655 -0.0024  0.0084  0.2578
 8836TIP3    H150703   4.367   6.158  12.696  0.1396 -0.9529 -1.1372
 8836TIP3    H250704   4.255   6.254  12.728  0.6758 -1.0685  1.3465
 8837TIP3   OH250705   6.056   6.421  13.174  0.4832 -0.1903  0.2961
 8837TIP3    H150706   6.009   6.503  13.189  0.4165 -0.0546 -0.5847
 8837TIP3    H250707   6.037   6.368  13.251 -0.1335  0.3139  0.5021
 8838TIP3   OH250708   6.200   3.302  11.960  0.5769 -0.2003 -0.5585
 8838TIP3    H150709   6.266   3.319  11.892  0.1626 -0.5517 -1.0571
 8838TIP3    H250710   6.197   3.207  11.967 -0.1805 -0.2075 -0.8470
 8839TIP3   OH250711   2.793   6.117  11.272 -0.3214  0.1826 -1.0328
 8839TIP3    H150712   2.812   6.173  11.197  0.5411  0.6456 -0.4849
 8839TIP3    H250713   2.828   6.031  11.247 -0.0026  0.3451 -1.1508
 8840TIP3   OH250714   1.576   3.108  11.145 -0.5444 -0.1908 -0.4927
 8840TIP3    H150715   1.565   3.013  11.153 -2.1902 -0.1092 -1.3140
 8840TIP3    H250716   1.553   3.127  11.054 -1.0080  1.0898 -0.1331
 8841TIP3   OH250717   0.537   3.116  13.132  0.0168 -0.0680  0.2504
 8841TIP3    H150718   0.473   3.186  13.146 -0.0897  0.1572 -1.2197
 8841TIP3    H250719   0.621   3.157  13.152 -0.0471  0.4855 -0.5749
 8842TIP3   OH250720   0.830   5.408  12.175  0.0256  0.2742 -0.4065
 8842TIP3    H150721   0.771   5.359  12.118  1.7252 -0.5727 -1.5456
 8842TIP3    H250722   0.850   5.348  12.247 -1.2127  0.9166  0.5029
 8843TIP3   OH250723   4.477   2.767  11.165 -0.9428 -0.4743 -0.5525
 8843TIP3    H150724   4.418   2.833  11.203 -1.0555 -0.5696 -0.5592
 8843TIP3    H250725   4.545   2.754  11.231  0.2396  1.1400 -1.3896
 8844TIP3   OH250726   7.109   4.893  12.601 -0.2532 -0.6969 -0.0488
 8844TIP3    H150727   7.015   4.904  12.615 -0.1104 -1.0552  1.2814
 8844TIP3    H250728   7.131   4.813  12.649  1.5462  1.7224  3.5746
 8845TIP3   OH250729   4.327   5.150  12.060  0.0258  0.3140  0.0301
 8845TIP3    H150730   4.269   5.122  11.988  0.9927 -0.6524 -0.4088
 8845TIP3    H250731   4.411   5.108  12.040 -0.2366 -1.8862  2.8689
 8846TIP3   OH250732   0.781   5.485  10.825 -0.1058  0.0391 -0.1550
 8846TIP3    H150733   0.871   5.513  10.845 -0.3467  1.1855 -0.5596
 8846TIP3    H250734   0.729   5.520  10.897  0.1109 -3.3461  1.8465
 8847TIP3   OH250735   4.016   0.554  10.900  0.2990 -0.0807 -0.0343
 8847TIP3    H150736   3.997   0.503  10.821 -0.5734 -0.2932  0.2948
 8847TIP3    H250737   3.967   0.509  10.969 -0.1787  0.9858  0.3385
 8848TIP3   OH250738   0.479   5.430  12.128 -0.7332  0.3542 -0.4085
 8848TIP3    H150739   0.415   5.450  12.060 -1.1382 -0.3791 -0.2578
 8848TIP3    H250740   0.539   5.367  12.087  0.4092  1.6711 -0.8199
 8849TIP3   OH250741   2.169   1.652  11.952 -0.0971  0.1239  0.1707
 8849TIP3    H150742   2.121   1.570  11.964 -0.1568  0.1328 -0.0083
 8849TIP3    H250743   2.106   1.720  11.977  0.1354  0.0894  0.8644
 8850TIP3   OH250744   2.411   4.018  11.257  0.0809  0.3434 -0.4665
 8850TIP3    H150745   2.419   4.059  11.171 -0.7721  2.4037  0.3547
 8850TIP3    H250746   2.401   4.092  11.318 -2.1940 -1.0931  1.0680
 8851TIP3   OH250747   6.795   4.571  13.014  0.0931  0.4725 -0.7451
 8851TIP3    H150748   6.718   4.596  13.065  0.7120 -0.1021  0.5295
 8851TIP3    H250749   6.761   4.512  12.948 -0.5484  0.0484 -0.0609
 8852TIP3   OH250750   1.304   0.273  11.053  0.1565 -0.3610 -0.3871
 8852TIP3    H150751   1.396   0.246  11.049  0.5005  0.8477 -0.9680
 8852TIP3    H250752   1.273   0.263  10.963 -0.0197  0.1185 -0.3781
 8853TIP3   OH250753   0.787   5.636  12.488  0.1839  0.3862 -0.0021
 8853TIP3    H150754   0.859   5.613  12.429 -0.0773 -0.4050 -0.0235
 8853TIP3    H250755   0.708   5.609  12.441 -0.0669  0.3527  0.4372
 8854TIP3   OH250756   6.634   5.743  12.477  0.0188  0.2580  0.0686
 8854TIP3    H150757   6.722   5.715  12.501 -0.1633 -0.0625  0.3795
 8854TIP3    H250758   6.589   5.755  12.561 -0.2108  0.4928 -0.0866
 8855TIP3   OH250759   0.920   2.056  13.422  0.2466  0.2398  0.5510
 8855TIP3    H150760   0.906   2.118  13.351  2.7539 -0.4271 -0.6571
 8855TIP3    H250761   0.866   1.980  13.400  0.0186  0.5501  0.0326
 8856TIP3   OH250762   0.837   6.051  11.515  0.2367 -0.2706 -0.4879
 8856TIP3    H150763   0.752   6.092  11.498  0.9312  0.5540 -2.2156
 8856TIP3    H250764   0.881   6.111  11.575  0.1333  0.0456 -0.7208
 8857TIP3   OH250765   5.259   3.705  13.049  0.0672 -0.0548  0.1759
 8857TIP3    H150766   5.287   3.677  12.962  0.8856 -3.3470  1.3502
 8857TIP3    H250767   5.163   3.699  13.047  0.0721  0.0405 -0.5253
 8858TIP3   OH250768   0.985   3.447  12.208  0.7346 -0.2930 -0.4012
 8858TIP3    H150769   1.022   3.431  12.295 -1.4817 -0.1110  0.6730
 8858TIP3    H250770   0.907   3.500  12.226 -0.8400 -1.8165 -2.3067
 8859TIP3   OH250771   0.367   7.195  12.997 -0.4118 -0.0797  0.1677
 8859TIP3    H150772   0.328   7.123  12.947 -1.5970 -0.3814  1.4723
 8859TIP3    H250773   0.398   7.256  12.931 -2.9009  0.0627 -0.9670
 8860TIP3   OH250774   1.636   2.272  12.362  0.4608  0.0487 -0.0341
 8860TIP3    H150775   1.613   2.200  12.421 -1.6764  0.8673  0.2410
 8860TIP3    H250776   1.626   2.235  12.274  1.7667 -0.6409  0.0893
 8861TIP3   OH250777   2.320   1.744  10.761  0.0113 -0.4433  0.1160
 8861TIP3    H150778   2.388   1.786  10.812  0.3548  0.0585 -0.7276
 8861TIP3    H250779   2.355   1.742  10.672 -1.3351  0.4417 -0.4707
 8862TIP3   OH250780   3.022   4.686  10.962 -0.4568 -0.3158  0.4483
 8862TIP3    H150781   2.984   4.611  11.007  1.1936 -1.4319  0.0758
 8862TIP3    H250782   3.039   4.750  11.030 -0.5462 -0.8715  0.9984
 8863TIP3   OH250783   1.688   6.329  11.912 -0.1085  0.3801 -0.1723
 8863TIP3    H150784   1.738   6.379  11.848 -0.3943 -0.8738 -1.4276
 8863TIP3    H250785   1.715   6.238  11.898  1.6943  0.2603  3.1895
 8864TIP3   OH250786   7.412   2.962  10.982  0.1672 -0.2739  0.1273
 8864TIP3    H150787   7.466   3.013  11.042  1.1580  1.2156 -1.9255
 8864TIP3    H250788   7.325   3.003  10.987  0.2391 -0.1655  0.5364
 8865TIP3   OH250789   3.346   0.715  11.567 -0.3244  0.2201  0.2699
 8865TIP3    H150790   3.412   0.651  11.596  0.8381  1.1819 -0.1913
 8865TIP3    H250791   3.342   0.704  11.472 -2.1240 -1.0171  0.4377
 8866TIP3   OH250792   7.237   2.910  11.887  0.4499  0.1841  0.2426
 8866TIP3    H150793   7.244   2.921  11.792 -1.1450 -0.5174  0.0047
 8866TIP3    H250794   7.173   2.839  11.898  1.9009 -0.9661  1.8284
 8867TIP3   OH250795   3.769   6.144  11.101  0.1052  0.3567  0.0370
 8867TIP3    H150796   3.833   6.086  11.060 -0.0199  1.9296 -2.5523
 8867TIP3    H250797   3.685   6.112  11.071 -0.0897  0.6402  0.2760
 8868TIP3   OH250798   1.829   6.175  12.472 -0.0664  0.4221 -0.5682
 8868TIP3    H150799   1.913   6.147  12.436  0.0609 -0.0563  0.0945
 8868TIP3    H250800   1.764   6.127  12.421  0.0674  0.5721 -0.8840
 8869TIP3   OH250801   1.333   6.411  12.261  0.0056  0.5530  0.0372
 8869TIP3    H150802   1.293   6.479  12.315 -0.3824 -0.7832  1.4849
 8869TIP3    H250803   1.367   6.458  12.185  0.2366  2.4475  1.2443
 8870TIP3   OH250804   2.967   1.855  12.729 -0.5409 -0.1673 -0.2744
 8870TIP3    H150805   2.938   1.943  12.752 -0.6193 -0.2026 -0.2371
 8870TIP3    H250806   2.887   1.811  12.699 -0.7634 -0.6368  0.9516
 8871TIP3   OH250807   2.666   0.024  11.270  0.3712  0.1095 -0.7488
 8871TIP3    H150808   2.754   0.048  11.300  0.4222 -0.0389 -0.7812
 8871TIP3    H250809   2.639   0.097  11.214 -0.4505  1.3004  1.0986
 8872TIP3   OH250810   2.663   1.324  12.166 -0.6598 -0.0276  0.2197
 8872TIP3    H150811   2.691   1.375  12.091  0.6788 -0.5723  0.3343
 8872TIP3    H250812   2.724   1.347  12.236 -1.1419 -0.4357  0.7894
 8873TIP3   OH250813   3.027   3.648  12.325 -0.1993  0.0796 -0.2990
 8873TIP3    H150814   3.093   3.718  12.324 -0.4650  0.3333 -0.2941
 8873TIP3    H250815   2.951   3.688  12.367 -1.0869  0.4536 -2.1567
 8874TIP3   OH250816   4.190   2.695  10.803  0.1772 -0.3067 -0.2500
 8874TIP3    H150817   4.217   2.740  10.883 -0.6935  0.4739 -0.3719
 8874TIP3    H250818   4.272   2.669  10.761  0.6454 -0.4262  0.7235
 8875TIP3   OH250819   6.621   7.340  13.292 -0.4093  0.3306  0.7387
 8875TIP3    H150820   6.675   7.283  13.347 -0.6339  0.6389  1.2835
 8875TIP3    H250821   6.631   7.427  13.331 -0.6178  0.5387  0.3253
 8876TIP3   OH250822   4.151   0.082  11.979  0.1590  0.0431 -0.5375
 8876TIP3    H150823   4.148   0.110  11.887 -0.6776  0.1935 -0.4720
 8876TIP3    H250824   4.221   0.134  12.018  0.0744  0.4663 -0.9371
 8877TIP3   OH250825   7.281   0.721  11.047 -0.3269 -0.5565 -1.1431
 8877TIP3    H150826   7.321   0.803  11.075 -2.8141  0.3141  0.2307
 8877TIP3    H250827   7.319   0.655  11.105 -0.7601  0.2218  0.0857
 8878TIP3   OH250828   5.664   6.875  11.448  0.1271  0.5550 -0.2244
 8878TIP3    H150829   5.740   6.858  11.391  0.0572  0.8264 -0.4015
 8878TIP3    H250830   5.611   6.796  11.441  0.0498  0.6420 -0.6509
 8879TIP3   OH250831   5.465   5.805  13.420 -0.0801 -0.2066 -0.6970
 8879TIP3    H150832   5.559   5.811  13.437  0.2122  0.4024 -2.3409
 8879TIP3    H250833   5.439   5.720  13.455  0.8002  0.1584  0.9265
 8880TIP3   OH250834   3.550   2.875  12.663 -0.6302 -0.5103 -0.1534
 8880TIP3    H150835   3.589   2.816  12.599  0.2436 -0.5779  0.4164
 8880TIP3    H250836   3.467   2.902  12.624 -0.8998 -1.8698 -0.5610
 8881TIP3   OH250837   4.402   0.591  11.124 -0.0872 -0.0685  0.8445
 8881TIP3    H150838   4.381   0.588  11.031 -1.0018 -0.9227  1.0681
 8881TIP3    H250839   4.487   0.548  11.130  0.6287  1.2007  0.2495
 8882TIP3   OH250840   6.156   3.258  11.031  0.0352  0.0567  0.1029
 8882TIP3    H150841   6.151   3.332  10.971  0.0730 -0.5391 -0.6443
 8882TIP3    H250842   6.170   3.182  10.975  2.3265 -0.2602  1.0014
 8883TIP3   OH250843   4.142   5.106  12.707  0.2696  0.3094 -0.0330
 8883TIP3    H150844   4.144   5.113  12.802  1.8034  1.8865 -0.1143
 8883TIP3    H250845   4.106   5.190  12.677  1.3849  0.5227 -0.8492
 8884TIP3   OH250846   4.306   5.901  10.549 -0.1989  0.2456 -0.1258
 8884TIP3    H150847   4.394   5.864  10.539  0.4969  1.5825  0.6213
 8884TIP3    H250848   4.250   5.826  10.569  0.8319 -0.5952 -0.3126
 8885TIP3   OH250849   6.958   3.221  10.767  0.6350 -0.0498 -0.8997
 8885TIP3    H150850   6.970   3.156  10.698 -1.2358 -0.9586 -0.4247
 8885TIP3    H250851   6.898   3.179  10.829 -0.2005  1.9303 -0.3041
 8886TIP3   OH250852   3.488   5.871  11.642 -0.2251  0.4092  0.1979
 8886TIP3    H150853   3.510   5.794  11.695  0.0826  1.7044  2.0695
 8886TIP3    H250854   3.573   5.907  11.617 -0.3044  1.2472  1.0732
 8887TIP3   OH250855   0.236   6.442  12.575  0.0768 -0.0878 -0.1836
 8887TIP3    H150856   0.240   6.462  12.481 -3.6681  1.9017 -0.1349
 8887TIP3    H250857   0.268   6.521  12.618 -1.3231  0.3318  0.1338
 8888TIP3   OH250858   2.260   3.585  11.811  0.4137  0.3325  0.8911
 8888TIP3    H150859   2.311   3.647  11.863 -0.3372  1.8538 -0.1199
 8888TIP3    H250860   2.288   3.499  11.842  2.7582  1.1257  1.1317
 8889TIP3   OH250861   6.398   3.539  11.048  0.5993 -0.2099 -0.2516
 8889TIP3    H150862   6.318   3.504  11.007  0.0420 -0.6385  1.1318
 8889TIP3    H250863   6.425   3.471  11.109  0.3289  1.1250  1.4386
 8890TIP3   OH250864   2.471   3.604  10.515 -0.2199  0.6100 -0.7054
 8890TIP3    H150865   2.436   3.683  10.556  0.0585  2.2407 -3.3773
 8890TIP3    H250866   2.403   3.538  10.529 -1.8617  2.1677 -0.9583
 8891TIP3   OH250867   6.248   4.662  10.452  0.2568 -0.3164  0.4930
 8891TIP3    H150868   6.299   4.593  10.495  1.0042 -0.8985 -1.2172
 8891TIP3    H250869   6.289   4.744  10.480  1.4799 -0.7336 -0.0169
 8892TIP3   OH250870   4.147   7.439  12.386 -0.6338  0.3412  0.1394
 8892TIP3    H150871   4.170   7.371  12.450 -2.1370 -0.9967 -0.7033
 8892TIP3    H250872   4.230   7.485  12.370  0.3615 -1.1008  0.9425
 8893TIP3   OH250873   4.200   5.882  12.463  0.1776 -0.3370  0.0385
 8893TIP3    H150874   4.284   5.894  12.509 -0.2116 -0.7562  0.8868
 8893TIP3    H250875   4.220   5.901  12.371  0.7585  1.4665  0.4980
 8894TIP3   OH250876   7.508   6.641  13.203  0.8143 -0.4842 -0.1061
 8894TIP3    H150877   7.478   6.554  13.176  1.7290 -0.7849 -0.1886
 8894TIP3    H250878   7.434   6.699  13.183 -1.2527 -1.7127  3.2549
 8895TIP3   OH250879   2.474   5.394  11.611  0.0997 -0.8434 -0.1130
 8895TIP3    H150880   2.425   5.312  11.603 -0.2119 -0.7144  0.4399
 8895TIP3    H250881   2.522   5.386  11.693 -0.3838 -0.2371  0.2372
 8896TIP3   OH250882   4.816   0.680  11.815  0.2437 -0.1008  0.3638
 8896TIP3    H150883   4.880   0.712  11.751  0.6947 -0.0323  0.8376
 8896TIP3    H250884   4.747   0.639  11.762  0.6057 -0.0426 -0.1612
 8897TIP3   OH250885   7.331   3.869  12.992  0.7094  0.1097 -0.2556
 8897TIP3    H150886   7.254   3.818  13.016  1.6306 -0.7340  1.0506
 8897TIP3    H250887   7.398   3.803  12.972  1.1649  0.8246 -1.1674
 8898TIP3   OH250888   6.337   1.968  12.365 -0.7588  0.0702  0.2656
 8898TIP3    H150889   6.375   1.936  12.447 -1.9070  0.7249  1.0686
 8898TIP3    H250890   6.300   1.890  12.323 -0.7106 -0.1661  0.6630
 8899TIP3   OH250891   3.720   2.069  11.227 -0.9870  0.3975 -0.2614
 8899TIP3    H150892   3.729   2.012  11.151  2.2625  1.2004 -0.6402
 8899TIP3    H250893   3.684   2.151  11.192 -3.6323 -0.6023 -0.0788
 8900TIP3   OH250894   0.373   3.533  12.431  0.4044  0.4317  0.0630
 8900TIP3    H150895   0.420   3.608  12.468 -0.3876  0.2054  1.6333
 8900TIP3    H250896   0.382   3.544  12.336  2.2231  1.2583  0.2704
 8901TIP3   OH250897   3.890   1.873  12.025 -0.0450  0.5084 -0.1878
 8901TIP3    H150898   3.836   1.923  11.963  0.6553  0.5685 -0.7686
 8901TIP3    H250899   3.902   1.788  11.983 -0.6840  0.0737  0.4959
 8902TIP3   OH250900   3.580   7.419  10.682 -0.5140  0.2151 -0.1106
 8902TIP3    H150901   3.640   7.345  10.677  0.6112  1.0465  0.5992
 8902TIP3    H250902   3.497   7.381  10.711 -0.4653 -1.0023 -1.4497
 8903TIP3   OH250903   3.967   5.076  10.912  0.0786 -0.6238  0.4526
 8903TIP3    H150904   4.007   5.138  10.973  0.5289  0.4673 -0.8986
 8903TIP3    H250905   4.030   5.005  10.905  0.6038 -0.1535  0.3113
 8904TIP3   OH250906   7.640   1.919  11.793  0.0869  0.2591 -0.0211
 8904TIP3    H150907   7.576   1.989  11.805  2.3565  2.1653  2.2465
 8904TIP3    H250908   7.684   1.941  11.711  0.1593  0.9816  0.2062
 8905TIP3   OH250909   3.290   7.272  11.883  0.1459  0.3577  0.0096
 8905TIP3    H150910   3.318   7.268  11.792 -0.1185 -1.8210 -0.0143
 8905TIP3    H250911   3.213   7.329  11.881  0.1573  0.3654 -1.1083
 8906TIP3   OH250912   7.648   5.649  11.319 -0.2586 -0.4818  0.1442
 8906TIP3    H150913   7.710   5.632  11.389  0.6274 -2.7088 -1.0773
 8906TIP3    H250914   7.631   5.743  11.324  2.5583  0.0705  1.0553
 8907TIP3   OH250915   4.442   1.493  13.820 -0.7957 -0.1043  0.2497
 8907TIP3    H150916   4.422   1.546  13.743 -1.9857  0.3218  0.8211
 8907TIP3    H250917   4.359   1.451  13.842 -1.3361  2.0252  2.9505
 8908TIP3   OH250918   3.691   6.621  11.166 -0.6259  0.4681  1.0139
 8908TIP3    H150919   3.721   6.537  11.200 -0.0109  0.4784  0.5049
 8908TIP3    H250920   3.744   6.686  11.211  1.7184  0.3997 -1.4166
 8909TIP3   OH250921   5.708   0.030  10.665  0.4303 -0.1660  0.3264
 8909TIP3    H150922   5.716  -0.040  10.730 -0.9089 -1.2096 -0.5776
 8909TIP3    H250923   5.615   0.051  10.664  0.2515 -0.8462 -1.9039
 8910TIP3   OH250924   2.243   1.090  12.677  0.4931  0.0781 -0.1884
 8910TIP3    H150925   2.244   1.029  12.603 -0.8537 -0.1857 -0.0118
 8910TIP3    H250926   2.185   1.161  12.650  0.2225  0.1261  0.4791
 8911TIP3   OH250927   4.160   1.978  12.038  0.2245 -0.0034 -0.2497
 8911TIP3    H150928   4.103   1.923  12.092 -1.1296  1.0881 -0.4965
 8911TIP3    H250929   4.100   2.021  11.977  1.5525 -0.1343 -1.7033
 8912TIP3   OH250930   0.292   0.008  11.827 -0.3579 -0.1295  0.2836
 8912TIP3    H150931   0.296   0.035  11.919  1.1950 -0.0783  0.2243
 8912TIP3    H250932   0.236   0.074  11.786 -1.0893 -0.1683  1.1907
 8913TIP3   OH250933   4.075   7.248  12.800  0.2985 -0.2020 -0.3989
 8913TIP3    H150934   4.068   7.166  12.751  0.9337  0.9751 -2.6083
 8913TIP3    H250935   4.031   7.230  12.883 -1.9372 -1.9938 -1.8348
 8914TIP3   OH250936   1.234   3.095  11.581  0.4402  0.2826 -0.6087
 8914TIP3    H150937   1.184   3.072  11.660  1.3064  0.8882  0.1422
 8914TIP3    H250938   1.291   3.020  11.567  1.6946  0.9783  0.5379
 8915TIP3   OH250939   5.958   6.495  11.464  0.7110 -0.0958 -0.5712
 8915TIP3    H150940   5.984   6.433  11.396 -1.0229 -2.9485  1.1728
 8915TIP3    H250941   5.863   6.502  11.455 -0.0540 -2.8234  3.1076
 8916TIP3   OH250942   1.467   2.791  12.593 -0.1729  0.9936  0.3415
 8916TIP3    H150943   1.446   2.706  12.631 -1.2343  1.7997  1.6191
 8916TIP3    H250944   1.560   2.803  12.611  0.3681 -0.5464 -1.2116
 8917TIP3   OH250945   2.272   4.010  11.878  0.2020 -0.0634 -0.1656
 8917TIP3    H150946   2.366   4.028  11.888 -0.0273  0.7291  0.7375
 8917TIP3    H250947   2.235   4.026  11.965 -0.8522  0.1235 -0.6317
 8918TIP3   OH250948   2.775   7.294  10.955  0.0884 -0.1538 -0.3130
 8918TIP3    H150949   2.720   7.222  10.985  1.0180 -0.9560 -0.4695
 8918TIP3    H250950   2.863   7.273  10.988  0.3827  0.9136 -0.3574
 8919TIP3   OH250951   6.706   0.128  12.577 -0.6480  0.0619 -0.0427
 8919TIP3    H150952   6.770   0.060  12.597 -1.5990 -1.3097 -1.3986
 8919TIP3    H250953   6.658   0.141  12.659 -0.4555 -0.9431  0.2472
 8920TIP3   OH250954   6.800   2.405  12.883 -0.4443  0.1063  0.3228
 8920TIP3    H150955   6.826   2.495  12.901  2.4068 -1.0909  3.1585
 8920TIP3    H250956   6.778   2.404  12.789  0.4949  3.4499 -0.0491
 8921TIP3   OH250957   5.423   0.425  10.813  0.2128  0.1177  1.3990
 8921TIP3    H150958   5.391   0.354  10.757  0.0219  0.3723  1.1769
 8921TIP3    H250959   5.494   0.387  10.863  1.5744  0.3205 -0.2708
 8922TIP3   OH250960   2.208   4.546  10.664  0.1760 -0.2282 -0.8266
 8922TIP3    H150961   2.164   4.628  10.685 -0.1183 -0.6921  0.4580
 8922TIP3    H250962   2.204   4.540  10.568 -1.9165  0.0788 -0.7990
 8923TIP3   OH250963   5.813   6.848  11.877  0.3760  0.3934  0.0740
 8923TIP3    H150964   5.862   6.819  11.954  0.7868  0.5278 -0.1306
 8923TIP3    H250965   5.875   6.904  11.829  0.0103  0.5929 -0.1745
 8924TIP3   OH250966   2.145   3.572  12.606 -0.3941 -0.2305  0.1105
 8924TIP3    H150967   2.234   3.588  12.635 -0.4794  0.1926  0.1366
 8924TIP3    H250968   2.117   3.495  12.656  1.2099 -2.7524 -2.4769
 8925TIP3   OH250969   5.680   4.929  12.526  0.1402 -0.5404  0.6032
 8925TIP3    H150970   5.697   4.966  12.613 -1.7518 -1.6491  1.5030
 8925TIP3    H250971   5.584   4.928  12.519  0.1931 -2.6441 -0.5122
 8926TIP3   OH250972   1.933   5.325  11.406  0.2096  0.1458 -0.1980
 8926TIP3    H150973   2.010   5.288  11.365  1.0866  1.0585  0.5694
 8926TIP3    H250974   1.965   5.365  11.487 -1.2517 -0.4860  0.7527
 8927TIP3   OH250975   7.155   5.551  10.587 -0.1366 -0.5346 -0.1681
 8927TIP3    H150976   7.153   5.493  10.512  0.3106 -0.0438 -0.5623
 8927TIP3    H250977   7.069   5.593  10.587 -0.8939 -1.9850  0.7707
 8928TIP3   OH250978   6.622   3.459  11.718  0.0635  0.3232 -0.5436
 8928TIP3    H150979   6.655   3.483  11.631  2.4431  1.6043  0.6247
 8928TIP3    H250980   6.656   3.526  11.776 -3.8047  1.1539  1.0856
 8929TIP3   OH250981   3.825   0.984  11.153  0.0276 -0.3659 -0.1061
 8929TIP3    H150982   3.870   1.068  11.161 -1.6169  0.7264 -1.4177
 8929TIP3    H250983   3.746   0.994  11.206 -0.2478 -1.0192 -0.3748
 8930TIP3   OH250984   0.347   3.537  11.885 -0.3728  0.1169  0.3922
 8930TIP3    H150985   0.327   3.457  11.835  1.1225  1.3376 -2.3901
 8930TIP3    H250986   0.265   3.561  11.927 -1.4885 -1.5364 -0.7411
 8931TIP3   OH250987   4.334   3.722  11.172  0.1549  0.1321  0.2543
 8931TIP3    H150988   4.323   3.632  11.202  2.1304 -1.2197 -2.5945
 8931TIP3    H250989   4.394   3.762  11.235 -2.0432  0.1036  2.4955
 8932TIP3   OH250990   3.817   4.848  12.008  0.0973  0.1696 -0.1204
 8932TIP3    H150991   3.751   4.905  12.049 -0.0334 -0.4660  0.5711
 8932TIP3    H250992   3.851   4.900  11.936 -0.1275  1.0744  0.4051
 8933TIP3   OH250993   4.302   3.462  11.336  0.2057 -0.0044 -0.2044
 8933TIP3    H150994   4.228   3.451  11.397 -0.4353  2.7975 -0.3433
 8933TIP3    H250995   4.375   3.487  11.392  1.5785 -3.9793  0.0952
 8934TIP3   OH250996   0.649   0.778  10.728 -0.5935 -0.0433  0.2649
 8934TIP3    H150997   0.612   0.860  10.693 -1.0902  0.3930  1.7220
 8934TIP3    H250998   0.679   0.801  10.816  1.1727 -0.9489 -0.0662
 8935TIP3   OH250999   0.525   7.628  11.574 -0.2208 -0.5689  0.6618
 8935TIP3    H151000   0.455   7.588  11.625 -1.6579  1.2644  0.2307
 8935TIP3    H251001   0.521   7.585  11.489 -0.9200 -0.4158  0.6077
 8936TIP3   OH251002   2.771   6.241  11.008  0.2761  1.0281  0.3212
 8936TIP3    H151003   2.688   6.281  10.981 -0.1518  0.0054  0.0743
 8936TIP3    H251004   2.836   6.310  10.995 -0.3923  1.5397 -0.4261
 8937TIP3   OH251005   1.558   4.059  11.119  0.2613 -0.1454  0.1340
 8937TIP3    H151006   1.576   3.967  11.135  1.3779  0.0228 -0.0706
 8937TIP3    H251007   1.493   4.083  11.185 -2.1071 -1.7254 -1.4702
 8938TIP3   OH251008   1.062   2.682  13.191  0.0824  0.3065  0.5266
 8938TIP3    H151009   0.972   2.714  13.189  0.3054  0.9063 -0.8792
 8938TIP3    H251010   1.054   2.587  13.181 -0.3893  0.3750  0.2263
 8939TIP3   OH251011   7.209   6.637  10.721 -0.7576 -0.2206  0.1318
 8939TIP3    H151012   7.277   6.703  10.711 -1.7822  1.0763  1.2055
 8939TIP3    H251013   7.246   6.558  10.683  1.4179  0.3701  0.8545
 8940TIP3   OH251014   5.948   4.560  12.301  0.4313 -0.2885 -0.2091
 8940TIP3    H151015   5.896   4.489  12.264 -1.4889 -0.4043  2.4165
 8940TIP3    H251016   5.886   4.632  12.311  1.3175  0.3389  0.9652
 8941TIP3   OH251017   0.901   0.073  12.857  0.0569  0.1716  0.4204
 8941TIP3    H151018   0.909   0.147  12.917 -1.7593  0.2843  0.5685
 8941TIP3    H251019   0.952   0.100  12.780  1.6920  0.3860  1.5276
 8942TIP3   OH251020   2.663   1.481  10.854  0.7078  0.7090  0.6916
 8942TIP3    H151021   2.672   1.393  10.817 -0.7574  0.9664 -0.3701
 8942TIP3    H251022   2.675   1.469  10.948 -1.6821 -1.0312  0.8568
 8943TIP3   OH251023   0.288   6.017  11.717 -0.1398 -0.1833 -0.2277
 8943TIP3    H151024   0.227   6.091  11.717 -0.3309 -0.3368  0.5254
 8943TIP3    H251025   0.363   6.048  11.667  1.1817  1.6703  2.6901
 8944TIP3   OH251026   3.343   6.982  11.715 -0.3399  0.2194  0.4217
 8944TIP3    H151027   3.329   7.062  11.664  0.9740  0.6396  0.6576
 8944TIP3    H251028   3.262   6.933  11.706 -1.1852  1.5749  0.2578
 8945TIP3   OH251029   6.605   5.881  10.787 -0.3977 -0.2462  0.1631
 8945TIP3    H151030   6.659   5.805  10.806 -0.0648  0.0037  0.2146
 8945TIP3    H251031   6.526   5.845  10.747 -2.4534 -1.1240  4.3772
 8946TIP3   OH251032   4.344   5.265  11.589  0.3098 -0.4835 -0.3758
 8946TIP3    H151033   4.329   5.172  11.608 -1.8950  0.1920  1.7568
 8946TIP3    H251034   4.324   5.274  11.496  0.1487 -2.0821 -0.5188
 8947TIP3   OH251035   7.567   3.098  11.157 -0.0318 -0.3656  0.1020
 8947TIP3    H151036   7.572   3.069  11.248  0.5120 -1.7412 -0.3587
 8947TIP3    H251037   7.656   3.125  11.135  0.0766 -1.0751 -0.3514
 8948TIP3   OH251038   2.583   7.264  12.020  0.0553 -0.0337 -0.0278
 8948TIP3    H151039   2.488   7.252  12.010 -0.1408  1.7221 -0.6836
 8948TIP3    H251040   2.614   7.287  11.933  0.8538  0.7475  0.4437
 8949TIP3   OH251041   1.473   5.455  11.150  0.3106 -0.1654 -0.1398
 8949TIP3    H151042   1.502   5.395  11.219  1.9114  0.5630 -0.1215
 8949TIP3    H251043   1.505   5.541  11.178 -0.4369  0.4071 -0.9938
 8950TIP3   OH251044   0.335   1.064  13.387 -0.4765 -0.7330  0.2265
 8950TIP3    H151045   0.379   1.132  13.438  2.2126 -1.1398 -1.3999
 8950TIP3    H251046   0.324   1.101  13.300 -3.4110 -0.7092  0.4818
 8951TIP3   OH251047   0.558   1.900  11.872 -0.4462 -0.0782  0.2481
 8951TIP3    H151048   0.512   1.818  11.854 -0.6853  0.2698 -0.8065
 8951TIP3    H251049   0.565   1.943  11.786  1.1939  0.2211  0.5066
 8952TIP3   OH251050   4.456   6.993  11.051 -0.0868  0.1090 -0.8333
 8952TIP3    H151051   4.413   7.069  11.011  1.1280  0.1952 -2.0577
 8952TIP3    H251052   4.481   6.938  10.976  1.0358 -0.4037 -0.1126
 8953TIP3   OH251053   0.838   7.333  10.765 -0.1534 -0.4077  0.2608
 8953TIP3    H151054   0.910   7.391  10.741 -1.5937  0.6951 -1.6239
 8953TIP3    H251055   0.814   7.290  10.683 -1.7576 -0.6060  0.8029
 8954TIP3   OH251056   3.031   2.929  12.537 -0.6254  0.4278 -0.1874
 8954TIP3    H151057   3.068   2.844  12.561 -0.8472  0.4900  0.3724
 8954TIP3    H251058   2.943   2.909  12.505 -0.2186  0.3097 -1.2685
 8955TIP3   OH251059   3.437   6.534  11.633 -0.4815 -0.2862 -0.2047
 8955TIP3    H151060   3.390   6.614  11.610 -1.0708 -0.5758 -0.0333
 8955TIP3    H251061   3.368   6.468  11.642  0.0941 -1.1390 -1.6842
 8956TIP3   OH251062   0.925   7.056  12.321  0.0735 -0.2173 -0.1190
 8956TIP3    H151063   0.900   7.135  12.368  2.0854  0.5901 -0.3274
 8956TIP3    H251064   0.866   6.988  12.354 -0.8015  1.0711  1.0357
 8957TIP3   OH251065   1.181   0.827  12.496 -0.4424 -0.4896  0.3435
 8957TIP3    H151066   1.233   0.779  12.431  0.7586  1.4359 -0.1998
 8957TIP3    H251067   1.119   0.762  12.530  0.9772 -2.3532 -0.4583
 8958TIP3   OH251068   0.673   0.154  11.715 -0.0633 -0.0279  0.5850
 8958TIP3    H151069   0.689   0.098  11.790 -1.0029 -0.4798  0.4637
 8958TIP3    H251070   0.639   0.095  11.647  0.1913  0.4699  0.0149
 8959TIP3   OH251071   1.101   6.384  12.527 -0.1028 -0.3735 -0.0719
 8959TIP3    H151072   1.052   6.305  12.549  0.2655 -0.8805 -0.9845
 8959TIP3    H251073   1.070   6.407  12.439 -0.8716  1.0401  0.5425
 8960TIP3   OH251074   2.369   0.652  11.104  0.0619  0.2290 -0.3343
 8960TIP3    H151075   2.291   0.597  11.103  1.3899 -1.8022 -0.1115
 8960TIP3    H251076   2.344   0.729  11.154 -1.6297 -0.6068  0.1818
 8961TIP3   OH251077   2.645   6.907  11.876  0.0880  0.0850  0.0879
 8961TIP3    H151078   2.592   6.914  11.797  1.7042  1.2806 -0.9623
 8961TIP3    H251079   2.706   6.981  11.871 -0.8920  1.3387  3.3771
 8962TIP3   OH251080   0.433   3.502  11.184  0.0788  0.8062 -0.1304
 8962TIP3    H151081   0.381   3.569  11.141  1.1235  0.7833 -1.4990
 8962TIP3    H251082   0.441   3.432  11.119 -1.9986 -1.2554  1.6513
 8963TIP3   OH251083   6.174   3.080  12.288 -0.8786  0.0817 -0.1289
 8963TIP3    H151084   6.118   3.142  12.242 -0.6742  1.3528  1.2470
 8963TIP3    H251085   6.195   3.124  12.370  2.1680 -0.3475 -0.5956
 8964TIP3   OH251086   5.587   1.913  12.468 -0.4627  0.0290 -0.1818
 8964TIP3    H151087   5.568   1.873  12.383  0.6794  1.3692 -1.1155
 8964TIP3    H251088   5.539   1.996  12.466  2.9200  2.1504 -1.4380
 8965TIP3   OH251089   0.139   5.499  12.645  0.2540 -0.3910 -0.0540
 8965TIP3    H151090   0.140   5.517  12.551 -1.0441 -1.9825 -0.4338
 8965TIP3    H251091   0.211   5.438  12.659  0.0007 -0.7169 -0.1595
 8966TIP3   OH251092   5.951   6.589  12.114 -0.0142 -0.0817  0.0078
 8966TIP3    H151093   5.966   6.666  12.169 -1.4450  0.5461 -0.4248
 8966TIP3    H251094   5.982   6.616  12.027  1.0031 -0.5917  0.2048
 8967TIP3   OH251095   5.709   3.230  11.534  0.2361  0.0747 -0.2882
 8967TIP3    H151096   5.737   3.321  11.525 -0.2119  0.1041 -1.5438
 8967TIP3    H251097   5.622   3.236  11.573  1.1897  0.0474  2.0220
 8968TIP3   OH251098   6.979   3.987  11.448 -0.3367 -0.4187 -0.1661
 8968TIP3    H151099   6.977   4.076  11.411 -0.5509  0.0104  0.8462
 8968TIP3    H251100   7.064   3.981  11.490  0.1688 -1.1378 -1.2556
 8969TIP3   OH251101   7.143   7.449  11.578 -0.5642  0.5340 -0.3528
 8969TIP3    H151102   7.147   7.481  11.668 -0.9353  0.9107 -0.4661
 8969TIP3    H251103   7.206   7.377  11.575 -0.7422  0.3466  0.2763
 8970TIP3   OH251104   6.007   4.018  11.181 -0.2970  0.0280 -0.0521
 8970TIP3    H151105   6.022   3.934  11.224 -0.0244  0.2672  0.3264
 8970TIP3    H251106   5.989   3.996  11.090 -0.0679 -0.4302  0.0119
 8971TIP3   OH251107   3.946   7.014  11.350  0.1862 -0.0787  0.1165
 8971TIP3    H151108   3.875   7.078  11.360  1.1916  0.9266  1.0000
 8971TIP3    H251109   3.963   7.012  11.256  1.8326  2.8941  0.2511
 8972TIP3   OH251110   1.491   0.920  12.730 -0.1051 -0.1378  0.1288
 8972TIP3    H151111   1.460   0.940  12.641 -0.3435 -0.0270  0.2362
 8972TIP3    H251112   1.411   0.901  12.779 -0.0299  0.4196  0.4745
 8973TIP3   OH251113   5.913   5.825  12.496 -0.0604 -0.0536 -0.4690
 8973TIP3    H151114   5.994   5.841  12.447 -0.4810  0.3396 -1.0432
 8973TIP3    H251115   5.939   5.832  12.588  0.4382  0.6919 -0.6555
 8974TIP3   OH251116   1.960   2.377  12.468 -0.5206  0.3060  0.2532
 8974TIP3    H151117   1.909   2.337  12.397 -1.3460 -0.4503  1.2464
 8974TIP3    H251118   2.017   2.306  12.498 -0.3537  0.5553  0.5231
 8975TIP3   OH251119   4.165   0.251  10.516  0.1066 -0.4985 -0.2024
 8975TIP3    H151120   4.134   0.188  10.451 -0.8766 -0.1063 -0.1303
 8975TIP3    H251121   4.129   0.220  10.599  2.6463 -1.9094  0.4992
 8976TIP3   OH251122   7.037   4.483  12.997  0.0513 -0.1435 -0.0370
 8976TIP3    H151123   6.970   4.551  13.008  0.5100  0.2941  0.1359
 8976TIP3    H251124   7.005   4.409  13.048 -0.3228  0.0469  0.0101
 8977TIP3   OH251125   0.386   5.866  12.259  0.1570  0.6364 -0.1509
 8977TIP3    H151126   0.439   5.786  12.263  0.1759  0.6854  1.6713
 8977TIP3    H251127   0.388   5.892  12.167  0.2865 -1.3620 -0.7681
 8978TIP3   OH251128   5.174   0.526  13.021 -0.1475  0.5222 -0.3661
 8978TIP3    H151129   5.196   0.609  13.063 -0.6027  0.2136  0.5338
 8978TIP3    H251130   5.135   0.474  13.092  2.8062 -1.5958 -0.1138
 8979TIP3   OH251131   0.207   1.799  10.887  0.5038 -0.4276  0.6074
 8979TIP3    H151132   0.235   1.860  10.956  0.3357  0.5318 -0.1398
 8979TIP3    H251133   0.245   1.835  10.807 -0.3983 -0.7682  0.0092
 8980TIP3   OH251134   1.072   4.868  10.838 -0.2959  0.1605  0.2157
 8980TIP3    H151135   1.111   4.925  10.904  0.5025  0.9870 -0.9471
 8980TIP3    H251136   0.985   4.906  10.822 -0.9166 -0.6414  1.4995
 8981TIP3   OH251137   1.634   0.184  12.181  0.2236 -0.1058  0.2217
 8981TIP3    H151138   1.639   0.270  12.222  0.2108 -1.1304  2.5296
 8981TIP3    H251139   1.713   0.138  12.209 -1.0925 -1.7828  1.4595
 8982TIP3   OH251140   3.293   4.453  11.703  0.0529 -0.5623  0.0999
 8982TIP3    H151141   3.335   4.445  11.789  1.1569  1.2079 -0.2371
 8982TIP3    H251142   3.364   4.479  11.644 -1.1882  0.9101 -0.8119
 8983TIP3   OH251143   1.589   0.189  11.389  0.0163 -0.2695  0.0475
 8983TIP3    H151144   1.648   0.141  11.447 -0.5351 -1.9008 -0.7069
 8983TIP3    H251145   1.597   0.280  11.418 -0.5358 -1.0412  2.9404
 8984TIP3   OH251146   2.131   0.512  11.240  0.5530  0.0679  0.0400
 8984TIP3    H151147   2.112   0.592  11.288 -2.1071  0.4248 -1.4161
 8984TIP3    H251148   2.159   0.450  11.307  0.0941  1.4596  1.5866
 8985TIP3   OH251149   0.939   1.139  10.491 -0.4060  0.1026 -0.5711
 8985TIP3    H151150   0.920   1.128  10.397  0.7781 -1.4999 -0.6599
 8985TIP3    H251151   1.021   1.188  10.493  0.2275 -0.9509 -0.4132
 8986TIP3   OH251152   0.251   2.490  11.620  0.3941  0.0234 -0.1132
 8986TIP3    H151153   0.254   2.586  11.622 -0.0291  0.0337  0.0233
 8986TIP3    H251154   0.320   2.463  11.681 -0.1343  0.2485  0.5978
 8987TIP3   OH251155   1.782   6.721  11.476  0.2146 -0.5287 -0.3269
 8987TIP3    H151156   1.736   6.789  11.523  0.0651 -0.5582 -0.4279
 8987TIP3    H251157   1.727   6.704  11.399  0.4407 -0.4993 -0.4949
 8988TIP3   OH251158   2.509   3.807  12.996 -0.6698  0.3788  0.0844
 8988TIP3    H151159   2.486   3.716  13.017 -1.7591  0.9998  1.7453
 8988TIP3    H251160   2.426   3.849  12.975 -0.2683  1.1726  0.0219
 8989TIP3   OH251161   1.592   3.085  11.446 -0.2133  0.7176  0.0760
 8989TIP3    H151162   1.583   3.091  11.351 -0.8846 -1.5350 -0.0541
 8989TIP3    H251163   1.522   3.027  11.473  0.9034  0.0785  1.7554
 8990TIP3   OH251164   2.754   3.409  11.534 -0.3952 -0.2948  0.0967
 8990TIP3    H151165   2.718   3.408  11.623 -1.3696  0.9516 -0.2628
 8990TIP3    H251166   2.847   3.391  11.546 -0.2090  1.3766  1.5265
 8991TIP3   OH251167   2.253   4.215  12.461 -0.4440 -0.1763  0.0633
 8991TIP3    H151168   2.177   4.158  12.448 -0.2782 -0.3701 -0.0595
 8991TIP3    H251169   2.250   4.237  12.554  0.5271 -1.8819  0.5450
 8992TIP3   OH251170   1.441   4.164  12.097  0.1825  0.0780  0.3633
 8992TIP3    H151171   1.530   4.168  12.062 -0.8329  0.2842 -2.4048
 8992TIP3    H251172   1.405   4.082  12.063 -0.8154  0.1412  1.2014
 8993TIP3   OH251173   1.518   2.843  11.177  0.1075 -0.1008 -0.3309
 8993TIP3    H151174   1.461   2.790  11.121 -0.2533  0.1646 -0.2089
 8993TIP3    H251175   1.602   2.797  11.174  0.1765  0.0667 -1.3320
 8994TIP3   OH251176   5.379   6.477  11.861 -0.8676  0.2349  0.3805
 8994TIP3    H151177   5.417   6.477  11.773 -1.6897  0.0608  0.0158
 8994TIP3    H251178   5.451   6.449  11.918 -0.5243 -0.3540 -0.3212
 8995TIP3   OH251179   2.893   1.379  12.298 -0.0380  0.2529 -0.6637
 8995TIP3    H151180   2.969   1.320  12.300 -0.6013 -0.5406 -1.5468
 8995TIP3    H251181   2.917   1.452  12.355 -0.1513 -1.8103  2.2428
 8996TIP3   OH251182   1.267   6.286  11.797  0.5561 -0.2475  0.5181
 8996TIP3    H151183   1.217   6.321  11.870 -0.2533  0.5662 -0.4032
 8996TIP3    H251184   1.356   6.319  11.811  0.1230  0.9840  0.4424
 8997TIP3   OH251185   6.503   6.358  12.718 -0.6276 -0.1296 -0.5038
 8997TIP3    H151186   6.448   6.429  12.751 -1.4843  0.0394 -2.2001
 8997TIP3    H251187   6.486   6.285  12.778 -2.5800 -0.0214 -0.8692
 8998TIP3   OH251188   0.719   4.272  12.853  0.4718  0.1217  0.7068
 8998TIP3    H151189   0.658   4.337  12.887  0.8241  0.3384  0.9275
 8998TIP3    H251190   0.803   4.317  12.848  0.5491 -0.0749  0.0853
 8999TIP3   OH251191   6.260   4.851  10.820 -0.4226  0.3789 -0.3787
 8999TIP3    H151192   6.310   4.907  10.879 -0.5278  1.0110 -0.8733
 8999TIP3    H251193   6.175   4.893  10.813 -1.1699 -0.8750  0.7236
 9000TIP3   OH251194   1.126   5.143  13.369  0.1814 -0.5879 -0.3867
 9000TIP3    H151195   1.189   5.104  13.429  0.6035 -2.0621 -1.7112
 9000TIP3    H251196   1.042   5.107  13.395  0.2452 -0.5912 -0.1853
 9001TIP3   OH251197   4.000   1.452  10.840 -0.5037 -0.4366 -0.3435
 9001TIP3    H151198   3.941   1.421  10.909 -0.0752 -1.8682 -0.5918
 9001TIP3    H251199   4.088   1.440  10.877 -0.2955 -0.4978 -0.8527
 9002TIP3   OH251200   6.938   4.746  10.968 -0.3712 -0.1886 -0.0001
 9002TIP3    H151201   6.938   4.711  10.878  0.6364 -3.1278  1.0177
 9002TIP3    H251202   6.931   4.668  11.023  2.4319  1.1656  2.5460
 9003TIP3   OH251203   2.250   2.039  10.804  0.3719 -0.3617 -0.5438
 9003TIP3    H151204   2.267   1.983  10.879 -1.7127 -0.1592  0.1413
 9003TIP3    H251205   2.253   1.979  10.729  0.3813 -0.9612 -0.0747
 9004TIP3   OH251206   2.961   2.520  12.701  0.8599 -0.2883  0.2665
 9004TIP3    H151207   2.940   2.599  12.751 -1.3788  0.9985 -2.4348
 9004TIP3    H251208   2.906   2.452  12.740  0.7668  0.1305  0.8914
 9005TIP3   OH251209   0.429   7.434  11.979 -0.7206 -0.0235  0.0033
 9005TIP3    H151210   0.481   7.514  11.992  0.7427 -0.6904 -1.4279
 9005TIP3    H251211   0.371   7.431  12.055 -0.2649  1.9787  0.4935
 9006TIP3   OH251212   2.669   4.134  10.984 -0.5401  0.0800  0.3775
 9006TIP3    H151213   2.574   4.123  10.981 -0.7117  1.5337 -1.3097
 9006TIP3    H251214   2.683   4.227  10.965  1.2584 -0.4621 -1.3025
 9007TIP3   OH251215   1.848   0.747  12.280 -0.1598 -0.2069  0.3812
 9007TIP3    H151216   1.772   0.723  12.226 -0.1747 -2.0313  1.1273
 9007TIP3    H251217   1.819   0.825  12.328 -1.8496 -1.1942  1.0953
 9008TIP3   OH251218   6.232   0.378  11.889  0.1903  0.5497 -0.3372
 9008TIP3    H151219   6.195   0.448  11.942 -0.3290 -0.4127  0.6012
 9008TIP3    H251220   6.161   0.349  11.832  0.7891  1.6883 -1.7332
 9009TIP3   OH251221   2.898   2.121  10.902 -0.5997  0.0514  0.0221
 9009TIP3    H151222   2.823   2.172  10.931 -2.4038 -1.1817 -2.1913
 9009TIP3    H251223   2.875   2.031  10.922  0.2397 -0.3612 -0.7937
 9010TIP3   OH251224   2.051   5.128  10.588  0.2696 -0.1899  0.0078
 9010TIP3    H151225   2.138   5.167  10.585  0.5599 -0.4615  2.6295
 9010TIP3    H251226   2.006   5.175  10.657 -0.6632 -1.9300  0.6550
 9011TIP3   OH251227   4.712   4.529  12.255  0.2682 -0.4457 -0.0116
 9011TIP3    H151228   4.661   4.522  12.336 -1.1077  0.3392 -0.7771
 9011TIP3    H251229   4.698   4.444  12.212 -0.6451 -0.1526 -0.3315
 9012TIP3   OH251230   6.080   6.680  11.880 -0.2592 -0.1427 -0.2648
 9012TIP3    H151231   6.063   6.662  11.787 -0.2438 -0.2601 -0.2454
 9012TIP3    H251232   6.156   6.738  11.880 -0.7835  0.5648 -0.3635
 9013TIP3   OH251233   3.044   3.424  11.206  0.1828  0.4527 -0.3110
 9013TIP3    H151234   3.102   3.365  11.157  1.0663  0.9038  0.1813
 9013TIP3    H251235   2.963   3.424  11.155  0.8840  0.4691 -1.4844
 9014TIP3   OH251236   5.799   6.708  12.591 -0.1897  0.0723 -0.6854
 9014TIP3    H151237   5.838   6.643  12.532 -1.3812  1.5600 -3.2715
 9014TIP3    H251238   5.874   6.750  12.633  0.9615  0.8187 -3.2695
 9015TIP3   OH251239   5.448   6.027  12.598 -0.0285 -0.4098  0.3456
 9015TIP3    H151240   5.445   6.079  12.518  1.2912 -1.1661 -0.2247
 9015TIP3    H251241   5.377   5.963  12.589 -0.3121 -0.0572  0.0958
 9016TIP3   OH251242   1.893   2.800  11.019  0.0810  0.2707  0.1575
 9016TIP3    H151243   1.944   2.877  10.995 -0.1170  0.5913  0.7230
 9016TIP3    H251244   1.827   2.791  10.950  0.7134  0.0201 -0.4250
 9017TIP3   OH251245   6.005   2.181  11.236  0.0100 -0.0336 -0.0215
 9017TIP3    H151246   6.074   2.243  11.259 -0.8327  0.6051  0.8623
 9017TIP3    H251247   5.979   2.143  11.320  0.5150 -1.6070 -0.5440
 9018TIP3   OH251248   3.911   4.454  11.392 -0.1802 -0.1324  0.3206
 9018TIP3    H151249   3.924   4.372  11.439  2.9906  0.4025  0.5476
 9018TIP3    H251250   3.962   4.444  11.311 -1.6049  0.8019 -0.7452
 9019TIP3   OH251251   2.979   3.680  10.929 -0.0274  0.2353  0.3402
 9019TIP3    H151252   2.894   3.667  10.971 -0.9452  0.3921 -1.4043
 9019TIP3    H251253   2.972   3.634  10.845  1.6306  0.2241  0.1726
 9020TIP3   OH251254   2.345   6.403  10.451 -0.2824 -0.5465 -0.5175
 9020TIP3    H151255   2.303   6.373  10.532  0.8663 -2.2362 -0.4955
 9020TIP3    H251256   2.297   6.357  10.381 -1.5767  1.2636 -0.8902
 9021TIP3   OH251257   5.519   6.986  12.203 -0.1645  0.1357 -0.0239
 9021TIP3    H151258   5.571   6.913  12.235 -0.6545 -0.5202 -0.6817
 9021TIP3    H251259   5.549   6.999  12.113  0.7016  1.4906  0.4391
 9022TIP3   OH251260   3.655   6.600  12.111 -0.1777 -0.0156 -0.3702
 9022TIP3    H151261   3.626   6.615  12.021 -0.2066  1.4375 -0.1513
 9022TIP3    H251262   3.684   6.686  12.141  2.8404 -1.0464 -0.0216
 9023TIP3   OH251263   4.204   3.167  12.165 -0.3521 -0.3563 -0.3905
 9023TIP3    H151264   4.213   3.082  12.120  0.7860 -0.1658 -0.5574
 9023TIP3    H251265   4.127   3.157  12.220  0.6439 -2.0612  0.7790
 9024TIP3   OH251266   7.413   7.228  11.797 -0.2979 -0.1492 -0.1422
 9024TIP3    H151267   7.419   7.214  11.891 -1.8512  2.2407  0.4050
 9024TIP3    H251268   7.453   7.313  11.782 -2.0485  0.5494 -1.2382
 9025TIP3   OH251269   3.605   7.086  12.081  0.2751  0.3070  0.3357
 9025TIP3    H151270   3.575   7.085  12.172 -0.7272  0.4775  0.0212
 9025TIP3    H251271   3.575   7.170  12.047 -0.9490 -0.4859 -0.6492
 9026TIP3   OH251272   0.601   6.250  12.090  0.3280  0.1573  0.6994
 9026TIP3    H151273   0.631   6.300  12.014  1.0241 -0.1055  0.8011
 9026TIP3    H251274   0.627   6.160  12.072 -1.5296 -0.3217  0.1989
 9027TIP3   OH251275   0.080   6.996  13.614  0.1123 -0.9505  0.4243
 9027TIP3    H151276   0.112   6.926  13.670  1.4092  0.8216  2.0270
 9027TIP3    H251277   0.158   7.029  13.569 -0.0291  0.8728  1.4048
 9028TIP3   OH251278   2.527   1.873  10.939  0.1909 -0.0659 -0.1464
 9028TIP3    H151279   2.621   1.892  10.950  1.0414 -2.4855 -2.3116
 9028TIP3    H251280   2.484   1.931  11.002  3.0381  1.9606  0.1525
 9029TIP3   OH251281   7.207   7.051  11.068 -0.2564 -0.7911 -0.4446
 9029TIP3    H151282   7.199   7.090  10.982 -2.4451  0.3655  0.2203
 9029TIP3    H251283   7.220   7.125  11.128 -1.8487 -1.2685  0.5448
 9030TIP3   OH251284   3.718   2.535  12.750 -0.6485 -0.5613  0.1094
 9030TIP3    H151285   3.628   2.536  12.784 -0.3186  0.5749  1.0142
 9030TIP3    H251286   3.762   2.469  12.804 -0.2459  0.9051  1.6843
 9031TIP3   OH251287   0.500   1.476  12.235 -0.1071 -0.7124 -0.3258
 9031TIP3    H151288   0.447   1.534  12.181 -1.0994  0.9341  2.1845
 9031TIP3    H251289   0.588   1.514  12.232 -0.3953  0.0222 -0.0049
 9032TIP3   OH251290   4.684   2.795  11.602  0.1417 -0.1413 -0.2519
 9032TIP3    H151291   4.619   2.854  11.639  1.4657  1.1565  0.1367
 9032TIP3    H251292   4.729   2.757  11.679  1.0052  0.3607 -0.4929
 9033TIP3   OH251293   5.261   1.828  12.308 -0.1830 -0.0525 -0.1320
 9033TIP3    H151294   5.353   1.827  12.281  0.2390  3.4005  0.7549
 9033TIP3    H251295   5.218   1.884  12.243 -1.0192  0.8326  1.1542
 9034TIP3   OH251296   3.005   6.626  11.495 -0.0540  0.0472  0.2066
 9034TIP3    H151297   2.913   6.602  11.508  0.2390 -0.9839  0.4472
 9034TIP3    H251298   3.010   6.655  11.404 -0.7993  1.0469  0.4569
 9035TIP3   OH251299   1.992   2.418  11.931  0.0935 -0.6465  0.3098
 9035TIP3    H151300   1.899   2.429  11.910  0.0839 -1.3169 -0.0245
 9035TIP3    H251301   1.993   2.371  12.014  0.1386  1.4029  1.5510
 9036TIP3   OH251302   5.617   7.014  11.968  0.0286 -0.1354  0.1946
 9036TIP3    H151303   5.641   7.106  11.952 -2.6639  0.3385 -1.7383
 9036TIP3    H251304   5.698   6.965  11.953  0.8055  1.6561 -2.0105
 9037TIP3   OH251305   1.176   5.901  11.871 -0.4723 -0.1449  0.4664
 9037TIP3    H151306   1.216   5.958  11.805 -1.6321 -1.5566 -1.5617
 9037TIP3    H251307   1.185   5.949  11.953  1.7709  1.3346 -0.5522
 9038TIP3   OH251308   1.310   7.377  12.211 -0.4201  0.1528 -0.2951
 9038TIP3    H151309   1.246   7.312  12.241 -2.6679  1.6833 -1.4186
 9038TIP3    H251310   1.257   7.456  12.196  1.8376  1.6106 -0.9926
 9039TIP3   OH251311   0.108   4.820  11.676  0.5285  0.1520  0.2782
 9039TIP3    H151312   0.169   4.830  11.603  0.9621 -0.7788  0.5112
 9039TIP3    H251313   0.024   4.798  11.634  0.1889  1.9527 -0.0752
 9040TIP3   OH251314   2.264   1.639  10.507 -0.4440 -0.3854 -1.1634
 9040TIP3    H151315   2.331   1.581  10.542 -0.0132 -0.4760 -2.1139
 9040TIP3    H251316   2.181   1.595  10.527 -0.3070  0.1190  0.7494
 9041TIP3   OH251317   0.273   1.636  10.575  0.1786 -0.1894 -0.7937
 9041TIP3    H151318   0.232   1.579  10.509  0.8987  0.0833 -1.4936
 9041TIP3    H251319   0.255   1.725  10.545  0.0674 -0.0584 -0.3422
 9042TIP3   OH251320   7.442   0.681  11.471 -0.5008  0.0857 -0.3619
 9042TIP3    H151321   7.428   0.775  11.457  0.1639  0.2969  0.2771
 9042TIP3    H251322   7.359   0.650  11.507 -0.0773  0.8841  1.4493
 9043TIP3   OH251323   1.103   4.528  12.149  0.1855 -0.4718  0.1008
 9043TIP3    H151324   1.131   4.456  12.206  0.4430 -0.5775 -0.1540
 9043TIP3    H251325   1.185   4.574  12.129  0.1574 -0.6814 -0.5168
 9044TIP3   OH251326   5.167   0.958  11.611  0.3668  0.1810 -0.5721
 9044TIP3    H151327   5.103   1.020  11.645 -2.5168 -1.9656 -1.6915
 9044TIP3    H251328   5.201   1.000  11.532  0.4456  1.3766  0.0648
 9045TIP3   OH251329   1.222   3.980  11.419 -0.3798 -0.2207  0.0461
 9045TIP3    H151330   1.162   3.926  11.470  1.6469 -0.9155  1.8356
 9045TIP3    H251331   1.183   3.984  11.332 -1.9334 -2.3637  0.5754
 9046TIP3   OH251332   0.972   0.603  12.982 -0.1620 -0.6108 -0.3046
 9046TIP3    H151333   0.890   0.609  12.934 -0.6137  1.7710  0.6178
 9046TIP3    H251334   1.036   0.573  12.917 -1.5936 -1.7955 -1.2203
 9047TIP3   OH251335   0.049   4.313  12.119  0.4495 -0.6179 -0.3789
 9047TIP3    H151336   0.115   4.281  12.057  0.0267 -2.3941  0.0356
 9047TIP3    H251337   0.083   4.290  12.205 -0.0825 -0.3001 -0.0774
 9048TIP3   OH251338   4.549   0.924  11.467 -0.1714  0.3142  0.4974
 9048TIP3    H151339   4.535   0.874  11.387 -0.1381  0.9593  0.0839
 9048TIP3    H251340   4.492   1.001  11.458  0.3594  0.7440  0.7699
 9049TIP3   OH251341   3.896   1.659  13.381  0.0530 -0.4853 -0.0175
 9049TIP3    H151342   3.881   1.751  13.400 -0.6117 -0.1065 -2.1073
 9049TIP3    H251343   3.934   1.623  13.462  0.6811  1.6785  0.7092
 9050TIP3   OH251344   3.027   3.593  11.663  0.1860  0.2003  0.1090
 9050TIP3    H151345   3.014   3.606  11.569  0.5433  0.9091  0.1487
 9050TIP3    H251346   3.106   3.538  11.669 -1.4503 -2.3511 -0.0663
 9051TIP3   OH251347   7.168   0.419  11.890 -0.1892 -0.2100 -0.1544
 9051TIP3    H151348   7.261   0.414  11.913 -0.3266 -2.0525  0.1675
 9051TIP3    H251349   7.167   0.415  11.794  0.1199  1.9137 -0.2950
 9052TIP3   OH251350   5.085   5.183  10.672  0.0742  0.0884  0.3805
 9052TIP3    H151351   5.008   5.127  10.685  0.7092 -1.3417 -1.5750
 9052TIP3    H251352   5.138   5.168  10.750 -1.2709  0.5912  1.4500
 9053TIP3   OH251353   1.032   0.010  10.820  0.0205  0.2072 -0.1870
 9053TIP3    H151354   1.054  -0.066  10.767  1.0451  0.9914 -0.9344
 9053TIP3    H251355   1.059  -0.013  10.909  1.0021 -0.0393 -0.5374
 9054TIP3   OH251356   2.807   4.005  12.144 -0.3199 -0.6353 -0.1127
 9054TIP3    H151357   2.787   3.950  12.068  0.5403 -0.2375 -0.6478
 9054TIP3    H251358   2.780   4.093  12.118  2.1626 -0.0287 -0.9617
 9055TIP3   OH251359   1.760   3.704  10.938  0.7979  0.2461 -0.0588
 9055TIP3    H151360   1.736   3.794  10.917 -1.2966  0.7733  3.6461
 9055TIP3    H251361   1.807   3.710  11.021 -0.8305 -2.1057  1.1593
 9056TIP3   OH251362   5.290   7.313  13.386  0.1723 -0.2667  0.1670
 9056TIP3    H151363   5.358   7.333  13.451 -0.5187  0.8218  0.5745
 9056TIP3    H251364   5.323   7.352  13.305  0.3109 -0.2779  0.2158
 9057TIP3   OH251365   0.336   3.808  11.054 -0.3998 -0.0491  0.8254
 9057TIP3    H151366   0.297   3.836  10.971  1.1613  1.1934  0.4679
 9057TIP3    H251367   0.266   3.817  11.118 -1.5742 -0.8354 -0.2986
 9058TIP3   OH251368   6.104   4.850  13.458  0.6205  0.1168  0.6382
 9058TIP3    H151369   6.076   4.782  13.520  2.9329  0.2798  1.9559
 9058TIP3    H251370   6.132   4.923  13.513 -0.9727  1.8933 -0.7364
 9059TIP3   OH251371   5.793   0.016  11.228  0.2247 -0.8521 -0.5727
 9059TIP3    H151372   5.767   0.108  11.233  1.9714 -0.3600  0.3192
 9059TIP3    H251373   5.778  -0.018  11.316  2.5039 -0.5172  0.0149
 9060TIP3   OH251374   2.446   1.778  12.555  0.2442  0.0131 -0.1472
 9060TIP3    H151375   2.522   1.733  12.517  1.4225  0.6722  1.3115
 9060TIP3    H251376   2.412   1.718  12.620 -0.3853 -0.1944 -0.6569
 9061TIP3   OH251377   3.795   0.862  12.271 -0.0431  0.6162  0.7341
 9061TIP3    H151378   3.787   0.780  12.320 -0.7040  0.8046  0.9555
 9061TIP3    H251379   3.882   0.858  12.232  0.0835 -0.0159  1.0605
 9062TIP3   OH251380   7.379   1.090  12.227 -0.0148 -0.2998 -1.0639
 9062TIP3    H151381   7.311   1.030  12.257 -0.3779  0.1020 -1.0756
 9062TIP3    H251382   7.389   1.154  12.297  0.3192 -0.3295 -1.0816
 9063TIP3   OH251383   7.554   6.776  11.385  0.9486  0.3912 -0.0436
 9063TIP3    H151384   7.640   6.792  11.346  1.5524  0.3490  1.2165
 9063TIP3    H251385   7.573   6.743  11.473 -0.3563 -0.1974  0.0478
 9064TIP3   OH251386   2.460   2.630  12.223 -0.3164 -0.2186 -0.4307
 9064TIP3    H151387   2.506   2.563  12.275 -0.2544 -0.8648 -1.2980
 9064TIP3    H251388   2.481   2.713  12.267 -1.3985 -0.8617  1.3951
 9065TIP3   OH251389   0.073   6.061  12.261  0.0985  0.2243 -0.0371
 9065TIP3    H151390   0.085   6.147  12.222  1.8501  0.0595  0.0443
 9065TIP3    H251391   0.081   6.076  12.356 -1.3667  0.2118  0.1105
 9066TIP3   OH251392   0.658   4.735  11.957 -0.2077 -0.2112 -0.3507
 9066TIP3    H151393   0.654   4.761  12.049 -1.8506  1.7978 -0.9111
 9066TIP3    H251394   0.743   4.766  11.927 -0.2601  0.4435  0.1514
 9067TIP3   OH251395   7.598   2.035  11.245 -0.3493 -0.3303 -0.0946
 9067TIP3    H151396   7.634   1.950  11.220  1.2729  0.2157  0.2395
 9067TIP3    H251397   7.560   2.021  11.332 -0.1359 -0.7281 -0.0632
 9068TIP3   OH251398   0.457   5.647  13.496  0.3270  1.2634 -0.1523
 9068TIP3    H151399   0.364   5.663  13.479  0.2088  1.3145  0.4929
 9068TIP3    H251400   0.503   5.702  13.434 -0.0417 -0.7429 -2.3369
 9069TIP3   OH251401   1.489   6.888  11.931 -0.1952 -0.9647 -0.5638
 9069TIP3    H151402   1.554   6.821  11.953  0.0193 -0.2133  1.2640
 9069TIP3    H251403   1.412   6.865  11.984 -0.1924  0.0762 -0.0740
 9070TIP3   OH251404   0.402   1.208  12.286  0.3606  0.8293 -0.1693
 9070TIP3    H151405   0.446   1.293  12.282  0.5211  0.8291  1.0933
 9070TIP3    H251406   0.423   1.174  12.373 -1.3710  0.4100  0.1286
 9071TIP3   OH251407   0.508   3.502  12.177  0.0643 -0.1254 -0.3532
 9071TIP3    H151408   0.551   3.541  12.101 -0.0718  0.2351 -0.2456
 9071TIP3    H251409   0.418   3.487  12.149  0.6840 -2.6725 -1.2431
 9072TIP3   OH251410   1.748   5.411  12.043 -0.7873  0.4088  0.1745
 9072TIP3    H151411   1.699   5.493  12.048  0.4075  1.0999  0.7168
 9072TIP3    H251412   1.681   5.345  12.023 -1.6945  1.5656 -0.7113
 9073TIP3   OH251413   5.871   5.236  10.555 -0.2419 -0.7166 -0.2132
 9073TIP3    H151414   5.926   5.285  10.493  0.0507  0.2526  0.7715
 9073TIP3    H251415   5.910   5.149  10.558  0.8188 -0.2528 -0.0778
 9074TIP3   OH251416   3.454   6.267  11.725  0.1458  0.5621 -0.2511
 9074TIP3    H151417   3.521   6.250  11.791  0.3382  1.5311 -0.1862
 9074TIP3    H251418   3.380   6.213  11.751  0.1993  0.9815  0.8027
 9075TIP3   OH251419   1.602   6.940  12.219 -0.4868 -0.0869  0.0419
 9075TIP3    H151420   1.546   6.966  12.145  0.1489 -0.4863 -0.5932
 9075TIP3    H251421   1.666   7.010  12.227  0.6372 -0.9466 -1.0537
 9076TIP3   OH251422   5.158   2.009  11.333  0.2140 -0.4767 -0.3964
 9076TIP3    H151423   5.173   2.100  11.307  2.0956 -0.0415  1.8616
 9076TIP3    H251424   5.216   1.958  11.277 -0.7410 -0.3157 -1.5725
 9077TIP3   OH251425   1.405   2.610  12.322  0.1916  0.1449 -0.1428
 9077TIP3    H151426   1.407   2.579  12.412 -1.3351  1.0241  0.2256
 9077TIP3    H251427   1.344   2.552  12.278 -0.3637  0.7509 -0.1845
 9078TIP3   OH251428   3.673   5.078  11.795  0.4292 -0.0460  0.3293
 9078TIP3    H151429   3.745   5.016  11.789 -0.0876 -0.9834  2.5338
 9078TIP3    H251430   3.652   5.081  11.889 -1.0924  1.7099  0.0024
 9079TIP3   OH251431   3.348   3.614  12.563  0.2181  0.2608  0.0591
 9079TIP3    H151432   3.405   3.543  12.596  0.3555  0.8198  1.0503
 9079TIP3    H251433   3.390   3.694  12.593 -1.5967  0.6667  1.6532
 9080TIP3   OH251434   1.665   5.695  12.524 -0.3433 -0.6254  0.0404
 9080TIP3    H151435   1.699   5.633  12.460 -1.4785 -0.5350 -0.6795
 9080TIP3    H251436   1.581   5.656  12.552 -1.1957  0.6806 -0.6138
 9081TIP3   OH251437   1.380   5.809  13.002  0.3650 -0.7607  0.3292
 9081TIP3    H151438   1.356   5.815  12.909  0.8664 -0.8246  0.1925
 9081TIP3    H251439   1.350   5.892  13.040  0.4558 -0.5936  0.0412
 9082TIP3   OH251440   4.629   5.053  12.020  0.0437  0.7844 -0.2008
 9082TIP3    H151441   4.682   4.986  12.064  0.3455  0.8664 -0.4425
 9082TIP3    H251442   4.680   5.078  11.943 -0.6720  0.3556 -0.8195
 9083TIP3   OH251443   7.380   5.374  11.846  0.6626 -0.9293 -0.3386
 9083TIP3    H151444   7.450   5.367  11.911  0.4939 -1.3663 -0.1952
 9083TIP3    H251445   7.325   5.296  11.861 -2.2677  1.3915  2.3526
 9084TIP3   OH251446   4.912   0.710  13.061 -0.4241 -0.1896  0.0937
 9084TIP3    H151447   4.952   0.630  13.095  2.9801  0.0137 -2.7432
 9084TIP3    H251448   4.957   0.781  13.108 -0.0036  0.0211 -0.6040
 9085TIP3   OH251449   3.047   2.319  12.221  0.1562  0.7817 -0.2854
 9085TIP3    H151450   3.008   2.232  12.214 -1.0935  1.1009  1.8676
 9085TIP3    H251451   3.024   2.361  12.138 -0.7354 -0.3546 -0.6575
 9086TIP3   OH251452   1.982   6.753  13.398 -0.1236 -0.1862 -0.4102
 9086TIP3    H151453   2.045   6.691  13.360  0.0697  0.6778 -1.5447
 9086TIP3    H251454   2.034   6.807  13.457  0.0261 -0.0913 -0.6259
 9087TIP3   OH251455   4.149   3.866  10.990 -0.8020  0.7299  0.1046
 9087TIP3    H151456   4.155   3.809  10.913 -1.9595 -0.6017  0.9656
 9087TIP3    H251457   4.208   3.826  11.054 -0.9564  0.9978  0.4176
 9088TIP3   OH251458   0.396   4.368  10.719  0.6662  0.4949  0.4125
 9088TIP3    H151459   0.479   4.350  10.764  0.4747 -0.1584  0.5152
 9088TIP3    H251460   0.406   4.326  10.634  1.3603  2.4470 -0.5298
 9089TIP3   OH251461   3.700   1.877  11.414 -0.1196 -0.2585 -0.0023
 9089TIP3    H151462   3.707   1.946  11.348 -0.9879  0.6987  0.8765
 9089TIP3    H251463   3.726   1.797  11.367 -0.3595  0.4478 -1.4042
 9090TIP3   OH251464   2.114   4.212  10.564  0.4175 -0.1464  0.3000
 9090TIP3    H151465   2.154   4.285  10.516 -2.2383  1.1276 -0.1636
 9090TIP3    H251466   2.123   4.137  10.505  0.4205  0.5400 -0.5948
 9091TIP3   OH251467   0.591   6.193  10.631  0.1044 -0.3708 -0.1509
 9091TIP3    H151468   0.595   6.102  10.659  0.4342 -1.2649 -2.7966
 9091TIP3    H251469   0.682   6.215  10.609  0.1739  0.9288  1.2188
 9092TIP3   OH251470   2.085   6.547  12.353  0.1485  0.5016  0.1440
 9092TIP3    H151471   2.022   6.560  12.424 -0.1577  0.2149 -0.0671
 9092TIP3    H251472   2.168   6.529  12.396 -0.4044 -1.6048  0.4765
 9093TIP3   OH251473   2.335   1.631  12.316 -0.0349 -0.3242  0.2031
 9093TIP3    H151474   2.379   1.703  12.361 -0.0997 -0.9612  1.3287
 9093TIP3    H251475   2.269   1.600  12.378 -0.5063 -0.8754 -0.5548
 9094TIP3   OH251476   7.238   4.226  12.557  0.5821  0.4942 -0.4302
 9094TIP3    H151477   7.146   4.210  12.581  0.8905  0.4181  0.8118
 9094TIP3    H251478   7.236   4.305  12.503 -0.6758 -1.8379 -4.1815
 9095TIP3   OH251479   5.369   3.810  11.031  0.2360 -0.3547  0.0495
 9095TIP3    H151480   5.395   3.900  11.011  0.1955 -0.7617 -2.0845
 9095TIP3    H251481   5.452   3.762  11.038  0.3311  0.0842  2.7518
 9096TIP3   OH251482   1.480   4.068  11.410  0.0467  0.2582 -0.3130
 9096TIP3    H151483   1.502   4.158  11.434  0.2179 -0.4172  2.3837
 9096TIP3    H251484   1.384   4.064  11.419 -0.2763  0.7390 -2.8339
 9097TIP3   OH251485   2.368   6.518  12.417  0.1763 -0.4897  0.5848
 9097TIP3    H151486   2.422   6.553  12.346  1.0312  0.9941  1.8838
 9097TIP3    H251487   2.413   6.439  12.445  1.5825  0.5572  1.4382
 9098TIP3   OH251488   6.379   1.889  11.745  0.1936 -0.0181  0.3572
 9098TIP3    H151489   6.345   1.879  11.834 -0.3019 -1.1765  0.0586
 9098TIP3    H251490   6.457   1.834  11.742  0.3293  0.1847  0.1366
 9099TIP3   OH251491   7.193   5.085  12.346 -0.1023  0.1780  0.6048
 9099TIP3    H151492   7.225   5.027  12.276  0.4886  0.8476  0.3070
 9099TIP3    H251493   7.149   5.027  12.407 -0.5462 -0.4443 -0.2777
 9100TIP3   OH251494   6.703   3.612  10.939  0.1684  0.2324 -0.1968
 9100TIP3    H151495   6.788   3.605  10.982 -0.3716 -1.3457  0.6914
 9100TIP3    H251496   6.660   3.687  10.981  0.3068 -0.2592  0.8383
 9101TIP3   OH251497   3.329   3.539  10.699  0.3139 -0.7713 -0.7408
 9101TIP3    H151498   3.279   3.470  10.654 -0.1852 -0.7134 -0.2826
 9101TIP3    H251499   3.297   3.537  10.789  0.9869 -0.5798 -0.4909
 9102TIP3   OH251500   7.011   5.751  10.926 -0.2076 -0.2726  0.3683
 9102TIP3    H151501   7.047   5.817  10.986  0.4060 -0.0431 -0.2318
 9102TIP3    H251502   6.933   5.719  10.970 -0.9481  1.3952  0.3621
 9103TIP3   OH251503   1.892   1.904  10.560 -0.4087  0.2466  0.9789
 9103TIP3    H151504   1.940   1.972  10.512  0.5414  0.2197  1.8445
 9103TIP3    H251505   1.919   1.822  10.521 -3.1628  0.3623 -1.5065
 9104TIP3   OH251506   3.421   0.177  11.474 -0.2896  0.3761 -0.6980
 9104TIP3    H151507   3.505   0.164  11.430  0.8435  0.2135  1.3965
 9104TIP3    H251508   3.392   0.089  11.498  0.8467  0.5928  1.8319
 9105TIP3   OH251509   5.899   6.425  12.471 -0.1648 -0.2596  0.7943
 9105TIP3    H151510   5.955   6.347  12.469 -0.1798 -0.2663  0.6694
 9105TIP3    H251511   5.831   6.403  12.535  0.0846 -0.1758  1.0945
 9106TIP3   OH251512   2.073   1.730  10.903 -0.1135 -0.0610  0.3417
 9106TIP3    H151513   2.106   1.796  10.965 -0.0863  0.3663 -0.1243
 9106TIP3    H251514   2.144   1.717  10.841  0.2734 -1.2915  1.0014
 9107TIP3   OH251515   7.312   4.719  11.830  0.0514 -0.1117  0.3052
 9107TIP3    H151516   7.255   4.795  11.842 -0.6273 -0.4537 -0.6330
 9107TIP3    H251517   7.366   4.717  11.909  0.1763  1.4238  0.2922
 9108TIP3   OH251518   2.822   0.671  11.478  0.7190 -0.6518 -0.2402
 9108TIP3    H151519   2.840   0.582  11.510 -3.4883 -1.4492  0.5834
 9108TIP3    H251520   2.814   0.724  11.558 -2.0814 -0.9008 -0.2291
 9109TIP3   OH251521   4.963   2.354  11.793 -0.1393 -0.1249  0.0045
 9109TIP3    H151522   4.964   2.422  11.860  0.9397  0.6755 -0.7914
 9109TIP3    H251523   5.054   2.344  11.768 -0.5222 -0.4100 -1.3350
 9110TIP3   OH251524   3.313   6.455  12.450  0.2815  0.3147 -0.3840
 9110TIP3    H151525   3.351   6.434  12.536  0.2058  0.5583 -0.2903
 9110TIP3    H251526   3.276   6.373  12.420  2.2503 -0.3370 -1.1788
 9111TIP3   OH251527   1.482   7.656  12.878  0.2958  0.1773  0.0263
 9111TIP3    H151528   1.566   7.640  12.920 -0.2362 -0.3372  0.9421
 9111TIP3    H251529   1.441   7.724  12.931  1.0954  2.2472 -1.8288
 9112TIP3   OH251530   3.378   2.746  11.253  0.4619  0.5386  0.3423
 9112TIP3    H151531   3.396   2.833  11.289  0.5836  0.7061 -0.1120
 9112TIP3    H251532   3.341   2.763  11.166 -0.0474  0.1458  0.4768
 9113TIP3   OH251533   1.411   0.491  13.538  0.1532 -0.2598  0.7897
 9113TIP3    H151534   1.403   0.397  13.551 -0.7225 -0.5398 -1.2554
 9113TIP3    H251535   1.503   0.505  13.519  0.1892 -0.8190  0.5183
 9114TIP3   OH251536   1.084   1.941  11.285 -0.1509 -0.2570  0.7426
 9114TIP3    H151537   1.081   1.985  11.200  0.9689 -0.3830  0.6298
 9114TIP3    H251538   1.114   1.852  11.265 -2.5729 -1.1998  0.9403
 9115TIP3   OH251539   2.767   7.407  11.634 -0.7494  0.2372  0.0240
 9115TIP3    H151540   2.846   7.417  11.580 -0.5176  0.5447  0.4178
 9115TIP3    H251541   2.701   7.460  11.589 -0.7060  0.0666 -0.2462
 9116TIP3   OH251542   1.984   3.503  11.856  0.1362  0.2725 -0.6411
 9116TIP3    H151543   2.069   3.548  11.861  0.2801 -0.0666  0.2315
 9116TIP3    H251544   1.927   3.565  11.811  0.9108  0.3966 -1.4973
 9117TIP3   OH251545   5.009   5.576  12.573 -0.2066 -0.5206 -0.1612
 9117TIP3    H151546   5.026   5.639  12.642 -0.7694  1.6377 -1.8991
 9117TIP3    H251547   5.041   5.493  12.609 -3.3503 -0.2985  4.0217
 9118TIP3   OH251548   7.424   0.920  11.175 -0.6186 -0.0989 -0.1202
 9118TIP3    H151549   7.444   0.918  11.268  0.6167 -0.2695 -0.3641
 9118TIP3    H251550   7.376   1.001  11.162  0.6265  0.7534  0.4158
 9119TIP3   OH251551   6.309   4.003  12.328 -0.1832 -0.3595 -0.0926
 9119TIP3    H151552   6.336   4.087  12.363  1.1614 -0.7072 -0.2605
 9119TIP3    H251553   6.242   4.025  12.263  0.1351  0.5752 -0.1188
 9120TIP3   OH251554   2.670   5.463  11.427 -0.3382  0.1978 -0.1582
 9120TIP3    H151555   2.581   5.452  11.462 -0.1067  0.0832  0.4082
 9120TIP3    H251556   2.669   5.550  11.387 -0.5357  0.4499  0.3779
 9121TIP3   OH251557   6.434   3.212  11.517 -0.5198  0.4442 -0.4433
 9121TIP3    H151558   6.493   3.237  11.588 -1.8955 -0.6984  1.1927
 9121TIP3    H251559   6.492   3.177  11.449  1.1393  4.3324 -1.3090
 9122TIP3   OH251560   7.362   4.282  10.394  0.6146  0.6780  0.4185
 9122TIP3    H151561   7.405   4.348  10.340  0.2377  0.3088 -0.3498
 9122TIP3    H251562   7.340   4.212  10.333 -0.1108  0.3935  0.9907
 9123TIP3   OH251563   4.796   3.175  12.331 -0.4362 -0.3170 -0.0149
 9123TIP3    H151564   4.766   3.091  12.365  1.6390 -1.2962 -0.4580
 9123TIP3    H251565   4.828   3.222  12.408  0.5598 -0.9110 -0.0473
 9124TIP3   OH251566   4.550   1.881  11.192 -0.1580 -0.0302 -0.0852
 9124TIP3    H151567   4.551   1.967  11.233  1.5728  0.0537 -0.2566
 9124TIP3    H251568   4.593   1.823  11.255  0.0050 -0.4651 -0.5800
 9125TIP3   OH251569   1.163   0.244  11.271 -0.0010  0.3205  0.1043
 9125TIP3    H151570   1.201   0.159  11.296  1.6296  0.8112 -0.5915
 9125TIP3    H251571   1.213   0.271  11.194  0.3662  2.5078  1.0481
 9126TIP3   OH251572   2.535   6.943  12.888 -0.1927 -0.1858 -0.3502
 9126TIP3    H151573   2.487   6.867  12.924 -0.4320  0.5022  0.8408
 9126TIP3    H251574   2.626   6.914  12.887 -0.1332 -0.1601  1.1057
 9127TIP3   OH251575   4.572   1.906  13.195  0.5504  0.5085 -0.1464
 9127TIP3    H151576   4.495   1.955  13.164 -0.7797  0.2931  2.4884
 9127TIP3    H251577   4.639   1.973  13.207  0.6070  0.8001 -1.8739
 9128TIP3   OH251578   4.998   0.373  11.724 -0.3116  0.8193  0.2227
 9128TIP3    H151579   5.034   0.452  11.682 -0.4599  1.4708  1.2872
 9128TIP3    H251580   5.025   0.302  11.666  1.0381  1.4909 -0.0338
 9129TIP3   OH251581   1.054   2.645  12.464 -0.1921  0.3241 -0.4182
 9129TIP3    H151582   1.021   2.665  12.377 -2.3120 -2.0283 -0.2466
 9129TIP3    H251583   0.976   2.639  12.519  0.7601 -1.8576  0.8325
 9130TIP3   OH251584   3.156   5.360  12.589 -0.7815 -0.1723 -0.3544
 9130TIP3    H151585   3.245   5.393  12.593 -0.4174 -1.0180 -0.9288
 9130TIP3    H251586   3.166   5.264  12.592 -1.5282 -0.3418 -2.0459
 9131TIP3   OH251587   0.682   4.036  10.622 -0.4200 -0.2116  0.6137
 9131TIP3    H151588   0.717   4.035  10.711  0.7553 -0.4547  0.1748
 9131TIP3    H251589   0.588   4.021  10.632 -0.6381  1.6612  1.9481
 9132TIP3   OH251590   0.585   6.481  13.590 -0.3011  0.3360  0.3469
 9132TIP3    H151591   0.574   6.514  13.679 -0.0352 -0.6652  0.7729
 9132TIP3    H251592   0.662   6.527  13.556  1.8999 -1.8530  1.9793
 9133TIP3   OH251593   1.787   1.230  11.406 -0.0380 -0.1385 -0.0408
 9133TIP3    H151594   1.812   1.142  11.377 -2.7714 -0.4991 -1.6985
 9133TIP3    H251595   1.829   1.288  11.343  0.4139 -0.3583  0.0502
 9134TIP3   OH251596   2.610   4.902  11.101  0.1296 -0.2496  0.2518
 9134TIP3    H151597   2.589   4.995  11.091  0.8372  0.0415  1.3142
 9134TIP3    H251598   2.525   4.860  11.113 -0.2761  0.1207 -1.0809
 9135TIP3   OH251599   7.234   5.665  12.614 -0.1507  0.4665  0.5089
 9135TIP3    H151600   7.294   5.592  12.630 -0.8012 -0.1611  0.1337
 9135TIP3    H251601   7.292   5.740  12.596  0.5304  0.2774  1.8454
 9136TIP3   OH251602   2.863   5.894  11.802 -0.1190 -0.1741  0.3488
 9136TIP3    H151603   2.793   5.848  11.849 -1.5246  0.0740 -1.4047
 9136TIP3    H251604   2.942   5.841  11.818 -1.6357 -3.3086 -1.5877
 9137TIP3   OH251605   3.776   7.253  11.353 -0.1911  0.7373  0.0341
 9137TIP3    H151606   3.749   7.218  11.268  2.7302 -1.0865 -0.2852
 9137TIP3    H251607   3.827   7.331  11.331  1.1420 -0.1136 -0.0100
 9138TIP3   OH251608   5.568   5.243  10.923 -0.1746 -0.0682  0.0290
 9138TIP3    H151609   5.625   5.227  10.848 -0.0882 -1.4565  0.3787
 9138TIP3    H251610   5.589   5.174  10.985 -3.3564 -1.6747 -0.4763
 9139TIP3   OH251611   2.727   5.882  11.045 -0.5649  0.3906  0.6569
 9139TIP3    H151612   2.784   5.888  10.969 -1.5998 -1.1624 -0.3137
 9139TIP3    H251613   2.654   5.940  11.025 -1.2128 -0.5932  0.0724
 9140TIP3   OH251614   4.603   5.903  11.807 -0.4743  0.4939 -0.1818
 9140TIP3    H151615   4.588   5.845  11.882 -0.6845 -1.8167 -1.9193
 9140TIP3    H251616   4.583   5.991  11.841  2.1142 -0.0169  3.2254
 9141TIP3   OH251617   5.773   5.113  11.531  0.6565  0.7445 -0.7866
 9141TIP3    H151618   5.678   5.107  11.541  0.9064  0.9400  4.4743
 9141TIP3    H251619   5.798   5.032  11.488 -1.8186  0.7343 -2.4077
 9142TIP3   OH251620   1.880   1.645  10.716  0.4534 -0.0589  0.4977
 9142TIP3    H151621   1.794   1.644  10.759  0.8010  0.5349  1.2146
 9142TIP3    H251622   1.940   1.679  10.782  1.0106  0.8212 -0.4455
 9143TIP3   OH251623   7.318   0.032  13.392 -0.1246  0.2618 -0.3456
 9143TIP3    H151624   7.355   0.115  13.422 -0.4526  0.4780 -0.5242
 9143TIP3    H251625   7.256   0.007  13.460  0.2453 -0.0329 -0.1104
 9144TIP3   OH251626   5.721   0.714  11.488  0.0309 -0.4359 -0.6406
 9144TIP3    H151627   5.813   0.703  11.512 -0.3415 -0.6559  0.7652
 9144TIP3    H251628   5.678   0.636  11.523 -0.8070  0.0181 -0.6411
 9145TIP3   OH251629   2.027   1.488  10.555 -0.3262  0.5884 -0.2322
 9145TIP3    H151630   1.960   1.467  10.489 -1.3631  2.2457  0.2365
 9145TIP3    H251631   1.978   1.525  10.628  1.1643  2.6919 -0.2261
 9146TIP3   OH251632   2.020   4.809  10.916 -0.2735  0.4716  0.1307
 9146TIP3    H151633   1.977   4.727  10.937 -1.4668  0.9663 -0.3206
 9146TIP3    H251634   2.021   4.812  10.820 -0.7069  1.2097  0.1405
 9147TIP3   OH251635   1.115   0.177  10.558 -0.4812 -0.0976 -0.0672
 9147TIP3    H151636   1.195   0.126  10.567 -0.9594 -0.7430  0.5651
 9147TIP3    H251637   1.059   0.124  10.501 -1.1416 -0.4950  0.9286
 9148TIP3   OH251638   4.600   3.075  11.709 -0.2243 -0.3834  0.5674
 9148TIP3    H151639   4.679   3.125  11.725  1.2819 -2.9986  2.0494
 9148TIP3    H251640   4.561   3.064  11.796 -1.2055 -0.6855  0.1059
 9149TIP3   OH251641   5.391   5.581  11.794  0.2499 -0.3596  0.0885
 9149TIP3    H151642   5.350   5.649  11.740 -0.5996 -0.2714  0.8282
 9149TIP3    H251643   5.474   5.563  11.750  0.4992  1.1640 -0.1347
 9150TIP3   OH251644   5.621   5.278  12.564  0.2576 -0.2688  0.0990
 9150TIP3    H151645   5.598   5.360  12.521  0.8781 -0.1137  0.0666
 9150TIP3    H251646   5.675   5.231  12.500 -2.1631 -1.8504 -0.9551
 9151TIP3   OH251647   0.932   4.271  10.295 -0.2121 -0.3996 -0.4613
 9151TIP3    H151648   1.005   4.212  10.315 -1.0392 -0.6004  2.2513
 9151TIP3    H251649   0.879   4.223  10.232 -0.0042 -1.8810  0.4586
 9152TIP3   OH251650   5.279   6.746  13.224 -0.2308  0.0061  0.2209
 9152TIP3    H151651   5.355   6.735  13.281 -0.3280  0.0720  0.3652
 9152TIP3    H251652   5.204   6.727  13.281 -0.2608 -1.9710 -0.3913
 9153TIP3   OH251653   1.246   4.570  12.573  0.3378 -0.0968 -0.4261
 9153TIP3    H151654   1.233   4.533  12.661 -1.5790  1.1505 -0.1417
 9153TIP3    H251655   1.183   4.524  12.518 -0.8825  1.4892 -0.4090
 9154TIP3   OH251656   7.172   1.730  10.905  0.7150 -0.4370 -0.0749
 9154TIP3    H151657   7.206   1.651  10.862  1.2242 -1.0664  1.4331
 9154TIP3    H251658   7.092   1.751  10.856  1.5081 -0.8344 -1.6238
 9155TIP3   OH251659   4.493   2.666  10.791  0.1422  0.3300 -0.4826
 9155TIP3    H151660   4.489   2.572  10.811  0.1802  0.6339  1.1108
 9155TIP3    H251661   4.562   2.700  10.848  0.8136  1.1819 -1.7591
 9156TIP3   OH251662   4.402   4.995  11.466  0.1214 -0.3743  0.0944
 9156TIP3    H151663   4.447   4.939  11.529 -0.2671 -1.9491 -0.9560
 9156TIP3    H251664   4.469   5.016  11.400 -0.0037 -0.5538 -0.0941
 9157TIP3   OH251665   5.963   6.597  12.838  0.7560  0.3923  0.1140
 9157TIP3    H151666   5.888   6.540  12.854  0.9047  0.4966  1.3048
 9157TIP3    H251667   5.927   6.686  12.841  0.9145  0.4442  0.7158
 9158TIP3   OH251668   1.464   5.977  13.337  0.5850  0.2904  0.5939
 9158TIP3    H151669   1.441   6.043  13.271 -0.9970 -0.9393 -0.1618
 9158TIP3    H251670   1.539   6.014  13.383  1.8382  1.1909 -1.9554
 9159TIP3   OH251671   2.100   0.231  10.893  0.4404  0.0665 -0.2081
 9159TIP3    H151672   2.152   0.173  10.949 -0.3906 -0.5901 -0.1061
 9159TIP3    H251673   2.155   0.309  10.883  2.1366 -1.2074 -1.3839
 9160TIP3   OH251674   6.952   5.704  12.154 -0.2539 -0.3699  0.3325
 9160TIP3    H151675   7.007   5.704  12.232  0.6525 -1.7126 -0.2594
 9160TIP3    H251676   6.953   5.794  12.123 -0.4041  0.1168  1.7049
 9161TIP3   OH251677   6.750   4.793  12.532  0.2281  0.3597 -0.2394
 9161TIP3    H151678   6.671   4.754  12.570  0.5153 -0.6209 -0.6191
 9161TIP3    H251679   6.724   4.818  12.443  0.2345  0.3638 -0.2406
 9162TIP3   OH251680   3.504   6.105  12.645  0.0300  0.3588 -0.1659
 9162TIP3    H151681   3.504   6.199  12.624  1.1047  0.3268 -0.3878
 9162TIP3    H251682   3.431   6.069  12.594  0.0775  0.9540 -0.6778
 9163TIP3   OH251683   3.039   4.558  12.312 -0.4952  0.1167  0.0155
 9163TIP3    H151684   3.005   4.645  12.295 -0.8658  0.0884  0.6028
 9163TIP3    H251685   3.031   4.512  12.228 -2.2425 -0.0014  0.2077
 9164TIP3   OH251686   0.237   7.421  13.146 -0.3889  0.2438 -0.0059
 9164TIP3    H151687   0.305   7.354  13.148 -1.2997 -0.8251 -1.7879
 9164TIP3    H251688   0.220   7.442  13.238 -0.2408 -2.1655  0.6351
 9165TIP3   OH251689   6.396   3.015  12.137 -0.3881  0.0239  0.2827
 9165TIP3    H151690   6.363   2.927  12.121 -0.9210  0.3053 -0.2507
 9165TIP3    H251691   6.330   3.056  12.193 -0.4443  0.2691  0.0421
 9166TIP3   OH251692   5.526   5.310  12.236  0.5099 -0.3268  0.1128
 9166TIP3    H151693   5.515   5.305  12.141 -1.9373 -0.5680  0.3315
 9166TIP3    H251694   5.521   5.403  12.256  1.4686 -0.2376 -0.0009
 9167TIP3   OH251695   6.098   1.472  10.903 -0.1091  0.0201 -0.0545
 9167TIP3    H151696   6.034   1.424  10.956  0.0346  1.5054  1.5563
 9167TIP3    H251697   6.064   1.562  10.900 -0.0330  0.0394 -2.4219
 9168TIP3   OH251698   2.909   3.609  12.711  0.8477 -0.1828 -0.3719
 9168TIP3    H151699   2.997   3.588  12.742  0.4601 -2.1829 -0.5177
 9168TIP3    H251700   2.850   3.558  12.767 -0.2641  1.2701 -0.1450
 9169TIP3   OH251701   6.111   3.473  12.844 -0.1029 -0.6820  0.4043
 9169TIP3    H151702   6.176   3.478  12.775  0.3106  2.3956  0.8924
 9169TIP3    H251703   6.133   3.393  12.892  2.0048 -0.8144 -0.6682
 9170TIP3   OH251704   2.257   5.620  12.071 -0.4898 -0.3874  0.0477
 9170TIP3    H151705   2.244   5.677  12.147 -1.0095  0.7663 -0.8766
 9170TIP3    H251706   2.196   5.653  12.005 -0.9918 -2.1974 -0.4445
 9171TIP3   OH251707   0.797   3.485  11.876 -0.0835 -0.1136  0.4624
 9171TIP3    H151708   0.885   3.472  11.839 -0.4190 -0.7184 -0.1362
 9171TIP3    H251709   0.752   3.403  11.860 -0.2577 -0.3825  2.2200
 9172TIP3   OH251710   5.009   1.250  11.998  0.5877  0.2784 -0.3947
 9172TIP3    H151711   4.985   1.328  12.048  0.0220 -1.1594  1.6987
 9172TIP3    H251712   4.927   1.201  11.988  1.5545 -2.1241  2.2181
 9173TIP3   OH251713   1.268   5.830  12.745 -0.0488 -0.6108  0.1465
 9173TIP3    H151714   1.237   5.767  12.680  2.2201 -0.6663 -0.9513
 9173TIP3    H251715   1.200   5.897  12.747 -0.5516 -1.0110 -1.6930
 9174TIP3   OH251716   4.907   1.269  11.117 -0.6502 -0.0646  0.3432
 9174TIP3    H151717   4.975   1.239  11.056  0.8684  0.6526  1.6138
 9174TIP3    H251718   4.907   1.364  11.108 -2.0442 -0.0985 -0.1790
 9175TIP3   OH251719   4.726   1.164  10.726  0.0171  0.2441  0.0104
 9175TIP3    H151720   4.708   1.245  10.677 -3.2186 -0.8598 -0.9473
 9175TIP3    H251721   4.820   1.151  10.717  0.7499  4.0301  0.5148
 9176TIP3   OH251722   6.800   7.341  11.291 -0.3063 -0.1437  0.2716
 9176TIP3    H151723   6.859   7.367  11.220  1.2396 -1.8053  0.8480
 9176TIP3    H251724   6.826   7.396  11.365 -1.5631  1.2191 -0.2542
 9177TIP3   OH251725   3.192   1.559  12.066 -0.2177  0.1888 -0.2391
 9177TIP3    H151726   3.211   1.640  12.021  0.0930  1.4715  2.0502
 9177TIP3    H251727   3.118   1.521  12.018 -0.1528  1.6526 -1.5372
 9178TIP3   OH251728   0.589   3.474  12.690  0.1246 -0.8522  0.2405
 9178TIP3    H151729   0.531   3.433  12.754 -1.3605  1.5530  0.5546
 9178TIP3    H251730   0.647   3.530  12.741  0.1217 -0.2714 -0.3743
 9179TIP3   OH251731   1.464   2.883  12.308 -0.1063  0.4469  0.7460
 9179TIP3    H151732   1.457   2.788  12.317  1.3387  0.0979 -1.1409
 9179TIP3    H251733   1.423   2.918  12.388  0.7946 -1.7832  2.2882
 9180TIP3   OH251734   2.094   0.633  12.362  0.6316 -0.3825  0.5455
 9180TIP3    H151735   2.008   0.664  12.333  0.1230 -1.5985  0.7180
 9180TIP3    H251736   2.146   0.713  12.370  0.7754  0.1086 -3.4728
 9181TIP3   OH251737   3.712   2.373  12.100 -0.0311 -0.0783  0.1026
 9181TIP3    H151738   3.621   2.388  12.126  0.2642  0.7320  0.7325
 9181TIP3    H251739   3.724   2.430  12.023 -0.3247 -0.9285 -0.5857
 9182TIP3   OH251740   2.022   5.009  12.504 -0.0324  0.5064  0.2523
 9182TIP3    H151741   1.995   4.987  12.593  0.2710 -1.2847 -0.0520
 9182TIP3    H251742   1.940   5.030  12.458 -0.3564  0.0322  0.6018
 9183TIP3   OH251743   6.338   7.366  13.289 -0.0774  0.1301  0.2669
 9183TIP3    H151744   6.428   7.354  13.258  0.9924 -1.6267  3.6485
 9183TIP3    H251745   6.332   7.460  13.307  0.0272  0.7856 -2.5734
 9184TIP3   OH251746   3.819   4.399  12.436  0.4057  0.4201 -0.0900
 9184TIP3    H151747   3.901   4.385  12.484 -0.3567  2.8603  2.1495
 9184TIP3    H251748   3.756   4.341  12.480  0.2887  0.7667  0.2102
 9185TIP3   OH251749   6.066   5.956  11.796 -0.5833  0.4418  0.1125
 9185TIP3    H151750   6.067   5.997  11.709 -0.1951  1.3267  0.5307
 9185TIP3    H251751   5.987   5.990  11.837 -0.9262 -0.2060  0.0154
 9186TIP3   OH251752   4.888   1.871  11.638 -0.4633 -0.6632 -0.1037
 9186TIP3    H151753   4.887   1.918  11.555  0.2690  0.4017  0.4700
 9186TIP3    H251754   4.805   1.895  11.680  0.1325  0.5859  0.4154
 9187TIP3   OH251755   0.433   1.926  11.558 -0.2655 -0.5990  0.0361
 9187TIP3    H151756   0.497   1.874  11.510  2.2076  2.9127 -0.8294
 9187TIP3    H251757   0.377   1.963  11.490 -0.9466 -0.7811  0.4895
 9188TIP3   OH251758   3.468   2.463  12.360  0.7230  0.5829 -0.2205
 9188TIP3    H151759   3.412   2.390  12.387  1.1036  0.2292 -0.3830
 9188TIP3    H251760   3.414   2.512  12.297  0.5629  0.2990 -0.3059
 9189TIP3   OH251761   0.901   4.697  11.108  0.1844  0.9176 -0.3443
 9189TIP3    H151762   0.869   4.771  11.055 -0.2558  1.0589  0.1141
 9189TIP3    H251763   0.996   4.709  11.111  0.2137  0.9363 -1.0584
 9190TIP3   OH251764   7.135   5.143  10.434 -0.6557  0.2960  0.2736
 9190TIP3    H151765   7.172   5.225  10.401  0.3635  0.2377  1.2083
 9190TIP3    H251766   7.082   5.168  10.508 -1.9158  0.2920 -0.5998
 9191TIP3   OH251767   3.400   0.810  12.189  0.0816 -0.7847 -0.1504
 9191TIP3    H151768   3.311   0.786  12.163  0.2094 -1.4014 -0.0255
 9191TIP3    H251769   3.441   0.727  12.215  0.4995 -0.4206  0.3725
 9192TIP3   OH251770   6.682   2.367  12.275  0.3227 -0.0972  0.6423
 9192TIP3    H151771   6.742   2.417  12.220  0.5553 -0.6218  0.4112
 9192TIP3    H251772   6.601   2.417  12.274  0.4020  0.0284  0.0235
 9193TIP3   OH251773   5.630   6.914  12.513  0.2129  0.0151 -0.5475
 9193TIP3    H151774   5.655   6.886  12.425 -0.4925  0.8677 -1.0362
 9193TIP3    H251775   5.685   6.862  12.572  0.2334 -1.0310 -1.4693
 9194TIP3   OH251776   1.746   7.046  10.795 -0.3471 -0.0985  0.0487
 9194TIP3    H151777   1.789   7.017  10.875 -0.4569  0.1520  0.1985
 9194TIP3    H251778   1.817   7.051  10.731  0.0034  1.1619  0.5170
 9195TIP3   OH251779   5.554   0.991  12.426  0.1786  0.6115  1.0340
 9195TIP3    H151780   5.591   0.913  12.468 -1.0856 -0.4912  0.1753
 9195TIP3    H251781   5.601   1.064  12.466  2.1382 -0.6227  1.1542
 9196TIP3   OH251782   3.893   2.111  12.238  0.2598 -0.0492 -0.3066
 9196TIP3    H151783   3.931   2.188  12.196 -1.1304  0.8132 -0.0568
 9196TIP3    H251784   3.827   2.080  12.177 -0.1340 -0.2033  0.1849
 9197TIP3   OH251785   0.064   6.393  13.685  0.2725 -0.1656 -0.8747
 9197TIP3    H151786   0.157   6.391  13.707  0.0481 -0.5924  0.0593
 9197TIP3    H251787   0.062   6.368  13.592  0.9223 -2.5832 -0.3094
 9198TIP3   OH251788   5.403   4.522  12.070 -0.7164  0.2226  0.0826
 9198TIP3    H151789   5.435   4.548  12.156 -0.3331  1.7662 -0.4983
 9198TIP3    H251790   5.358   4.599  12.036 -1.5320 -0.6058 -0.7957
 9199TIP3   OH251791   3.266   1.255  12.098 -0.6344 -0.3015 -0.9471
 9199TIP3    H151792   3.224   1.225  12.179  0.0817 -0.1281 -0.5085
 9199TIP3    H251793   3.221   1.337  12.077  1.2834  1.3425  1.0283
 9200TIP3   OH251794   2.462   2.230  10.721 -0.4897  1.0048 -0.5681
 9200TIP3    H151795   2.369   2.221  10.742 -0.3325 -0.7079 -0.4079
 9200TIP3    H251796   2.483   2.149  10.673  0.5996  2.0041 -1.8515
 9201TIP3   OH251797   0.581   1.142  11.740 -0.2844 -0.0774  0.2644
 9201TIP3    H151798   0.588   1.232  11.772 -1.0378 -0.2179  0.8519
 9201TIP3    H251799   0.604   1.088  11.815  2.3363 -0.3966 -0.6691
 9202TIP3   OH251800   7.346   5.040  11.293  0.1854 -1.0767 -0.5196
 9202TIP3    H151801   7.403   5.054  11.369 -1.2148 -0.3839  0.4448
 9202TIP3    H251802   7.258   5.057  11.326 -0.5965 -2.1151 -1.9718
 9203TIP3   OH251803   0.970   7.639  12.219 -0.1032  0.5746 -0.4758
 9203TIP3    H151804   0.970   7.603  12.131  0.2514  0.5496 -0.4654
 9203TIP3    H251805   1.062   7.646  12.243 -0.2166 -0.5416  0.3568
 9204TIP3   OH251806   1.582   0.869  13.166 -0.2157 -0.2246  0.3802
 9204TIP3    H151807   1.673   0.880  13.139  0.0608  0.2406  1.4539
 9204TIP3    H251808   1.582   0.886  13.260 -1.3116 -0.8242  0.5135
 9205TIP3   OH251809   5.327   6.557  12.991 -0.3763 -0.2012 -0.1759
 9205TIP3    H151810   5.277   6.577  13.070 -1.5701 -0.4428 -0.8585
 9205TIP3    H251811   5.384   6.484  13.017  1.9072  1.9607  1.4888
 9206TIP3   OH251812   1.514   4.506  11.170 -0.1554 -0.6031  0.8902
 9206TIP3    H151813   1.450   4.577  11.175 -0.2843 -0.4820 -1.5016
 9206TIP3    H251814   1.488   4.456  11.092  2.0903 -1.1087  0.4118
 9207TIP3   OH251815   1.289   5.603  11.451  0.2229  0.1579  0.2937
 9207TIP3    H151816   1.200   5.582  11.480 -0.8995  1.3542 -1.9983
 9207TIP3    H251817   1.339   5.524  11.467 -1.2181 -0.5214  1.7393
 9208TIP3   OH251818   4.998   5.846  12.768 -0.0011  0.1062 -1.0052
 9208TIP3    H151819   4.954   5.928  12.789  1.6568  0.7929 -0.0475
 9208TIP3    H251820   5.063   5.834  12.837 -1.6590 -3.2005  0.1710
 9209TIP3   OH251821   0.653   3.806  10.305  0.3511 -0.1291 -0.1273
 9209TIP3    H151822   0.610   3.831  10.387  0.0047  1.9440 -0.8990
 9209TIP3    H251823   0.732   3.760  10.333 -0.3325 -0.4657  1.3482
 9210TIP3   OH251824   0.872   1.141  13.424  0.0145  0.3584  0.3018
 9210TIP3    H151825   0.913   1.057  13.446 -0.4100 -0.2478 -1.0996
 9210TIP3    H251826   0.945   1.198  13.400  0.2620  0.2330  0.7420
 9211TIP3   OH251827   2.621   6.082  10.431  0.0658 -0.0364 -0.2837
 9211TIP3    H151828   2.557   6.031  10.481 -0.1662 -0.2330 -0.7713
 9211TIP3    H251829   2.593   6.072  10.340  1.4313 -1.0608 -0.6334
 9212TIP3   OH251830   2.650   0.302  10.866 -0.1485  0.2684 -0.5676
 9212TIP3    H151831   2.589   0.376  10.866  0.9107  1.1540 -0.5692
 9212TIP3    H251832   2.681   0.297  10.957 -0.6085 -0.5191 -0.4449
 9213TIP3   OH251833   7.379   3.849  11.747  0.0376 -0.2917  0.2233
 9213TIP3    H151834   7.466   3.844  11.786 -0.1728 -0.5743  0.6564
 9213TIP3    H251835   7.355   3.758  11.728 -0.4745 -0.2913  0.8094
 9214TIP3   OH251836   6.423   5.109  12.980 -0.4922 -0.0762  0.2916
 9214TIP3    H151837   6.490   5.095  12.914 -1.3350 -0.1288 -0.5742
 9214TIP3    H251838   6.443   5.047  13.049  0.5871  0.2021  0.2390
 9215TIP3   OH251839   5.828   6.098  11.852  0.5375  0.0540  0.9879
 9215TIP3    H151840   5.810   6.188  11.878 -1.4718  0.1585 -0.5001
 9215TIP3    H251841   5.802   6.046  11.927 -1.9123  0.5481  0.5891
 9216TIP3   OH251842   6.218   1.158  11.187  0.0659 -0.2982  0.0303
 9216TIP3    H151843   6.209   1.127  11.097  0.4457  1.6074 -0.7127
 9216TIP3    H251844   6.129   1.157  11.222 -0.0265 -1.4794 -0.1890
 9217TIP3   OH251845   7.191   7.581  13.632 -0.4523  0.0846 -0.1073
 9217TIP3    H151846   7.136   7.564  13.708 -1.0839 -2.9316 -1.0700
 9217TIP3    H251847   7.281   7.581  13.666 -0.8263  0.7746  0.8981
 9218TIP3   OH251848   4.515   0.172  11.204 -0.0464 -0.2547  0.0145
 9218TIP3    H151849   4.514   0.140  11.294  0.7649  3.5020  1.5691
 9218TIP3    H251850   4.438   0.228  11.198 -0.3673 -0.8391 -1.8612
 9219TIP3   OH251851   6.352   6.605  11.075  0.1845  0.1324  0.1471
 9219TIP3    H151852   6.344   6.698  11.055  0.2117  0.0567 -0.2183
 9219TIP3    H251853   6.367   6.602  11.170 -1.9384  0.3886  0.5252
 9220TIP3   OH251854   5.926   2.596  10.897  0.3472 -1.1090  0.2259
 9220TIP3    H151855   5.839   2.595  10.938  0.1666  0.7053 -0.0320
 9220TIP3    H251856   5.933   2.511  10.853 -1.0714 -1.4982  0.7010
 9221TIP3   OH251857   2.640   5.714  10.311  0.0992 -0.1543  0.1608
 9221TIP3    H151858   2.724   5.731  10.268  0.5583 -2.3587  0.0592
 9221TIP3    H251859   2.580   5.691  10.240 -0.0219 -0.6024  0.4040
 9222TIP3   OH251860   0.458   4.544  11.987 -0.1840  0.3250 -0.4612
 9222TIP3    H151861   0.385   4.538  11.925 -1.7148  0.9545  1.1746
 9222TIP3    H251862   0.532   4.572  11.934 -0.8972 -1.0764 -2.3378
 9223TIP3   OH251863   1.803   4.387  12.659  0.1898  0.0105  0.1702
 9223TIP3    H151864   1.841   4.358  12.576  1.4214 -1.1664  1.1050
 9223TIP3    H251865   1.879   4.411  12.713 -0.6097  1.1326  0.8338
 9224TIP3   OH251866   6.594   2.254  10.869 -0.0169 -0.5426 -0.1772
 9224TIP3    H151867   6.572   2.162  10.883 -0.9763 -0.4684 -1.0704
 9224TIP3    H251868   6.677   2.266  10.915 -1.0466 -1.2418  1.9842
 9225TIP3   OH251869   5.798   4.817  11.999  0.3644 -0.3744 -0.2180
 9225TIP3    H151870   5.795   4.886  11.933 -0.8745 -1.5429 -1.4526
 9225TIP3    H251871   5.891   4.798  12.010  0.6590  0.7732 -0.6258
 9226TIP3   OH251872   4.665   4.543  12.530  0.2068  0.0237 -0.4497
 9226TIP3    H151873   4.594   4.545  12.595  1.4566  1.7010  0.9602
 9226TIP3    H251874   4.714   4.463  12.552 -0.9096 -0.8759 -1.1142
 9227TIP3   OH251875   0.617   6.423  11.841 -0.6680  0.1380 -0.3143
 9227TIP3    H151876   0.562   6.499  11.826 -0.5468  0.1397 -0.7420
 9227TIP3    H251877   0.661   6.407  11.758 -0.0840  0.0892 -0.0090
 9228TIP3   OH251878   4.364   3.401  10.939  0.1098  0.3079  0.1213
 9228TIP3    H151879   4.315   3.372  11.016  0.3790 -0.6209 -0.0489
 9228TIP3    H251880   4.453   3.372  10.955  0.6122  1.9260  0.3949
 9229TIP3   OH251881   2.318   5.609  12.572  0.4740 -0.2091  0.1631
 9229TIP3    H151882   2.278   5.523  12.562  0.6304 -0.4790  1.6332
 9229TIP3    H251883   2.349   5.611  12.662  0.8864  1.2196  0.0195
 9230TIP3   OH251884   1.441   2.109  13.176  0.0734 -0.4197 -0.1137
 9230TIP3    H151885   1.417   2.186  13.228 -1.8311 -0.1780 -1.2484
 9230TIP3    H251886   1.362   2.054  13.178  0.4124 -1.0009 -1.6589
 9231TIP3   OH251887   5.969   5.387  11.266  0.3633 -0.1253  0.5719
 9231TIP3    H151888   5.877   5.401  11.246  0.6866  2.5021  0.6687
 9231TIP3    H251889   5.984   5.435  11.347  1.4476 -2.0088  1.5536
 9232TIP3   OH251890   7.101   2.307  11.381  0.2622 -0.7494  0.1595
 9232TIP3    H151891   7.185   2.262  11.371  0.4221 -0.3064 -0.6128
 9232TIP3    H251892   7.081   2.300  11.474  1.0236 -1.0971  0.3082
 9233TIP3   OH251893   2.720   0.482  12.193  0.1085  0.0381 -0.0566
 9233TIP3    H151894   2.804   0.462  12.233  0.3604  1.6374  0.2861
 9233TIP3    H251895   2.741   0.519  12.108 -0.3189 -0.8396 -0.5567
 9234TIP3   OH251896   4.977   4.012  12.175 -0.0655 -0.2953 -0.1537
 9234TIP3    H151897   4.930   3.992  12.256 -0.0051  1.2033  0.2796
 9234TIP3    H251898   4.938   3.954  12.109 -1.1610 -0.4613  0.6189
 9235TIP3   OH251899   0.018   1.605  12.483 -0.2204  0.3324  0.1903
 9235TIP3    H151900   0.008   1.686  12.433  0.7614  1.2900  1.4688
 9235TIP3    H251901   0.095   1.621  12.538 -0.4451 -1.2021  0.9889
 9236TIP3   OH251902   0.272   2.309  12.632  0.3849 -0.0024 -0.1808
 9236TIP3    H151903   0.291   2.230  12.582 -1.4646 -0.5626 -0.0656
 9236TIP3    H251904   0.215   2.279  12.703 -0.2235  1.4089 -0.0441
 9237TIP3   OH251905   6.003   3.271  12.193 -0.0798  0.4319  0.2674
 9237TIP3    H151906   5.908   3.285  12.199 -0.4135 -0.8059 -1.3953
 9237TIP3    H251907   6.040   3.359  12.203 -1.4366  1.0192  0.4317
 9238TIP3   OH251908   5.533   2.626  11.474 -0.0064 -0.0773 -0.4859
 9238TIP3    H151909   5.605   2.687  11.463 -1.0170  1.0075 -1.2612
 9238TIP3    H251910   5.561   2.547  11.428  1.4148 -0.3437  0.7340
 9239TIP3   OH251911   2.349   3.814  10.666 -0.6280  0.1164  0.1956
 9239TIP3    H151912   2.317   3.819  10.756 -0.4995 -0.0568  0.2529
 9239TIP3    H251913   2.319   3.895  10.624 -0.8183  0.1262  0.3512
 9240TIP3   OH251914   5.739   7.570  11.468  0.0400  0.1738  0.1680
 9240TIP3    H151915   5.705   7.481  11.462 -1.2974  0.5727  1.3038
 9240TIP3    H251916   5.734   7.592  11.561  1.9517  0.8519  0.1458
 9241TIP3   OH251917   7.025   0.641  10.872 -0.0308  0.1311  0.5260
 9241TIP3    H151918   7.112   0.674  10.893  0.6023 -0.7674 -0.5462
 9241TIP3    H251919   7.041   0.561  10.821 -1.4651  0.5434 -0.6521
 9242TIP3   OH251920   7.218   0.101  11.737 -0.4664  0.0276  0.3077
 9242TIP3    H151921   7.253   0.019  11.772  0.7994  1.0010  1.4547
 9242TIP3    H251922   7.131   0.109  11.776 -0.4403 -0.5805  0.5053
 9243TIP3   OH251923   2.727   3.502  10.550  0.3588 -0.2380 -0.3440
 9243TIP3    H151924   2.725   3.437  10.480 -0.0598  2.1558 -2.7254
 9243TIP3    H251925   2.649   3.556  10.535  0.8226  0.9885  1.3397
 9244TIP3   OH251926   6.969   0.099  11.829 -0.0882  0.0985  0.1340
 9244TIP3    H151927   6.920   0.059  11.901  0.0943 -1.2268 -0.4367
 9244TIP3    H251928   6.904   0.116  11.761 -0.0205 -0.1798 -0.0053
 9245TIP3   OH251929   5.279   4.749  11.986  0.1268  0.1604  0.4389
 9245TIP3    H151930   5.261   4.781  12.074  1.0631  0.6342  0.4751
 9245TIP3    H251931   5.298   4.828  11.936  0.0999 -0.1500 -0.0701
 9246TIP3   OH251932   5.074   1.139  10.945  0.6506  0.0704 -0.0536
 9246TIP3    H151933   5.147   1.117  11.003  0.0130  0.5146  0.9413
 9246TIP3    H251934   5.017   1.063  10.948  0.7882 -0.0482 -0.3864
 9247TIP3   OH251935   3.592   7.392  10.995  0.4014  0.4822  0.1815
 9247TIP3    H151936   3.532   7.349  10.934  1.5203  1.1956 -1.5012
 9247TIP3    H251937   3.633   7.461  10.943  2.0815  0.5262  1.5006
 9248TIP3   OH251938   1.986   5.599  10.556  0.0304 -0.9168 -0.1654
 9248TIP3    H151939   1.992   5.693  10.539  0.5883 -0.9179  0.0242
 9248TIP3    H251940   1.972   5.593  10.650  0.7624 -1.0550 -0.0677
 9249TIP3   OH251941   7.418   5.072  10.475  0.2077 -0.4472 -0.5133
 9249TIP3    H151942   7.448   5.162  10.458 -1.6874  0.3795  0.2055
 9249TIP3    H251943   7.338   5.064  10.423 -0.6402 -1.0536  0.8474
 9250TIP3   OH251944   4.963   5.344  12.181  0.1008  0.2122 -0.3919
 9250TIP3    H151945   4.969   5.439  12.175 -1.3600  0.4539  1.1164
 9250TIP3    H251946   4.873   5.324  12.154  0.4459 -0.7572 -0.8527
 9251TIP3   OH251947   3.638   5.178  11.535  0.2972 -0.3037 -0.4574
 9251TIP3    H151948   3.563   5.140  11.488 -1.1604 -0.2785  1.6992
 9251TIP3    H251949   3.632   5.140  11.623  0.8275  2.2705  0.7598
 9252TIP3   OH251950   2.303   3.053  10.690 -0.4093 -0.1153 -0.7471
 9252TIP3    H151951   2.374   3.045  10.754  0.2178  0.5537 -1.3404
 9252TIP3    H251952   2.316   2.978  10.631  1.8619  1.7423 -2.8063
 9253TIP3   OH251953   7.457   3.994  10.935  0.2329 -0.0427 -0.5524
 9253TIP3    H151954   7.487   4.002  10.844  0.8319  0.3297 -0.3291
 9253TIP3    H251955   7.398   4.068  10.948  1.6155  1.0296 -0.0902
 9254TIP3   OH251956   1.261   6.599  11.878  0.2451  0.1616  0.6634
 9254TIP3    H151957   1.322   6.621  11.808 -0.8153  0.9644 -0.0400
 9254TIP3    H251958   1.315   6.558  11.946  1.5197  0.6953 -0.0121
 9255TIP3   OH251959   0.114   6.748  10.683  0.0854  0.0795 -1.0750
 9255TIP3    H151960   0.092   6.838  10.706 -1.3119 -0.7333  1.1160
 9255TIP3    H251961   0.210   6.747  10.677  0.1225  1.6884 -1.1136
 9256TIP3   OH251962   5.961   3.340  11.853 -0.5367  0.4677 -0.2124
 9256TIP3    H151963   6.046   3.314  11.890 -1.1852 -0.9825  0.2968
 9256TIP3    H251964   5.910   3.367  11.929 -0.9024  0.2796 -0.3924
 9257TIP3   OH251965   2.669   5.402  11.846 -0.2025 -0.0988  0.1972
 9257TIP3    H151966   2.752   5.387  11.892 -1.3453 -2.1936  1.7835
 9257TIP3    H251967   2.625   5.470  11.896 -0.6259 -1.0272  1.1240
 9258TIP3   OH251968   3.843   6.598  12.707  0.1711 -0.8080 -0.4214
 9258TIP3    H151969   3.875   6.533  12.770 -1.3465 -0.2620  0.9723
 9258TIP3    H251970   3.823   6.675  12.760  0.5552  0.3311 -1.8454
 9259TIP3   OH251971   0.887   3.324  10.968  0.0936 -0.5299  0.0713
 9259TIP3    H151972   0.946   3.251  10.989 -1.8253 -2.3386 -0.4413
 9259TIP3    H251973   0.843   3.343  11.051  2.1690  1.6952  0.7778
 9260TIP3   OH251974   5.475   7.012  13.512  0.3519 -0.0404 -0.6308
 9260TIP3    H151975   5.516   7.008  13.599 -0.7894 -0.7620 -0.0978
 9260TIP3    H251976   5.448   7.103  13.503  1.6617  0.3503 -0.8120
 9261TIP3   OH251977   1.189   0.649  13.486  0.6261  0.0067  0.6305
 9261TIP3    H151978   1.258   0.583  13.491  1.0421  0.0012 -2.7542
 9261TIP3    H251979   1.122   0.619  13.548  2.0121 -2.0383  1.2487
 9262TIP3   OH251980   1.532   4.297  10.987  0.3249 -0.3876 -0.5106
 9262TIP3    H151981   1.615   4.285  10.942  2.0545  0.1974  2.2762
 9262TIP3    H251982   1.518   4.216  11.036  0.9949  0.6715  1.5543
 9263TIP3   OH251983   0.568   0.621  12.638  0.0947  0.7826 -0.2846
 9263TIP3    H151984   0.505   0.607  12.709  1.1971 -1.8031  0.3194
 9263TIP3    H251985   0.541   0.558  12.571  1.9287 -0.3500 -0.0243
 9264TIP3   OH251986   4.844   5.773  11.947 -0.2624 -0.2616 -0.6584
 9264TIP3    H151987   4.859   5.834  11.875 -0.3912 -0.9876 -1.3203
 9264TIP3    H251988   4.818   5.828  12.020  1.7910  0.6997 -0.5635
 9265TIP3   OH251989   2.080   6.399  10.942 -0.3883  0.1642 -0.0395
 9265TIP3    H151990   2.051   6.462  11.007 -0.5092  1.1377 -1.0030
 9265TIP3    H251991   2.044   6.315  10.972 -0.5952  0.6183  1.0235
 9266TIP3   OH251992   1.281   6.026  12.355  0.5089  0.0943  0.5127
 9266TIP3    H151993   1.355   6.021  12.295  1.2121  0.0946  1.3625
 9266TIP3    H251994   1.218   6.082  12.310  1.3657  0.7826  0.1214
 9267TIP3   OH251995   6.100   5.075  13.609  0.0236 -0.4589  0.0995
 9267TIP3    H151996   6.065   5.136  13.544  0.1500 -0.9050 -0.4021
 9267TIP3    H251997   6.168   5.124  13.655 -0.0370 -0.1505 -0.1389
 9268TIP3   OH251998   6.547   7.376  13.013  0.0973 -0.5902  0.0397
 9268TIP3    H151999   6.482   7.441  13.039 -0.1074 -0.0237 -1.7394
 9268TIP3    H252000   6.595   7.357  13.094  1.4234  3.2144  0.3726
 9269TIP3   OH252001   5.700   4.485  12.646 -0.1921  0.1853  0.3976
 9269TIP3    H152002   5.744   4.569  12.641  0.2266  0.0819  1.8898
 9269TIP3    H252003   5.621   4.502  12.697  0.8703 -0.6454  2.4638
 9270TIP3   OH252004   1.217   4.942  12.233 -0.3063 -0.0840 -0.0929
 9270TIP3    H152005   1.282   4.897  12.288 -0.0745  0.2690 -0.0745
 9270TIP3    H252006   1.214   5.031  12.268 -0.9784 -0.1611  0.0587
 9271TIP3   OH252007   4.727   1.379  11.342 -0.0737 -0.2097 -0.0103
 9271TIP3    H152008   4.636   1.358  11.363 -0.2023  0.3518 -0.0081
 9271TIP3    H252009   4.768   1.294  11.325 -0.9303 -0.3703 -1.3501
 9272TIP3   OH252010   1.742   3.693  10.417  0.4681 -0.3348 -0.5063
 9272TIP3    H152011   1.653   3.695  10.453  0.6609 -1.0156  0.0187
 9272TIP3    H252012   1.787   3.765  10.459  0.7002 -1.1377  0.6535
 9273TIP3   OH252013   4.664   5.314  12.146 -0.3766 -0.2265  0.5529
 9273TIP3    H152014   4.640   5.222  12.133 -2.0749 -0.0824  2.1608
 9273TIP3    H252015   4.624   5.360  12.073 -0.4100 -0.6482  0.3030
 9274TIP3   OH252016   7.629   3.622  12.302  0.1754  0.1778  0.2918
 9274TIP3    H152017   7.624   3.599  12.209 -1.2490  0.9937  0.1501
 9274TIP3    H252018   7.709   3.674  12.309  0.0368  0.5165 -0.5619
 9275TIP3   OH252019   5.084   5.719  10.784 -0.0218  0.0749 -0.1649
 9275TIP3    H152020   5.001   5.745  10.824  0.7199  0.3795  1.2412
 9275TIP3    H252021   5.151   5.741  10.849  1.1654 -0.2657 -1.2119
 9276TIP3   OH252022   0.104   2.542  12.591 -0.0969  0.4427 -0.2084
 9276TIP3    H152023   0.052   2.582  12.521  2.5125  1.5666 -1.6634
 9276TIP3    H252024   0.121   2.453  12.560  0.9211  0.8874 -0.9940
 9277TIP3   OH252025   2.673   1.465  11.133 -0.3773  0.0295  0.1794
 9277TIP3    H152026   2.592   1.415  11.135 -1.2909  1.3889 -0.6196
 9277TIP3    H252027   2.653   1.545  11.182  0.3657  0.5243 -0.2928
 9278TIP3   OH252028   4.026   5.972  12.104  0.0608 -0.0962 -0.4822
 9278TIP3    H152029   4.017   5.879  12.125  0.5672  0.2624  1.5620
 9278TIP3    H252030   4.102   6.001  12.155 -0.1448  1.4557 -1.0045
 9279TIP3   OH252031   3.328   5.008  12.986  0.5386 -0.0571  0.5464
 9279TIP3    H152032   3.348   5.101  12.975 -0.7787  0.4536  2.1217
 9279TIP3    H252033   3.240   5.006  13.024  0.5256 -1.9535  0.5155
 9280TIP3   OH252034   1.336   5.461  10.905  0.2476 -0.1224  0.1346
 9280TIP3    H152035   1.379   5.498  10.983 -0.4410  0.4566  0.2488
 9280TIP3    H252036   1.387   5.495  10.831  0.1290  0.3695  0.2781
 9281TIP3   OH252037   1.034   6.727  11.876  0.1790  0.2983 -0.5995
 9281TIP3    H152038   1.032   6.777  11.958 -0.2494  0.2804 -0.5959
 9281TIP3    H252039   1.119   6.683  11.877  1.0683  1.9015 -1.1300
 9282TIP3   OH252040   5.082   1.645  12.395 -0.5830  0.3504  0.2086
 9282TIP3    H152041   5.156   1.699  12.367 -1.7041  1.8518 -0.0270
 9282TIP3    H252042   5.017   1.709  12.425 -1.3097 -0.9903  1.5809
 9283TIP3   OH252043   7.592   4.328  11.238 -0.5051 -0.2223  0.6061
 9283TIP3    H152044   7.682   4.314  11.266 -0.8002  0.4014  1.9240
 9283TIP3    H252045   7.580   4.423  11.240 -0.6786 -0.1445 -1.3267
 9284TIP3   OH252046   7.027   1.351  12.698  0.1979 -0.0091 -0.2260
 9284TIP3    H152047   6.968   1.313  12.633  0.6920 -1.4437  0.1392
 9284TIP3    H252048   7.016   1.297  12.776  2.4737 -0.7857 -0.3500
 9285TIP3   OH252049   5.613   5.169  10.589  0.0980 -0.4821  0.1655
 9285TIP3    H152050   5.607   5.084  10.547  0.8355 -0.6703  0.4291
 9285TIP3    H252051   5.697   5.205  10.559 -0.2831  0.2342 -0.0872
 9286TIP3   OH252052   6.085   6.691  11.599 -0.2511  0.1415 -0.2286
 9286TIP3    H152053   6.071   6.772  11.549 -4.0618  1.5273  2.5574
 9286TIP3    H252054   6.048   6.622  11.543 -0.2646  0.8964 -1.1797
 9287TIP3   OH252055   4.867   7.376  11.016 -0.1299 -0.6334  0.0638
 9287TIP3    H152056   4.789   7.369  10.960 -0.2614 -1.1418  0.3015
 9287TIP3    H252057   4.901   7.286  11.020  0.5446 -0.3894 -0.1444
 9288TIP3   OH252058   6.924   7.572  11.166 -0.4151 -0.3487 -0.0491
 9288TIP3    H152059   7.003   7.607  11.125 -0.6470  1.0021  0.6034
 9288TIP3    H252060   6.949   7.555  11.256 -0.8936  0.2006  0.1945
 9289TIP3   OH252061   3.822   0.134  13.192 -0.2050 -0.1978  0.1638
 9289TIP3    H152062   3.869   0.139  13.109  0.5369  0.2189  0.6003
 9289TIP3    H252063   3.737   0.096  13.169 -0.7139  1.5815 -1.0737
 9290TIP3   OH252064   1.533   6.836  10.902 -0.5317  0.0396  0.2648
 9290TIP3    H152065   1.523   6.907  10.965 -2.5407 -0.8447  1.0279
 9290TIP3    H252066   1.628   6.820  10.898 -0.1743  1.7210  1.1989
 9291TIP3   OH252067   3.146   6.798  11.734  0.6099  0.5473  0.2880
 9291TIP3    H152068   3.083   6.753  11.790  2.8347  0.0169  2.5169
 9291TIP3    H252069   3.159   6.737  11.661 -0.7118  0.2503  0.2674
 9292TIP3   OH252070   3.037   1.754  12.287  0.7657 -0.3579 -0.3397
 9292TIP3    H152071   3.036   1.766  12.382  2.0865 -0.4245 -0.3029
 9292TIP3    H252072   3.104   1.688  12.272  0.1759 -0.7602 -1.2887
 9293TIP3   OH252073   6.679   5.144  11.202  0.0216 -0.0507  0.2540
 9293TIP3    H152074   6.652   5.232  11.174  0.8157 -0.0326 -0.5091
 9293TIP3    H252075   6.733   5.111  11.130 -1.8937 -1.9887 -0.3797
 9294TIP3   OH252076   6.056   7.287  10.757  0.2343  0.6581 -0.1169
 9294TIP3    H152077   6.060   7.234  10.677 -0.4471  2.1407 -1.1917
 9294TIP3    H252078   5.990   7.244  10.811  0.6094 -0.2982 -0.3906
 9295TIP3   OH252079   2.362   6.128  13.012  0.2856  0.0478  1.0767
 9295TIP3    H152080   2.423   6.103  13.083 -0.1019  0.3550  1.5261
 9295TIP3    H252081   2.287   6.070  13.024  1.2158 -1.6145 -0.5954
 9296TIP3   OH252082   2.638   3.949  12.362  0.3220 -0.3739  0.6243
 9296TIP3    H152083   2.606   3.862  12.336 -1.8708  1.0306 -1.8875
 9296TIP3    H252084   2.697   3.975  12.291  0.0081  0.6596  0.7286
 9297TIP3   OH252085   5.530   2.726  12.553 -0.2900  0.4892 -0.1352
 9297TIP3    H152086   5.447   2.719  12.601  0.3065  0.0767  0.8706
 9297TIP3    H252087   5.588   2.772  12.614  0.3385  0.4128 -0.6716
 9298TIP3   OH252088   4.317   5.247  12.459  0.2132  0.2139 -0.3978
 9298TIP3    H152089   4.247   5.290  12.508  0.9171  1.7641 -0.6968
 9298TIP3    H252090   4.291   5.154  12.457 -2.6268  0.9386 -1.8396
 9299TIP3   OH252091   1.953   4.707  12.764  0.2958  0.0364 -0.2671
 9299TIP3    H152092   1.979   4.680  12.676 -0.4702  1.0035 -0.8031
 9299TIP3    H252093   2.012   4.779  12.786  1.3300 -1.0145  0.5522
 9300TIP3   OH252094   7.266   6.238  10.872  0.1549 -0.2047 -0.1491
 9300TIP3    H152095   7.171   6.228  10.864 -0.1558  2.8293 -1.7679
 9300TIP3    H252096   7.278   6.279  10.958  0.0760 -0.9603  0.2328
 9301TIP3   OH252097   3.600   2.817  12.970 -0.1118 -0.2935  0.5976
 9301TIP3    H152098   3.520   2.790  13.016 -0.2854 -0.3147  0.2870
 9301TIP3    H252099   3.592   2.777  12.883  0.8503 -1.3876  0.9927
 9302TIP3   OH252100   6.727   3.437  12.114 -0.2525  0.2126 -0.1034
 9302TIP3    H152101   6.666   3.501  12.079  0.2990  0.2816 -0.9923
 9302TIP3    H252102   6.805   3.447  12.060  0.8567  0.6802  1.5003
 9303TIP3   OH252103   2.148   2.404  11.711  0.3697 -0.4280 -0.0486
 9303TIP3    H152104   2.096   2.411  11.791 -1.3000  0.6695 -1.1682
 9303TIP3    H252105   2.218   2.469  11.721 -0.0557 -0.0292  0.3469
 9304TIP3   OH252106   6.207   1.467  12.237  0.4211  0.0652  0.3911
 9304TIP3    H152107   6.238   1.429  12.319  2.5662 -2.5061 -1.4509
 9304TIP3    H252108   6.132   1.413  12.212  0.4669  0.1261  0.1152
 9305TIP3   OH252109   6.108   2.833  11.367  0.0561 -0.7306  0.1665
 9305TIP3    H152110   6.103   2.758  11.309 -3.1173  0.8996 -1.9788
 9305TIP3    H252111   6.056   2.808  11.444 -0.1093 -1.1007 -0.0646
 9306TIP3   OH252112   4.234   4.622  11.757 -0.5824 -0.4153  0.2650
 9306TIP3    H152113   4.281   4.623  11.840 -1.8554 -0.5397  1.0284
 9306TIP3    H252114   4.252   4.707  11.718 -1.2976  0.3444  1.4908
 9307TIP3   OH252115   0.653   4.457  12.452 -0.8353  0.3299 -0.2351
 9307TIP3    H152116   0.689   4.483  12.367 -2.3251 -0.1584 -1.0665
 9307TIP3    H252117   0.722   4.403  12.492 -0.0137  0.7726 -1.0195
 9308TIP3   OH252118   6.999   7.266  12.235  0.2609 -0.2177 -0.5335
 9308TIP3    H152119   7.077   7.298  12.281  0.2931 -1.9331  0.6674
 9308TIP3    H252120   7.021   7.177  12.208 -1.8214 -1.3532  1.2723
 9309TIP3   OH252121   2.871   3.075  11.549 -0.2663  0.2446  0.0390
 9309TIP3    H152122   2.917   3.042  11.626  0.3759 -0.6180 -0.6844
 9309TIP3    H252123   2.932   3.136  11.509 -0.0893 -0.2373 -0.4437
 9310TIP3   OH252124   4.080   0.752  13.276  0.0711 -0.0382 -0.2769
 9310TIP3    H152125   4.131   0.822  13.237  1.9889 -0.3445  1.5302
 9310TIP3    H252126   4.025   0.795  13.341  1.5164 -0.2134  1.0907
 9311TIP3   OH252127   2.971   5.048  11.909 -0.6350 -0.2437 -0.6859
 9311TIP3    H152128   3.032   5.111  11.948  0.4457 -0.4953 -1.9008
 9311TIP3    H252129   2.990   4.965  11.953  0.2228 -0.4169 -1.3636
 9312TIP3   OH252130   2.949   3.946  10.897  0.7847 -0.6193 -0.1321
 9312TIP3    H152131   2.937   3.851  10.884 -0.5046 -0.7960  1.9252
 9312TIP3    H252132   3.043   3.958  10.899  0.9717 -1.8668 -0.4503
 9313TIP3   OH252133   3.312   4.674  10.620  0.8243 -0.3285 -0.4080
 9313TIP3    H152134   3.301   4.758  10.664  0.9321  0.7400 -2.3434
 9313TIP3    H252135   3.370   4.624  10.678  0.9264  0.9988  0.6677
 9314TIP3   OH252136   5.587   6.605  11.297 -0.0762 -0.4747 -0.2569
 9314TIP3    H152137   5.676   6.580  11.275 -0.0098 -0.3332 -0.1480
 9314TIP3    H252138   5.578   6.695  11.264 -0.0197 -0.3111  0.1656
 9315TIP3   OH252139   1.419   0.800  13.418  0.1525  0.5474  0.1547
 9315TIP3    H152140   1.326   0.782  13.434  0.1254 -0.6245 -1.1180
 9315TIP3    H252141   1.461   0.713  13.420  1.0049  0.9318 -0.5033
 9316TIP3   OH252142   1.455   4.505  11.802 -0.7812 -0.4943  0.3512
 9316TIP3    H152143   1.511   4.523  11.877 -0.0974  0.3616 -0.3420
 9316TIP3    H252144   1.434   4.591  11.766 -0.1694 -0.9105 -1.0934
 9317TIP3   OH252145   7.677   1.454  10.875 -0.1102  0.2267  0.1659
 9317TIP3    H152146   7.712   1.476  10.788 -0.9215  0.1099 -0.1926
 9317TIP3    H252147   7.743   1.488  10.936  0.5111  0.2322 -0.4931
 9318TIP3   OH252148   4.100   4.397  12.556  0.4573  0.4025  0.1931
 9318TIP3    H152149   4.070   4.373  12.644  0.7111  1.5320  0.5999
 9318TIP3    H252150   4.178   4.342  12.542 -0.1619 -0.5104  0.2518
 9319TIP3   OH252151   3.883   5.686  11.319  0.2396 -0.2440  0.6121
 9319TIP3    H152152   3.857   5.603  11.278  0.6371 -0.5177  0.9021
 9319TIP3    H252153   3.801   5.725  11.347  0.0002 -0.2871  0.0031
 9320TIP3   OH252154   3.262   7.280  12.666  0.1195 -0.1021  0.4291
 9320TIP3    H152155   3.333   7.220  12.643 -0.6570 -0.1595 -2.1647
 9320TIP3    H252156   3.259   7.279  12.761  2.1554 -1.7645  0.5395
 9321TIP3   OH252157   4.054   6.872  13.065 -0.3353 -0.3607  0.4291
 9321TIP3    H152158   4.130   6.916  13.101 -2.1703  2.4212  1.1876
 9321TIP3    H252159   4.023   6.816  13.137 -0.4090  0.4150  1.0192
 9322TIP3   OH252160   0.710   6.873  12.171 -0.1870 -0.1780 -0.9728
 9322TIP3    H152161   0.703   6.968  12.174  0.7684 -0.0700 -1.6148
 9322TIP3    H252162   0.642   6.842  12.230  2.2573  0.9954  2.8801
 9323TIP3   OH252163   1.373   5.841  13.666 -0.6094  0.1741  0.7182
 9323TIP3    H152164   1.302   5.778  13.657  0.4851 -1.0057 -0.1194
 9323TIP3    H252165   1.394   5.841  13.760 -0.8027 -0.5123  0.7667
 9324TIP3   OH252166   7.239   0.865  11.676 -0.9896  0.0007 -0.1666
 9324TIP3    H152167   7.191   0.866  11.759 -2.4588  0.4255 -0.9806
 9324TIP3    H252168   7.208   0.787  11.631 -1.3546  0.5747 -0.9405
 9325TIP3   OH252169   5.414   1.467  10.837 -0.3866  1.2694  0.5876
 9325TIP3    H152170   5.385   1.474  10.928  0.7717  2.6969  0.8915
 9325TIP3    H252171   5.508   1.453  10.843 -0.3259  1.1873 -0.4009
 9326TIP3   OH252172   5.430   5.405  10.534  0.2112 -0.3652  0.5854
 9326TIP3    H152173   5.449   5.312  10.518  1.9875  0.1575 -0.6185
 9326TIP3    H252174   5.355   5.424  10.478  0.3265 -0.8792  0.2448
 9327TIP3   OH252175   1.080   6.962  12.590  0.0661  0.2176 -0.0101
 9327TIP3    H152176   1.035   6.878  12.581 -0.4458  0.5150 -0.3005
 9327TIP3    H252177   1.009   7.026  12.601  0.4716  0.3897  2.2142
 9328TIP3   OH252178   2.346   6.490  11.414  0.1827  0.0979  0.2033
 9328TIP3    H152179   2.401   6.421  11.450  1.9881  1.2174 -0.3201
 9328TIP3    H252180   2.303   6.530  11.491  1.2510  0.1641  0.7763
 9329TIP3   OH252181   1.515   7.665  12.364  0.4005 -0.1418 -0.2316
 9329TIP3    H152182   1.543   7.741  12.313 -1.3128  1.7967  1.5208
 9329TIP3    H252183   1.548   7.681  12.452  0.3960 -1.6901  0.0847
 9330TIP3   OH252184   4.180   0.957  12.014  0.0293  0.4126 -0.2650
 9330TIP3    H152185   4.201   0.869  11.984 -0.1068  0.3217 -0.0961
 9330TIP3    H252186   4.265   0.998  12.030  0.1928  1.0926 -2.5284
 9331TIP3   OH252187   0.741   7.586  12.517  0.3697  0.1105  0.2131
 9331TIP3    H152188   0.699   7.550  12.595 -0.3368 -1.8936 -1.0104
 9331TIP3    H252189   0.829   7.546  12.517  0.4297  0.2416  0.0755
 9332TIP3   OH252190   1.841   5.481  11.203  0.5357  0.2194  0.6030
 9332TIP3    H152191   1.905   5.549  11.226 -2.8695  3.3425  1.9928
 9332TIP3    H252192   1.843   5.421  11.278  1.3283  0.6786  0.9693
 9333TIP3   OH252193   6.121   0.567  12.067 -0.2959  0.3392  0.2663
 9333TIP3    H152194   6.045   0.623  12.085 -0.9368 -0.3715 -0.1610
 9333TIP3    H252195   6.196   0.617  12.099 -0.9566  1.0052  0.8014
 9334TIP3   OH252196   3.327   4.674  10.975 -0.5272 -0.1820 -0.4432
 9334TIP3    H152197   3.385   4.744  10.946  0.2807 -1.5190 -2.2112
 9334TIP3    H252198   3.241   4.716  10.983  0.0945  1.1770 -0.6305
 9335TIP3   OH252199   3.425   3.314  12.894  0.5747  0.3722  0.4003
 9335TIP3    H152200   3.425   3.244  12.960  2.1498  0.8357  0.9284
 9335TIP3    H252201   3.452   3.392  12.942  0.6220  0.9608 -0.5740
 9336TIP3   OH252202   4.183   5.748  12.687  1.0515  0.4066  1.1867
 9336TIP3    H152203   4.241   5.672  12.681  2.1890  1.2138  1.5944
 9336TIP3    H252204   4.185   5.787  12.599 -1.4959 -1.3573  0.2172
 9337TIP3   OH252205   5.188   1.895  12.583 -0.5369  0.2346 -0.8179
 9337TIP3    H152206   5.228   1.813  12.610 -1.9612 -0.2791 -0.2056
 9337TIP3    H252207   5.201   1.898  12.488  0.4563 -0.1694 -0.7029
 9338TIP3   OH252208   0.538   7.066  10.904  0.4915  0.1793 -0.4096
 9338TIP3    H152209   0.456   7.113  10.919  0.6090  0.6238 -1.1088
 9338TIP3    H252210   0.604   7.118  10.950  0.5069  0.2820 -0.5478
 9339TIP3   OH252211   6.992   0.981  11.026  0.1203 -0.4819  0.0239
 9339TIP3    H152212   7.039   0.900  11.045 -0.1907 -0.8495 -0.7267
 9339TIP3    H252213   6.916   0.953  10.974 -2.4328 -0.2608  3.3195
 9340TIP3   OH252214   1.390   2.222  11.920 -0.1424  0.1671 -0.4845
 9340TIP3    H152215   1.389   2.308  11.964 -0.5892  0.5950 -1.3021
 9340TIP3    H252216   1.301   2.188  11.933  0.1816 -0.4072  0.2731
 9341TIP3   OH252217   4.935   4.444  10.906  0.9823 -0.2433 -0.6892
 9341TIP3    H152218   4.954   4.359  10.946  0.9175  0.1687  0.2582
 9341TIP3    H252219   4.888   4.492  10.975  1.3925  0.7080 -1.0628
 9342TIP3   OH252220   2.866   6.020  10.875  0.2263 -0.3713  0.0176
 9342TIP3    H152221   2.849   6.094  10.933 -1.2611 -0.2945 -0.4730
 9342TIP3    H252222   2.790   6.017  10.817  1.5101 -0.6133 -1.7470
 9343TIP3   OH252223   5.240   3.723  11.427  0.0068  0.3059 -0.1703
 9343TIP3    H152224   5.271   3.794  11.483 -1.4853  1.6816 -1.0075
 9343TIP3    H252225   5.172   3.679  11.478 -0.2427  0.5561 -0.2835
 9344TIP3   OH252226   1.059   3.132  11.032 -0.0254 -0.2423 -0.2574
 9344TIP3    H152227   1.047   3.053  10.979  3.3863 -0.3991 -1.0865
 9344TIP3    H252228   1.086   3.100  11.118  0.9054 -0.0263 -0.4561
 9345TIP3   OH252229   7.501   4.429  11.630 -0.1488 -0.4491  0.2632
 9345TIP3    H152230   7.588   4.395  11.651 -0.5510 -0.6420  1.7613
 9345TIP3    H252231   7.517   4.519  11.602  0.4768 -0.1913  1.3652
 9346TIP3   OH252232   5.557   3.964  12.816  0.0591 -0.2375  0.3938
 9346TIP3    H152233   5.481   3.976  12.759  0.5051  0.1733 -0.1244
 9346TIP3    H252234   5.527   3.993  12.902 -0.2753  0.2280  0.1253
 9347TIP3   OH252235   5.809   2.653  11.301  0.2215  0.4340 -0.0137
 9347TIP3    H152236   5.854   2.573  11.277  0.1158  0.1935  0.5801
 9347TIP3    H252237   5.731   2.654  11.246 -1.7362 -1.7554  2.4630
 9348TIP3   OH252238   1.546   2.799  10.431 -0.9133 -0.0277  0.5569
 9348TIP3    H152239   1.552   2.887  10.394  0.4081 -0.9396 -1.5700
 9348TIP3    H252240   1.627   2.788  10.481 -1.0499 -0.0702  0.7709
 9349TIP3   OH252241   7.476   0.971  11.436  0.4651  0.1431  0.2362
 9349TIP3    H152242   7.492   1.064  11.421  1.1354  0.1666  1.0467
 9349TIP3    H252243   7.543   0.945  11.499 -1.5266 -0.2000  2.3296
 9350TIP3   OH252244   7.307   5.999  12.235 -0.0071  0.1469 -0.8768
 9350TIP3    H152245   7.254   5.932  12.193 -1.2825  0.8642 -0.4499
 9350TIP3    H252246   7.258   6.080  12.222 -0.5778  0.3873  2.1304
 9351TIP3   OH252247   7.064   3.426  11.095  0.2469  0.3331  0.0207
 9351TIP3    H152248   6.998   3.493  11.115 -0.3212 -0.5772  1.3496
 9351TIP3    H252249   7.111   3.414  11.177  0.9892 -0.2076 -0.4727
 9352TIP3   OH252250   0.228   0.894  13.087 -0.2082 -0.0048 -0.8674
 9352TIP3    H152251   0.230   0.877  12.993  0.3012 -3.0538 -0.4105
 9352TIP3    H252252   0.319   0.911  13.111 -0.2238  0.0274 -0.8318
 9353TIP3   OH252253   0.698   5.242  10.451  0.3593 -0.0205  0.0674
 9353TIP3    H152254   0.688   5.206  10.540 -3.5457  0.2459 -0.0615
 9353TIP3    H252255   0.653   5.178  10.395 -1.6106  2.0899 -0.9511
 9354TIP3   OH252256   7.612   4.849  10.404  0.1191 -0.2247  0.1456
 9354TIP3    H152257   7.543   4.914  10.413 -2.2459 -2.5942  0.5650
 9354TIP3    H252258   7.690   4.899  10.380 -1.6988  2.6103 -0.3077
 9355TIP3   OH252259   1.199   5.008  13.110 -0.5268 -0.1557 -0.5776
 9355TIP3    H152260   1.195   5.080  13.173 -1.7299 -0.3055 -0.4552
 9355TIP3    H252261   1.121   4.956  13.129 -0.4141 -0.7115 -1.5819
 9356TIP3   OH252262   0.823   0.469  12.442  0.4819 -0.0738 -0.0201
 9356TIP3    H152263   0.799   0.491  12.352  0.7260  1.3933  0.2439
 9356TIP3    H252264   0.762   0.399  12.467 -0.0687  0.0080 -1.0735
 9357TIP3   OH252265   2.304   0.742  11.506 -0.7002 -0.3124  0.6031
 9357TIP3    H152266   2.390   0.780  11.485  0.2836 -2.5162  0.3235
 9357TIP3    H252267   2.319   0.691  11.585 -1.7949 -0.6364  0.6161
 9358TIP3   OH252268   3.079   0.391  12.827 -0.4474  0.1362 -0.1923
 9358TIP3    H152269   3.064   0.485  12.831 -0.9072  0.0708 -0.2962
 9358TIP3    H252270   2.992   0.353  12.811 -0.6077 -0.4493  1.7990
 9359TIP3   OH252271   7.173   0.188  11.059  0.1365  0.1735  0.5365
 9359TIP3    H152272   7.129   0.246  10.997  1.2450 -0.9957 -1.4834
 9359TIP3    H252273   7.266   0.210  11.050  0.3597 -0.3194  1.4785
 9360TIP3   OH252274   2.921   6.638  11.812  0.2892 -0.0265 -0.2448
 9360TIP3    H152275   2.889   6.579  11.881 -0.9168  1.4424  0.5227
 9360TIP3    H252276   2.865   6.619  11.736  0.5764 -0.5665 -0.3217
 9361TIP3   OH252277   3.201   7.621  12.400  0.1409  0.3927 -0.7533
 9361TIP3    H152278   3.147   7.600  12.476  1.2057  0.7929  0.1315
 9361TIP3    H252279   3.277   7.563  12.407  1.0441  1.5478 -0.5998
 9362TIP3   OH252280   6.670   7.350  10.778  0.2283 -0.1928 -0.3485
 9362TIP3    H152281   6.620   7.424  10.744 -0.2665 -0.1965  0.3190
 9362TIP3    H252282   6.761   7.368  10.755  0.5214  1.9447  1.9543
 9363TIP3   OH252283   4.769   2.300  12.384 -0.7087  0.3104 -0.2508
 9363TIP3    H152284   4.689   2.260  12.350 -1.0337  0.4347  0.3635
 9363TIP3    H252285   4.739   2.366  12.446 -0.1582  1.1964 -0.9107
 9364TIP3   OH252286   4.709   6.673  10.668  0.5564  0.0927 -0.0341
 9364TIP3    H152287   4.698   6.659  10.762  0.2416 -0.3433 -0.1336
 9364TIP3    H252288   4.788   6.624  10.645 -0.4529 -1.4618 -0.3513
 9365TIP3   OH252289   6.402   7.276  11.524  0.5650  0.3013 -0.1034
 9365TIP3    H152290   6.440   7.245  11.442  0.7456  0.0634  0.0689
 9365TIP3    H252291   6.477   7.301  11.578  0.6206 -1.8427  0.9209
 9366TIP3   OH252292   4.625   0.728  13.236 -0.1490 -0.1062  0.5884
 9366TIP3    H152293   4.679   0.776  13.298  0.1973 -0.3409  0.4693
 9366TIP3    H252294   4.670   0.645  13.224 -0.2432 -0.0861  0.0694
 9367TIP3   OH252295   2.445   5.398  12.925  0.1582 -0.0649 -0.3277
 9367TIP3    H152296   2.412   5.363  13.008  1.2096  2.2381  1.1559
 9367TIP3    H252297   2.531   5.357  12.914 -0.0943 -0.5759 -0.4408
 9368TIP3   OH252298   0.969   4.347  12.826  0.0688 -0.3699 -0.9704
 9368TIP3    H152299   0.990   4.259  12.797  1.2153 -1.3748  2.4628
 9368TIP3    H252300   1.054   4.389  12.838 -0.3338  0.1885  0.1164
 9369TIP3   OH252301   3.232   3.277  11.086  0.2740  0.0029  0.2070
 9369TIP3    H152302   3.315   3.294  11.131  0.5765 -0.0185 -0.3352
 9369TIP3    H252303   3.254   3.210  11.021  0.2776  1.3595 -1.2576
 9370TIP3   OH252304   0.547   6.420  13.321 -0.2658  0.2959  0.2612
 9370TIP3    H152305   0.471   6.448  13.270 -0.3017 -1.5094 -0.7848
 9370TIP3    H252306   0.524   6.441  13.412 -3.5853 -3.1222  0.4594
 9371TIP3   OH252307   0.385   6.765  10.703 -0.3670 -0.4090 -0.8693
 9371TIP3    H152308   0.424   6.678  10.692 -2.4957 -1.4789 -0.4179
 9371TIP3    H252309   0.362   6.770  10.796 -0.0868  0.7453 -0.8428
 9372TIP3   OH252310   2.744   0.728  10.810  0.4025 -0.3099 -0.2564
 9372TIP3    H152311   2.734   0.721  10.905 -0.7818  0.5576 -0.2944
 9372TIP3    H252312   2.663   0.693  10.775  0.7883 -0.5226 -0.9549
 9373TIP3   OH252313   1.305   2.457  11.379  0.0621  0.2511  0.2684
 9373TIP3    H152314   1.331   2.433  11.468  0.9578  1.8823  0.4918
 9373TIP3    H252315   1.211   2.473  11.384 -0.2876 -1.6598  0.4210
 9374TIP3   OH252316   1.924   4.723  11.220  0.3911  0.1890 -0.7882
 9374TIP3    H152317   1.885   4.724  11.133  0.4784 -2.3311 -0.9307
 9374TIP3    H252318   1.856   4.686  11.276  1.3877 -1.2146 -0.4379
 9375TIP3   OH252319   1.481   0.385  10.622 -0.4087 -0.2222  0.0220
 9375TIP3    H152320   1.402   0.432  10.595 -0.0791  0.9319  1.0056
 9375TIP3    H252321   1.484   0.395  10.717  1.1949  0.1840 -0.0460
 9376TIP3   OH252322   7.576   7.395  10.787  0.3638  0.4056 -0.9979
 9376TIP3    H152323   7.606   7.352  10.867  0.3750  0.6228 -0.8874
 9376TIP3    H252324   7.654   7.432  10.748  0.2674  0.8189 -0.8005
 9377TIP3   OH252325   3.843   3.927  12.205  0.1476  0.1407 -0.2628
 9377TIP3    H152326   3.776   3.939  12.138 -0.6286  0.0455  0.4803
 9377TIP3    H252327   3.849   3.832  12.215  0.2976  0.1541 -0.2217
 9378TIP3   OH252328   0.069   0.828  11.280 -0.1809 -0.4270 -0.1886
 9378TIP3    H152329   0.057   0.755  11.341  1.8381 -0.1236  0.6499
 9378TIP3    H252330   0.120   0.892  11.330  0.0782  0.5616 -1.6712
 9379TIP3   OH252331   1.876   5.078  11.851 -0.3722 -0.4215 -0.0060
 9379TIP3    H152332   1.790   5.057  11.815 -0.0831 -1.2945 -0.2139
 9379TIP3    H252333   1.899   5.001  11.903  0.6961 -0.6173 -0.7388
 9380TIP3   OH252334   2.196   2.742  12.537  0.2992  0.2347  0.0179
 9380TIP3    H152335   2.205   2.717  12.629  1.1439  1.8743  0.4250
 9380TIP3    H252336   2.167   2.834  12.541  1.3529  0.6454 -1.3427
 9381TIP3   OH252337   7.368   2.208  12.713 -0.2524  0.2032 -0.4245
 9381TIP3    H152338   7.311   2.174  12.644 -0.3186 -1.2335  0.2900
 9381TIP3    H252339   7.360   2.145  12.785  2.3187 -0.1577 -0.3291
 9382TIP3   OH252340   5.323   6.154  11.751  0.4143  0.3178 -0.5488
 9382TIP3    H152341   5.277   6.226  11.708  2.6927  1.8321 -0.6357
 9382TIP3    H252342   5.360   6.193  11.830  1.8313 -0.7070 -0.6669
 9383TIP3   OH252343   6.969   4.251  12.677 -0.1146 -0.1104  0.0664
 9383TIP3    H152344   6.926   4.332  12.648 -2.6761 -1.2056  0.6534
 9383TIP3    H252345   6.913   4.216  12.745  1.7737 -1.6283  0.9378
 9384TIP3   OH252346   2.801   4.678  11.159 -0.4377 -0.2830  0.1191
 9384TIP3    H152347   2.723   4.673  11.214 -1.4326 -0.1302 -1.2079
 9384TIP3    H252348   2.770   4.722  11.079  1.4012  1.3322  0.2238
 9385TIP3   OH252349   1.436   6.167  13.111 -0.3238  0.0833  0.1552
 9385TIP3    H152350   1.346   6.134  13.113 -0.6807  1.0257  0.1859
 9385TIP3    H252351   1.427   6.257  13.080  0.3849  0.8887  2.1231
 9386TIP3   OH252352   7.135   1.521  12.355  0.4402 -0.0053 -0.3171
 9386TIP3    H152353   7.160   1.531  12.447 -0.1975 -1.4146  0.0400
 9386TIP3    H252354   7.041   1.505  12.358  0.2110  1.0030 -1.3173
 9387TIP3   OH252355   2.434   2.060  12.126  0.0280 -0.6366 -0.5015
 9387TIP3    H152356   2.408   2.149  12.102  0.3052 -0.8323 -1.6111
 9387TIP3    H252357   2.527   2.055  12.102  0.4566 -0.7315  1.0513
 9388TIP3   OH252358   0.198   6.367  11.217 -0.3370  0.2310 -0.1380
 9388TIP3    H152359   0.259   6.421  11.267  0.1811 -0.9176  0.5044
 9388TIP3    H252360   0.249   6.291  11.190 -1.3210 -0.4500 -0.1287
 9389TIP3   OH252361   6.075   7.488  12.006 -0.2254  0.1157 -0.6198
 9389TIP3    H152362   6.150   7.548  12.011  1.6471 -2.1357 -0.1178
 9389TIP3    H252363   6.099   7.426  11.937 -1.0723 -1.3314  0.3347
 9390TIP3   OH252364   7.460   6.169  11.479 -0.0467  0.2011  0.0241
 9390TIP3    H152365   7.429   6.240  11.423 -0.1861 -1.3424 -1.9557
 9390TIP3    H252366   7.551   6.156  11.452  0.0401 -0.2461  0.5236
 9391TIP3   OH252367   2.528   6.944  11.632 -0.3145 -0.0681 -0.3754
 9391TIP3    H152368   2.519   6.852  11.609  2.1430 -0.1171 -1.3859
 9391TIP3    H252369   2.504   6.991  11.552  2.8476 -0.0592 -1.4402
 9392TIP3   OH252370   3.607   3.380  12.215 -0.3816 -0.7521 -0.4270
 9392TIP3    H152371   3.532   3.394  12.272 -0.0555 -0.4705 -0.0561
 9392TIP3    H252372   3.620   3.286  12.214 -0.4743 -0.7678 -0.1376
 9393TIP3   OH252373   1.604   6.043  12.286  0.1087  0.3817  0.4202
 9393TIP3    H152374   1.606   6.051  12.191 -2.6577  0.9243  0.3172
 9393TIP3    H252375   1.669   5.976  12.307  0.9177  0.4076 -1.8015
 9394TIP3   OH252376   0.966   0.368  11.069 -1.2467  0.1298 -0.3316
 9394TIP3    H152377   1.001   0.377  11.157 -1.3610  0.2119 -0.2936
 9394TIP3    H252378   0.888   0.313  11.080  0.4526 -2.5712 -0.7908
 9395TIP3   OH252379   4.095   4.777  12.271  0.1469 -0.5498  0.3019
 9395TIP3    H152380   4.135   4.755  12.187  2.6527 -1.0019  1.5336
 9395TIP3    H252381   4.079   4.872  12.265 -1.6995 -0.9160 -1.4183
 9396TIP3   OH252382   4.723   1.692  13.137 -0.7156 -0.3133 -0.3430
 9396TIP3    H152383   4.797   1.729  13.186  0.8653 -0.8342 -2.2029
 9396TIP3    H252384   4.652   1.754  13.150  0.1105  0.3580  1.2764
 9397TIP3   OH252385   6.124   3.498  10.892  0.8390 -0.6132  0.1642
 9397TIP3    H152386   6.167   3.566  10.839  0.7529 -0.2096  0.6125
 9397TIP3    H252387   6.031   3.507  10.873  0.8312 -0.6292  0.1951
 9398TIP3   OH252388   6.093   5.794  12.717 -0.3164 -0.0788  0.1959
 9398TIP3    H152389   6.128   5.708  12.691 -0.8474 -0.3282  0.2774
 9398TIP3    H252390   6.170   5.849  12.730  0.3537 -1.5773  3.9823
 9399TIP3   OH252391   6.234   2.712  12.971  0.0781 -0.0048  0.6200
 9399TIP3    H152392   6.148   2.736  13.005  0.9346  0.5195  2.5565
 9399TIP3    H252393   6.254   2.628  13.014  0.2070 -0.5437 -0.4548
 9400TIP3   OH252394   6.301   5.200  13.723  0.3169  0.1796 -0.3352
 9400TIP3    H152395   6.356   5.123  13.735  1.2309  0.9318  0.4296
 9400TIP3    H252396   6.340   5.267  13.780 -1.1190  0.8670 -0.1034
 9401TIP3   OH252397   1.284   4.216  12.682 -0.2981 -0.1987 -0.4280
 9401TIP3    H152398   1.276   4.287  12.744  0.7380 -0.7313  0.3527
 9401TIP3    H252399   1.371   4.229  12.642  0.5706 -1.8234  0.8094
 9402TIP3   OH252400   0.469   2.350  12.806 -0.0739 -0.1728  0.8126
 9402TIP3    H152401   0.401   2.381  12.748  1.2665  1.8589  0.2224
 9402TIP3    H252402   0.461   2.254  12.804 -0.9920 -0.1073 -1.5529
 9403TIP3   OH252403   4.499   3.284  11.463  0.2004  0.2188  0.0543
 9403TIP3    H152404   4.414   3.272  11.421  0.2292  2.1108 -0.6451
 9403TIP3    H252405   4.553   3.325  11.395  2.6875 -3.6297 -0.5859
 9404TIP3   OH252406   0.090   4.044  10.672 -0.4384  0.1274 -0.5109
 9404TIP3    H152407   0.050   4.045  10.585  0.5937 -0.2552 -1.0087
 9404TIP3    H252408   0.110   4.136  10.690  2.6670 -0.0367 -2.3186
 9405TIP3   OH252409   3.286   2.409  10.671  0.2434  0.4249  0.0190
 9405TIP3    H152410   3.206   2.392  10.721 -0.2829 -1.0060 -1.2349
 9405TIP3    H252411   3.332   2.475  10.722 -0.3495 -0.8022  2.2932
 9406TIP3   OH252412   0.106   6.835  12.750  0.3195  0.0359  0.1414
 9406TIP3    H152413   0.031   6.816  12.695  0.5284 -0.7301  0.1198
 9406TIP3    H252414   0.070   6.842  12.839  0.4013 -1.6676  0.3332
 9407TIP3   OH252415   7.176   4.472  10.464  0.3571 -0.5078  0.0208
 9407TIP3    H152416   7.236   4.461  10.390  0.3328 -0.5883  0.0135
 9407TIP3    H252417   7.182   4.390  10.513  0.4800 -0.3986  0.1883
 9408TIP3   OH252418   4.942   6.323  11.878 -0.0363 -0.7948  0.1341
 9408TIP3    H152419   4.853   6.315  11.841  0.2468 -0.1218 -0.7468
 9408TIP3    H252420   4.930   6.376  11.957 -0.1535  1.3850 -1.2584
 9409TIP3   OH252421   5.683   7.100  11.600 -0.2492  0.2671  0.3907
 9409TIP3    H152422   5.778   7.112  11.604 -0.2673  0.1498  2.0314
 9409TIP3    H252423   5.672   7.011  11.567  0.1388  0.7723 -1.2251
 9410TIP3   OH252424   3.939   1.557  12.887  0.3204  0.0427  0.0874
 9410TIP3    H152425   3.976   1.572  12.974  1.2522  0.7276 -0.4160
 9410TIP3    H252426   3.886   1.635  12.870 -0.5070 -0.4482  0.3566
 9411TIP3   OH252427   1.107   2.408  10.985  0.1875  0.0874  0.0933
 9411TIP3    H152428   1.109   2.503  10.977  2.1808  0.1093  0.2670
 9411TIP3    H252429   1.185   2.387  11.036 -0.0313 -1.6710 -0.2298
 9412TIP3   OH252430   1.248   2.909  12.472  0.9142  1.2206  0.3031
 9412TIP3    H152431   1.194   2.835  12.445 -0.9683  1.5670  2.8723
 9412TIP3    H252432   1.313   2.871  12.531 -0.0086  1.5661  1.5671
 9413TIP3   OH252433   1.060   0.865  12.963 -0.2045  0.4016 -0.0037
 9413TIP3    H152434   1.026   0.778  12.983  0.2152  0.2033 -0.1404
 9413TIP3    H252435   1.049   0.914  13.044 -1.3118  0.5077 -0.2025
 9414TIP3   OH252436   3.407   2.145  10.813 -0.2300  0.2392  0.3365
 9414TIP3    H152437   3.331   2.161  10.869 -1.2520  0.6465 -1.1113
 9414TIP3    H252438   3.379   2.172  10.726  0.5900 -2.2641 -0.8152
 9415TIP3   OH252439   3.347   5.340  11.067 -0.7879 -0.3623  0.0205
 9415TIP3    H152440   3.279   5.296  11.118 -0.0999  0.9816  2.2308
 9415TIP3    H252441   3.398   5.389  11.131 -0.2978  2.0653 -2.0323
 9416TIP3   OH252442   1.581   6.065  10.600 -0.1470  0.3868 -0.1560
 9416TIP3    H152443   1.537   6.128  10.543 -1.9038 -2.1464 -1.8299
 9416TIP3    H252444   1.511   6.008  10.631  1.4123 -1.1234  0.7696
 9417TIP3   OH252445   0.579   4.641  13.171  0.4753  0.0438  0.0483
 9417TIP3    H152446   0.669   4.665  13.195 -0.0822  1.4986  0.7918
 9417TIP3    H252447   0.537   4.621  13.254  0.3375 -1.5622 -0.3811
 9418TIP3   OH252448   6.493   3.806  10.962  0.1857 -0.6428  0.4852
 9418TIP3    H152449   6.461   3.738  11.022  1.7025 -0.8139  1.1656
 9418TIP3    H252450   6.484   3.767  10.875 -2.4909 -0.2096  0.4869
 9419TIP3   OH252451   6.323   2.734  12.132 -0.0123  0.2622 -0.8197
 9419TIP3    H152452   6.265   2.689  12.071 -1.8189  0.0062  0.9781
 9419TIP3    H252453   6.267   2.755  12.207  2.0476  0.7577  0.6554
 9420TIP3   OH252454   2.450   4.798  12.997  0.3164 -0.2069 -0.3870
 9420TIP3    H152455   2.366   4.833  12.968  0.4732 -0.1437 -0.7611
 9420TIP3    H252456   2.496   4.874  13.033  0.3463 -0.1777 -0.4868
 9421TIP3   OH252457   2.892   0.403  11.590 -0.2743  0.1434  0.6184
 9421TIP3    H152458   2.866   0.417  11.681  1.2624  2.8333  0.7481
 9421TIP3    H252459   2.986   0.384  11.595  0.0775  1.4450 -0.4208
 9422TIP3   OH252460   1.086   4.578  11.835 -1.0943  0.3546  0.4599
 9422TIP3    H152461   1.126   4.527  11.906  0.1081 -0.2902 -0.6508
 9422TIP3    H252462   1.015   4.522  11.804 -0.3201 -0.2853 -0.1876
 9423TIP3   OH252463   3.070   6.719  10.922  0.3719  0.6474  0.7784
 9423TIP3    H152464   3.003   6.758  10.977 -0.4917  1.2307 -0.6117
 9423TIP3    H252465   3.153   6.748  10.960 -0.2086  1.5213  1.4164
 9424TIP3   OH252466   3.212   6.690  12.028 -0.0480  0.3151 -0.2643
 9424TIP3    H152467   3.255   6.640  11.959  0.3717 -0.0887  0.2736
 9424TIP3    H252468   3.280   6.748  12.061  0.0079 -0.1063  0.3822
 9425TIP3   OH252469   6.273   3.137  11.239 -0.5311 -0.6595  0.7506
 9425TIP3    H152470   6.212   3.127  11.313 -2.0265 -0.3058 -0.3998
 9425TIP3    H252471   6.224   3.186  11.174  0.6390 -1.2841 -0.6455
 9426TIP3   OH252472   1.787   3.501  11.362 -0.3197  0.1613 -0.2428
 9426TIP3    H152473   1.859   3.557  11.332  0.2351  0.5247  1.6484
 9426TIP3    H252474   1.723   3.504  11.290  0.8011  1.1865 -1.2447
 9427TIP3   OH252475   1.501   0.828  11.623 -0.1401 -0.4711 -0.0388
 9427TIP3    H152476   1.422   0.881  11.615  0.3786  0.1903 -0.9593
 9427TIP3    H252477   1.470   0.738  11.615 -0.8716 -0.2508  0.2331
 9428TIP3   OH252478   7.435   4.056  10.653 -0.2421 -0.5570  0.9302
 9428TIP3    H152479   7.459   4.018  10.568 -0.8062  0.5957  0.2245
 9428TIP3    H252480   7.371   4.124  10.631 -0.6515 -0.4620  2.3197
 9429TIP3   OH252481   1.737   7.032  11.309  0.1495 -0.3101 -0.5723
 9429TIP3    H152482   1.665   7.038  11.247  0.8199 -2.1042 -1.6104
 9429TIP3    H252483   1.721   7.102  11.372 -2.0255 -0.1433 -1.2369
 9430TIP3   OH252484   6.137   4.219  11.845  0.0129 -0.0441  0.2737
 9430TIP3    H152485   6.189   4.235  11.924  0.3413 -0.5014  0.1575
 9430TIP3    H252486   6.166   4.284  11.782 -0.4763  0.5293  0.6318
 9431TIP3   OH252487   2.679   7.164  11.413 -0.6149  0.2744 -0.5941
 9431TIP3    H152488   2.742   7.232  11.437 -0.0199  0.0407 -1.4330
 9431TIP3    H252489   2.732   7.084  11.408 -1.1716 -0.1109 -0.3267
 9432TIP3   OH252490   1.829   4.768  11.890  0.3909  0.4848 -0.1053
 9432TIP3    H152491   1.759   4.792  11.951 -0.6377  0.0076 -1.0600
 9432TIP3    H252492   1.787   4.766  11.805  1.4982 -0.1780 -0.6614
 9433TIP3   OH252493   6.114   0.292  13.007  0.0244 -0.4292  0.4513
 9433TIP3    H152494   6.102   0.199  13.030 -2.2480 -1.2463 -3.1433
 9433TIP3    H252495   6.068   0.340  13.075  0.9557 -1.9111  2.2120
 9434TIP3   OH252496   7.297   1.969  12.550 -0.3947 -0.6072  0.2142
 9434TIP3    H152497   7.277   1.889  12.501  2.2291 -0.4451 -1.3292
 9434TIP3    H252498   7.269   2.040  12.492 -0.3570 -0.4053  0.4427
 9435TIP3   OH252499   4.949   3.439  11.740  0.0223  0.5384 -0.0514
 9435TIP3    H152500   4.914   3.474  11.822 -2.9865  0.2264 -1.0801
 9435TIP3    H252501   4.908   3.493  11.672  0.1685 -1.0274 -1.4369
 9436TIP3   OH252502   3.425   6.910  13.006  0.1383  0.2876 -0.2322
 9436TIP3    H152503   3.365   6.951  13.068  1.1681 -1.0974  1.8265
 9436TIP3    H252504   3.369   6.868  12.941 -1.1485 -0.4186  1.2687
 9437TIP3   OH252505   2.485   0.528  11.569  0.3043  0.1774 -0.5748
 9437TIP3    H152506   2.488   0.440  11.608 -1.1250  0.0180 -0.7612
 9437TIP3    H252507   2.555   0.576  11.614  0.8454 -0.9284 -0.1724
 9438TIP3   OH252508   2.616   4.054  12.617 -0.0408 -0.3185 -0.0827
 9438TIP3    H152509   2.594   3.975  12.667  0.3038  0.1707  0.8589
 9438TIP3    H252510   2.601   4.029  12.526 -1.5144 -0.9652  0.3086
 9439TIP3   OH252511   0.783   7.293  12.422  0.2145 -0.0394 -0.0920
 9439TIP3    H152512   0.779   7.266  12.330 -2.6067 -2.0395  0.4775
 9439TIP3    H252513   0.708   7.352  12.432  1.4110  1.4164  0.6352
 9440TIP3   OH252514   6.257   4.631  13.331 -0.5293 -0.0318  0.4526
 9440TIP3    H152515   6.196   4.561  13.306 -0.9020 -0.1660  1.6581
 9440TIP3    H252516   6.204   4.711  13.328  0.0542  0.3324 -1.5424
 9441TIP3   OH252517   2.254   6.439  12.105 -0.3069 -0.4339 -0.5021
 9441TIP3    H152518   2.272   6.498  12.179  1.5893 -1.5015 -0.0633
 9441TIP3    H252519   2.306   6.361  12.123 -0.7729 -1.2225 -2.3592
 9442TIP3   OH252520   4.614   2.093  12.056  0.1884 -0.2155  0.0382
 9442TIP3    H152521   4.647   2.026  12.117  0.2196  1.1563  1.5971
 9442TIP3    H252522   4.691   2.119  12.006  0.3642 -0.7078  0.0443
 9443TIP3   OH252523   2.546   3.693  12.276  0.2530 -0.0275  0.1776
 9443TIP3    H152524   2.501   3.658  12.199  0.1742 -0.7868  0.5662
 9443TIP3    H252525   2.495   3.660  12.350 -0.0555  1.2205  0.5499
 9444TIP3   OH252526   0.720   6.242  11.085  0.4829  0.4903  0.0478
 9444TIP3    H152527   0.723   6.152  11.052  1.1249 -0.2409  1.9739
 9444TIP3    H252528   0.764   6.294  11.017  0.5792 -0.7233 -0.8455
 9445TIP3   OH252529   7.288   2.471  12.977 -0.1122  0.4806 -0.0495
 9445TIP3    H152530   7.306   2.564  12.992 -1.3147  0.5688  0.9039
 9445TIP3    H252531   7.375   2.430  12.978  0.2378  1.0565  3.3435
 9446TIP3   OH252532   0.386   5.721  13.802  0.0926  0.0223  0.3475
 9446TIP3    H152533   0.394   5.639  13.753  0.0295 -0.7107  1.5091
 9446TIP3    H252534   0.450   5.779  13.762  0.4936 -0.7608 -0.1900
 9447TIP3   OH252535   2.313   7.451  12.154  0.0303 -0.3175 -0.0962
 9447TIP3    H152536   2.312   7.382  12.088  2.6114 -0.1753 -0.3622
 9447TIP3    H252537   2.365   7.416  12.226  0.2228  0.8527  0.3581
 9448TIP3   OH252538   5.069   1.692  11.549 -0.1527  0.0371 -0.0795
 9448TIP3    H152539   5.015   1.631  11.499 -1.0881  0.4631  0.3773
 9448TIP3    H252540   5.006   1.744  11.599  0.7018  0.3515  0.7017
 9449TIP3   OH252541   2.468   5.128  11.289 -0.3150  0.1364 -0.2052
 9449TIP3    H152542   2.480   5.033  11.287  1.8160  0.3591 -0.3584
 9449TIP3    H252543   2.523   5.161  11.218  0.6067  1.6182  1.1247
 9450TIP3   OH252544   2.215   2.698  12.115  0.6546  0.4477 -0.0152
 9450TIP3    H152545   2.294   2.647  12.134  0.4238 -0.2902 -0.9914
 9450TIP3    H252546   2.240   2.788  12.137  0.4241 -0.2162  3.7535
 9451TIP3   OH252547   1.860   0.065  12.290 -0.2685 -0.1600  0.4557
 9451TIP3    H152548   1.919   0.037  12.220  1.0158  0.7933  1.1207
 9451TIP3    H252549   1.855  -0.010  12.349 -1.6212 -1.0896 -0.7831
 9452TIP3   OH252550   3.203   0.206  12.644 -0.0786 -0.1997 -0.2508
 9452TIP3    H152551   3.150   0.229  12.720 -1.9042 -1.4569 -1.0430
 9452TIP3    H252552   3.142   0.158  12.587  1.7585 -1.0781 -1.5741
 9453TIP3   OH252553   6.164   6.994  12.299  0.1343 -0.2017 -0.0298
 9453TIP3    H152554   6.194   7.085  12.307  1.2414 -0.7190  4.1692
 9453TIP3    H252555   6.244   6.942  12.309 -0.7641 -1.6391 -0.0410
 9454TIP3   OH252556   2.560   7.535  11.470  0.0691  0.3841  0.0489
 9454TIP3    H152557   2.477   7.576  11.496 -2.0271 -2.6981 -1.1544
 9454TIP3    H252558   2.584   7.579  11.389 -0.8909  0.7475 -0.0495
 9455TIP3   OH252559   6.066   0.620  10.675 -0.2245 -0.0998 -0.2742
 9455TIP3    H152560   5.990   0.583  10.630 -0.7174 -0.5351  0.8832
 9455TIP3    H252561   6.134   0.553  10.665  0.4845  0.8543 -2.4714
 9456TIP3   OH252562   5.386   7.029  11.620 -0.4331  0.4821 -0.1117
 9456TIP3    H152563   5.428   6.965  11.676  0.2251  0.8740 -0.1434
 9456TIP3    H252564   5.456   7.062  11.564 -1.1744 -0.2936 -1.5526
 9457TIP3   OH252565   6.335   4.795  13.002 -0.1052 -0.0352  0.0152
 9457TIP3    H152566   6.250   4.838  13.003  0.4640  1.2870 -2.1095
 9457TIP3    H252567   6.380   4.828  13.080 -1.6665 -1.1403  1.4443
 9458TIP3   OH252568   4.816   4.587  11.127  0.4787  0.0418  0.2457
 9458TIP3    H152569   4.859   4.533  11.193 -0.8288 -1.3826 -0.0139
 9458TIP3    H252570   4.849   4.676  11.143  0.0906 -0.2188  2.9271
 9459TIP3   OH252571   7.200   0.879  12.266 -0.0261  0.1256 -0.1034
 9459TIP3    H152572   7.188   0.834  12.183 -0.7419 -0.1937  0.1663
 9459TIP3    H252573   7.228   0.811  12.327  1.1682  0.4827 -0.2342
 9460TIP3   OH252574   1.348   2.495  11.987 -0.4819  0.1034  0.0888
 9460TIP3    H152575   1.282   2.560  12.009 -0.4411  0.2301 -0.1621
 9460TIP3    H252576   1.347   2.490  11.891 -1.2890 -1.1044  0.1335
 9461TIP3   OH252577   6.075   6.266  10.494 -0.1477  0.1629  0.5380
 9461TIP3    H152578   6.163   6.276  10.457 -0.1835 -0.3693  0.3021
 9461TIP3    H252579   6.049   6.356  10.517  0.5238  0.3059  0.7747
 9462TIP3   OH252580   7.184   7.527  11.842 -0.1486 -0.0832  0.1192
 9462TIP3    H152581   7.254   7.506  11.903 -0.6449 -2.1908  0.0616
 9462TIP3    H252582   7.106   7.534  11.897 -0.0590  1.4432  0.0873
 9463TIP3   OH252583   0.677   2.688  12.587  0.1685  0.3488 -0.0470
 9463TIP3    H152584   0.743   2.622  12.609 -2.6190 -2.3106  1.0474
 9463TIP3    H252585   0.636   2.709  12.671 -2.0444 -0.0322 -0.9804
 9464TIP3   OH252586   1.691   3.652  11.763  0.1607 -0.1136 -0.0838
 9464TIP3    H152587   1.652   3.609  11.687 -0.3170  2.1318 -1.1881
 9464TIP3    H252588   1.616   3.673  11.819  0.5188 -1.8336  1.1112
 9465TIP3   OH252589   7.157   1.606  11.411 -0.3729 -0.6705 -0.1788
 9465TIP3    H152590   7.214   1.588  11.336  0.6588 -0.4166  0.5310
 9465TIP3    H252591   7.079   1.553  11.394 -0.0509 -0.8215 -1.2987
 9466TIP3   OH252592   5.401   1.503  12.379  0.1424  0.8585 -0.0992
 9466TIP3    H152593   5.382   1.410  12.383 -0.5841  0.9349 -1.1935
 9466TIP3    H252594   5.359   1.533  12.298 -1.7604  2.5885  1.3896
 9467TIP3   OH252595   3.748   3.621  11.441  0.0259 -0.2424  0.4357
 9467TIP3    H152596   3.702   3.559  11.384  1.5348 -0.1508 -0.9576
 9467TIP3    H252597   3.821   3.571  11.478  2.1311  0.9086 -1.8140
 9468TIP3   OH252598   4.958   4.960  12.107  0.2153 -0.0945  0.7589
 9468TIP3    H152599   4.896   4.889  12.095 -0.4804  0.4405  1.0700
 9468TIP3    H252600   4.946   5.016  12.031  0.2588  0.0480  0.8560
 9469TIP3   OH252601   5.442   0.186  11.369  0.6757  0.2940  0.3390
 9469TIP3    H152602   5.430   0.281  11.364 -0.6844  0.1074 -0.6231
 9469TIP3    H252603   5.488   0.172  11.451 -1.3396  1.6196  1.8122
 9470TIP3   OH252604   6.296   1.179  11.643  0.7458 -0.0523 -0.2518
 9470TIP3    H152605   6.365   1.241  11.665  1.3744 -0.8216  0.0290
 9470TIP3    H252606   6.317   1.151  11.554  2.4275 -2.2939  0.7425
 9471TIP3   OH252607   5.958   3.400  12.626 -0.4355 -0.1720  0.3613
 9471TIP3    H152608   5.980   3.435  12.713  1.4070 -2.1989  0.7818
 9471TIP3    H252609   6.030   3.428  12.570 -2.0593  1.9226 -0.8535
 9472TIP3   OH252610   7.570   6.295  10.543 -0.4386 -0.4555 -0.0203
 9472TIP3    H152611   7.655   6.291  10.500 -0.4896  0.8720 -0.3101
 9472TIP3    H252612   7.521   6.221  10.508  0.3724 -0.8495 -0.3413
 9473TIP3   OH252613   0.017   4.458  10.227  0.4520  0.5350 -0.0110
 9473TIP3    H152614   0.053   4.518  10.161  0.0272 -0.6489 -1.3804
 9473TIP3    H252615  -0.072   4.491  10.243  0.7752  1.1929  0.4538
 9474TIP3   OH252616   1.304   7.148  11.575 -0.1149 -0.0962 -0.3735
 9474TIP3    H152617   1.377   7.153  11.637  1.3297 -1.8623 -1.7876
 9474TIP3    H252618   1.227   7.135  11.630  1.2132 -2.4836  1.1029
 9475TIP3   OH252619   6.055   3.799  11.398  0.1345  0.0284  0.1518
 9475TIP3    H152620   5.971   3.769  11.363  0.3222 -0.3598  0.0263
 9475TIP3    H252621   6.035   3.832  11.486 -0.1675  0.0486  0.0744
 9476TIP3   OH252622   5.974   1.929  11.491 -0.4418  0.0103 -0.0565
 9476TIP3    H152623   6.062   1.968  11.493 -0.9533  1.1675  0.9657
 9476TIP3    H252624   5.975   1.863  11.560  0.1786 -1.3139 -1.2747
 9477TIP3   OH252625   0.741   6.482  12.468  0.4259  0.3409  0.1185
 9477TIP3    H152626   0.677   6.424  12.427  1.0216  1.1575 -2.0689
 9477TIP3    H252627   0.721   6.476  12.562 -2.4925  0.1638 -0.4144
 9478TIP3   OH252628   6.850   4.470  12.601 -0.3591  0.1522  0.1665
 9478TIP3    H152629   6.772   4.479  12.656 -0.3027 -1.3351  0.5364
 9478TIP3    H252630   6.903   4.547  12.622 -1.3511  0.7453  0.5387
 9479TIP3   OH252631   2.985   7.151  11.108 -0.4481 -0.2221  0.0137
 9479TIP3    H152632   2.972   7.115  11.196  0.9968  0.3337  0.4820
 9479TIP3    H252633   3.075   7.185  11.109 -1.1371  1.7783 -0.9709
 9480TIP3   OH252634   0.413   6.084  10.926  0.9105 -0.1815  0.0389
 9480TIP3    H152635   0.391   6.082  10.833  0.2601  0.8737  0.1504
 9480TIP3    H252636   0.496   6.037  10.932  1.2207  0.1854 -1.1527
 9481TIP3   OH252637   7.118   0.647  11.543  0.2972  0.0321 -0.5157
 9481TIP3    H152638   7.078   0.704  11.478  0.7693 -2.0308 -2.7666
 9481TIP3    H252639   7.140   0.567  11.495  4.2924 -0.1749  1.2232
 9482TIP3   OH252640   2.835   6.354  11.378  0.0168 -0.1353 -0.3870
 9482TIP3    H152641   2.811   6.263  11.363  0.0451 -0.0583 -0.9385
 9482TIP3    H252642   2.771   6.405  11.327 -0.1479  0.1616  0.1097
 9483TIP3   OH252643   2.600   0.847  11.546  0.8819 -0.6705  0.3226
 9483TIP3    H152644   2.683   0.890  11.523  1.4750 -0.3105  2.8583
 9483TIP3    H252645   2.539   0.920  11.558  0.2630 -0.9160 -1.0994
 9484TIP3   OH252646   0.926   2.911  11.512 -0.1127  0.0148  0.1658
 9484TIP3    H152647   0.984   2.967  11.461  2.2682 -1.6304  0.8894
 9484TIP3    H252648   0.969   2.904  11.598 -1.4777 -1.1264  0.7985
 9485TIP3   OH252649   1.364   4.780  13.355 -0.0720 -0.3533  0.3082
 9485TIP3    H152650   1.447   4.745  13.386 -0.5330 -1.1686  0.6624
 9485TIP3    H252651   1.386   4.823  13.272  0.8927  0.4723  0.9698
 9486TIP3   OH252652   5.996   3.192  11.320  0.0947 -0.0654 -0.2537
 9486TIP3    H152653   5.955   3.131  11.381 -0.5661 -0.4350 -1.0444
 9486TIP3    H252654   5.955   3.276  11.340 -0.2900 -0.2297 -0.3332
 9487TIP3   OH252655   1.653   2.164  11.238  0.8866  0.5041  0.4350
 9487TIP3    H152656   1.734   2.204  11.268  0.4232  0.3391  1.9926
 9487TIP3    H252657   1.610   2.133  11.318 -0.1168 -0.5382 -0.4707
 9488TIP3   OH252658   4.807   4.369  13.063 -0.0962 -0.4084 -0.0923
 9488TIP3    H152659   4.714   4.382  13.050 -0.0155 -0.3485 -0.6157
 9488TIP3    H252660   4.847   4.394  12.980  0.0032 -4.9577 -1.6649
 9489TIP3   OH252661   6.956   2.767  12.112  0.1406 -0.7486 -0.1078
 9489TIP3    H152662   7.008   2.802  12.185  0.6244 -1.8180  0.0742
 9489TIP3    H252663   6.935   2.678  12.138  1.7597 -1.7580 -1.9972
 9490TIP3   OH252664   4.765   5.016  11.418  0.1899 -0.1613  0.1311
 9490TIP3    H152665   4.792   4.975  11.337  1.4716 -0.5640  0.7366
 9490TIP3    H252666   4.687   5.066  11.395 -1.4536 -2.8720 -0.6422
 9491TIP3   OH252667   3.189   0.752  10.922  0.5070 -0.1609 -0.3228
 9491TIP3    H152668   3.281   0.725  10.920  0.8356  0.4648  2.4709
 9491TIP3    H252669   3.146   0.684  10.974 -0.8453 -0.9067 -2.3162
 9492TIP3   OH252670   4.402   4.644  11.438 -0.4217 -0.6143  0.4366
 9492TIP3    H152671   4.465   4.661  11.369 -1.5005  0.6662 -0.2874
 9492TIP3    H252672   4.454   4.613  11.512  0.9692 -0.1633 -0.3298
 9493TIP3   OH252673   5.094   1.372  10.813  0.2052  0.9932 -0.1145
 9493TIP3    H152674   5.184   1.362  10.782  0.4148  0.2803  0.6709
 9493TIP3    H252675   5.072   1.287  10.851 -1.5813  0.4071 -2.2127
 9494TIP3   OH252676   2.002   3.925  11.892  0.0670  0.2053 -0.0074
 9494TIP3    H152677   2.096   3.938  11.884 -0.1281  0.9769 -1.4723
 9494TIP3    H252678   1.992   3.850  11.951  1.6142 -0.6202 -0.7549
 9495TIP3   OH252679   3.531   0.592  12.115  0.1244  0.5525 -0.0105
 9495TIP3    H152680   3.623   0.579  12.138  0.8183 -1.1517 -3.2406
 9495TIP3    H252681   3.487   0.514  12.149  0.0235  0.8612  0.5930
 9496TIP3   OH252682   0.910   6.168  12.214 -0.7596  0.5082  0.1432
 9496TIP3    H152683   0.885   6.099  12.275 -1.7434  1.8800  1.3617
 9496TIP3    H252684   0.842   6.169  12.148  0.0131 -0.6082 -0.7023
 9497TIP3   OH252685   4.181   6.774  12.491 -0.8836 -0.2572  0.0759
 9497TIP3    H152686   4.199   6.866  12.511 -1.7097  0.2137 -1.2157
 9497TIP3    H252687   4.249   6.725  12.537 -1.2602  0.8948  1.9115
 9498TIP3   OH252688   6.363   0.919  12.670  0.3531  0.1165  0.1671
 9498TIP3    H152689   6.398   0.846  12.722  2.0411  0.1173 -0.9086
 9498TIP3    H252690   6.324   0.977  12.735  1.1566 -0.5612  1.3015
 9499TIP3   OH252691   0.434   2.587  12.267 -0.5031  0.7216 -0.4974
 9499TIP3    H152692   0.349   2.576  12.224 -0.2583  1.0871 -1.0824
 9499TIP3    H252693   0.434   2.678  12.298  0.0505  1.0293 -1.3524
 9500TIP3   OH252694   4.608   7.632  12.116  0.1656 -0.3938  0.2269
 9500TIP3    H152695   4.685   7.621  12.061  0.1480  1.3834 -0.1936
 9500TIP3    H252696   4.635   7.602  12.203  0.4754 -2.3376 -0.4962
 9501TIP3   OH252697   0.173   0.428  12.737 -0.6749 -0.0780  0.1753
 9501TIP3    H152698   0.094   0.480  12.752 -1.0817 -0.3047 -1.0869
 9501TIP3    H252699   0.244   0.482  12.772 -0.9746  1.7886 -1.8624
 9502TIP3   OH252700   1.657   0.103  12.570  0.0511  0.1114 -0.4589
 9502TIP3    H152701   1.743   0.062  12.565  0.3858  0.8354 -0.8433
 9502TIP3    H252702   1.675   0.196  12.584 -0.6487  0.3651 -1.1619
 9503TIP3   OH252703   1.603   5.273  11.743  0.4341  0.1120  0.7997
 9503TIP3    H152704   1.597   5.178  11.738  1.4197 -0.0399  2.1599
 9503TIP3    H252705   1.589   5.293  11.835  0.3752  1.2887  0.5499
 9504TIP3   OH252706   5.639   4.046  11.747  0.4076  0.1118  0.3285
 9504TIP3    H152707   5.557   4.021  11.790  1.2609  1.0624  2.7026
 9504TIP3    H252708   5.708   4.006  11.800  1.5258 -0.4033 -1.4190
 9505TIP3   OH252709   4.362   0.714  13.301 -0.0629 -0.2555 -0.1424
 9505TIP3    H152710   4.367   0.757  13.386  0.7571 -1.3541  0.3910
 9505TIP3    H252711   4.452   0.714  13.269  0.1917 -2.6051  0.4249
 9506TIP3   OH252712   2.490   6.006  11.009  0.0545 -0.1318  0.1917
 9506TIP3    H152713   2.450   6.066  10.945  1.2366  0.3136 -0.1617
 9506TIP3    H252714   2.438   5.926  11.002  0.6353 -0.3886 -1.9362
 9507TIP3   OH252715   5.269   3.411  12.790 -0.1883  0.0015  0.1530
 9507TIP3    H152716   5.267   3.505  12.803  0.3047  0.0421 -0.0459
 9507TIP3    H252717   5.348   3.395  12.738 -0.0255 -0.5628  0.5555
 9508TIP3   OH252718   0.424   2.075  12.756 -0.8367  0.0329  0.2193
 9508TIP3    H152719   0.453   2.079  12.665  0.5272 -1.1538  0.5636
 9508TIP3    H252720   0.338   2.032  12.752  0.4685 -2.7489 -0.3327
 9509TIP3   OH252721   0.418   5.394  11.614 -0.1655  0.2489 -0.5311
 9509TIP3    H152722   0.434   5.440  11.532  0.6681 -1.8022 -1.6071
 9509TIP3    H252723   0.333   5.352  11.602 -0.3552  0.4873 -0.0572
 9510TIP3   OH252724   2.039   2.690  11.873  0.3074 -0.1351  0.6864
 9510TIP3    H152725   2.107   2.699  11.940 -0.9551 -0.1486  2.0195
 9510TIP3    H252726   1.986   2.615  11.903  1.9477 -2.7551 -2.3871
 9511TIP3   OH252727   5.437   4.260  12.134  0.1469 -0.4246  0.2458
 9511TIP3    H152728   5.527   4.250  12.103 -0.1044 -0.3786 -0.5128
 9511TIP3    H252729   5.421   4.355  12.133  0.2275 -0.3993  0.7976
 9512TIP3   OH252730   3.605   7.092  11.720 -0.2161 -0.3091 -0.5584
 9512TIP3    H152731   3.516   7.061  11.740 -0.4636  1.5753  1.5773
 9512TIP3    H252732   3.598   7.187  11.722  2.0373 -0.1219  0.5999
 9513TIP3   OH252733   3.422   5.192  11.771 -0.5043 -0.7565 -0.2604
 9513TIP3    H152734   3.407   5.274  11.819 -0.4638 -1.9592  1.9218
 9513TIP3    H252735   3.516   5.178  11.776 -0.5496 -1.0991 -0.3747
 9514TIP3   OH252736   0.683   5.502  10.360  0.0780 -0.0850 -0.1941
 9514TIP3    H152737   0.694   5.415  10.399  0.9236  0.5872  1.1089
 9514TIP3    H252738   0.752   5.507  10.294 -0.0284 -0.4341 -0.3366
 9515TIP3   OH252739   5.151   5.201  11.999  0.2316 -0.4802  0.1319
 9515TIP3    H152740   5.090   5.206  12.073  0.3639 -1.2628  0.3130
 9515TIP3    H252741   5.127   5.274  11.943 -0.5187 -0.4525  0.4666
 9516TIP3   OH252742   1.152   2.517  12.249 -0.1601  0.4198 -0.3106
 9516TIP3    H152743   1.134   2.514  12.343  0.8854 -0.8683 -0.1221
 9516TIP3    H252744   1.078   2.470  12.209  0.1398 -0.3428  0.0113
 9517TIP3   OH252745   3.384   4.247  13.176  0.1846  0.0845  0.1325
 9517TIP3    H152746   3.425   4.332  13.157 -0.1802  0.6438  1.6433
 9517TIP3    H252747   3.292   4.260  13.155  0.2687 -0.2026 -0.4127
 9518TIP3   OH252748   0.755   1.199  10.718  0.0650 -0.5760 -0.0620
 9518TIP3    H152749   0.796   1.141  10.782  0.6715  0.2092  0.2666
 9518TIP3    H252750   0.782   1.162  10.633 -2.6056 -3.0035 -0.0061
 9519TIP3   OH252751   0.164   3.547  10.908 -0.0811  0.3825 -0.1812
 9519TIP3    H152752   0.164   3.580  10.998  0.1824  0.2182 -0.1175
 9519TIP3    H252753   0.073   3.553  10.879  0.0478  1.6467 -0.3511
 9520TIP3   OH252754   0.877   4.176  11.604 -0.3581 -0.0411 -0.1937
 9520TIP3    H152755   0.875   4.246  11.670  0.5716  0.3424 -0.5504
 9520TIP3    H252756   0.924   4.214  11.530 -0.1886 -0.9143 -0.5514
 9521TIP3   OH252757   6.460   1.791  10.823 -0.3205  0.4888 -0.3163
 9521TIP3    H152758   6.365   1.804  10.818 -0.2083  1.2705 -0.5749
 9521TIP3    H252759   6.486   1.774  10.732 -0.2414  0.0606 -0.2142
 9522TIP3   OH252760   1.558   5.286  11.365  0.4860 -0.0830  0.2177
 9522TIP3    H152761   1.642   5.250  11.395  0.0688 -0.0721  1.4679
 9522TIP3    H252762   1.519   5.325  11.443 -0.1068  1.0825 -0.6281
 9523TIP3   OH252763   7.369   5.078  11.956 -0.1974  0.3300 -0.2840
 9523TIP3    H152764   7.429   5.006  11.974  0.9137  0.4182 -3.0530
 9523TIP3    H252765   7.377   5.136  12.031  2.1328 -0.3838  0.0870
 9524TIP3   OH252766   2.813   3.822  13.493 -0.4992 -0.0936  0.2918
 9524TIP3    H152767   2.768   3.843  13.412 -0.6348 -0.4743  0.2662
 9524TIP3    H252768   2.905   3.811  13.469 -0.6949 -1.1989  0.0113
 9525TIP3   OH252769   2.629   2.676  10.829 -0.2514 -0.0944  0.4204
 9525TIP3    H152770   2.663   2.764  10.848 -0.6763 -0.2837  2.2109
 9525TIP3    H252771   2.696   2.617  10.862 -1.8715 -0.4590  3.4713
 9526TIP3   OH252772   6.135   3.511  12.250  0.1723 -0.1730  0.3225
 9526TIP3    H152773   6.058   3.523  12.306 -0.5769 -0.8168 -0.5365
 9526TIP3    H252774   6.137   3.589  12.195 -0.5821 -0.6950 -0.4679
 9527TIP3   OH252775   7.506   2.856  12.034  0.1770  0.2680  0.2746
 9527TIP3    H152776   7.581   2.869  11.976  0.2939  0.1368  0.3991
 9527TIP3    H252777   7.430   2.873  11.977  0.2689 -0.4921 -0.0868
 9528TIP3   OH252778   6.820   1.591  10.942 -0.0952  0.1579  0.1080
 9528TIP3    H152779   6.725   1.589  10.932 -0.2385 -1.8886  1.4366
 9528TIP3    H252780   6.840   1.684  10.958 -1.6866  0.8251 -1.3927
 9529TIP3   OH252781   0.430   6.488  11.318  0.2029 -0.1363 -0.3803
 9529TIP3    H152782   0.507   6.434  11.301  0.3412 -0.0726  0.0546
 9529TIP3    H252783   0.465   6.566  11.361 -0.2677 -0.7634  1.1986
 9530TIP3   OH252784   4.869   2.514  11.573 -0.0665 -0.3127  0.0219
 9530TIP3    H152785   4.779   2.532  11.545 -0.6197 -1.7045  0.8112
 9530TIP3    H252786   4.860   2.456  11.649  1.5136 -1.0857 -0.3356
 9531TIP3   OH252787   1.538   5.585  12.053 -0.0013 -0.1334  0.0174
 9531TIP3    H152788   1.477   5.578  11.979  1.1988  0.9050 -1.1306
 9531TIP3    H252789   1.491   5.637  12.118  0.0331  1.6798 -1.3255
 9532TIP3   OH252790   3.165   3.529  12.772 -0.0531  0.1737  0.3837
 9532TIP3    H152791   3.205   3.573  12.847  1.7718 -0.7676  0.0086
 9532TIP3    H252792   3.220   3.552  12.698  1.8375 -3.6104  0.3542
 9533TIP3   OH252793   2.050   4.604  12.507  0.1106  0.4073 -0.7982
 9533TIP3    H152794   2.038   4.516  12.474  0.0700 -0.0586  0.3960
 9533TIP3    H252795   1.967   4.648  12.489 -1.0039 -0.7087  1.1801
 9534TIP3   OH252796   6.538   3.791  12.197 -0.4761 -0.0539 -0.2863
 9534TIP3    H152797   6.494   3.876  12.185 -0.4916 -0.2032 -1.4005
 9534TIP3    H252798   6.611   3.810  12.255 -0.8261  0.6145 -0.0581
 9535TIP3   OH252799   2.053   4.206  11.444  0.4557  0.0973  0.0148
 9535TIP3    H152800   2.045   4.165  11.530 -1.9269 -0.7609 -0.5312
 9535TIP3    H252801   1.964   4.232  11.421  1.0690  0.6075 -2.0480
 9536TIP3   OH252802   6.425   4.642  12.574 -0.4036 -0.0326 -0.7460
 9536TIP3    H152803   6.339   4.640  12.532 -0.3237  2.9867 -1.3036
 9536TIP3    H252804   6.428   4.727  12.619  2.3082 -0.0055 -0.8041
 9537TIP3   OH252805   0.584   0.399  13.119  0.3065  0.1400 -0.4038
 9537TIP3    H152806   0.528   0.448  13.179  0.0826  1.0710 -1.3614
 9537TIP3    H252807   0.524   0.346  13.068  0.5972 -1.9280  1.2464
 9538TIP3   OH252808   4.060   0.273  12.491 -0.9423  0.7489 -0.0880
 9538TIP3    H152809   3.984   0.329  12.509 -1.0305  0.0870  1.8414
 9538TIP3    H252810   4.130   0.312  12.543 -0.2448  0.6895 -0.9696
 9539TIP3   OH252811   0.314   2.720  12.595 -0.1836 -0.1585  0.0526
 9539TIP3    H152812   0.358   2.728  12.511  0.1927 -0.3650  0.2285
 9539TIP3    H252813   0.233   2.672  12.576 -0.1438 -0.1190 -0.2060
 9540TIP3   OH252814   2.888   6.908  11.054 -0.2123  0.1164  0.4939
 9540TIP3    H152815   2.822   6.899  11.122  0.1456  1.4835  1.0567
 9540TIP3    H252816   2.932   6.990  11.074  0.7021 -0.0526 -0.7035
 9541TIP3   OH252817   4.506   0.319  11.886  0.5067 -0.8846 -0.1284
 9541TIP3    H152818   4.485   0.287  11.974 -1.2917  2.1775  0.7165
 9541TIP3    H252819   4.428   0.300  11.834 -0.0834  0.7964  0.0686
 9542TIP3   OH252820   6.977   7.115  11.296  0.8100  0.1218  0.6246
 9542TIP3    H152821   6.942   7.202  11.314  0.0981  0.1129 -0.6196
 9542TIP3    H252822   7.072   7.126  11.303  0.6842  0.6061  2.0437
 9543TIP3   OH252823   0.911   3.998  10.452 -0.3827 -0.1073  0.0905
 9543TIP3    H152824   0.820   4.017  10.473 -0.2034  0.3727  0.4627
 9543TIP3    H252825   0.960   4.030  10.527  0.2325  1.1785 -0.8126
 9544TIP3   OH252826   1.488   4.206  12.913  0.2530  0.2752 -0.6076
 9544TIP3    H152827   1.494   4.208  12.818 -0.3905  0.2388 -0.6567
 9544TIP3    H252828   1.405   4.162  12.931  1.4267 -1.7983  0.0188
 9545TIP3   OH252829   5.784   3.014  12.445  0.0197  0.7650  0.0223
 9545TIP3    H152830   5.842   3.087  12.467  1.2533 -0.3997  0.8003
 9545TIP3    H252831   5.800   2.950  12.514 -0.8079 -0.3753 -0.8168
 9546TIP3   OH252832   0.642   1.498  11.791 -0.4713  0.1665 -0.1384
 9546TIP3    H152833   0.635   1.498  11.695  0.6139  1.8042 -0.2543
 9546TIP3    H252834   0.735   1.483  11.808 -0.7250 -0.5642  0.7021
 9547TIP3   OH252835   1.183   3.279  11.394 -0.0035 -0.0701  0.2205
 9547TIP3    H152836   1.254   3.343  11.399 -2.3014  2.5644  1.6028
 9547TIP3    H252837   1.179   3.240  11.481  0.5829 -1.2666 -0.2611
 9548TIP3   OH252838   4.806   0.628  12.073  0.4121  0.0856  0.2455
 9548TIP3    H152839   4.816   0.658  11.982 -2.4738  1.6538  0.3152
 9548TIP3    H252840   4.885   0.659  12.117  1.9452 -0.8167 -1.6899
 9549TIP3   OH252841   0.239   6.823  13.765  0.1340  0.1848  0.2159
 9549TIP3    H152842   0.263   6.747  13.712 -0.4905  1.0564 -1.3984
 9549TIP3    H252843   0.283   6.809  13.849  0.0781 -1.9149 -0.0424
 9550TIP3   OH252844   3.495   2.854  12.220 -0.2080  0.3528  0.3603
 9550TIP3    H152845   3.489   2.816  12.132  0.2796 -0.3033  0.6060
 9550TIP3    H252846   3.521   2.945  12.204 -1.1527  0.5405 -0.2165
 9551TIP3   OH252847   0.961   4.100  10.921  0.3669  0.2949  0.8635
 9551TIP3    H152848   0.892   4.049  10.879 -0.1811  2.7001 -1.4780
 9551TIP3    H252849   0.915   4.174  10.961  1.4404  1.8348 -0.5702
 9552TIP3   OH252850   1.140   1.525  12.087  0.1661 -0.0753 -0.6464
 9552TIP3    H152851   1.143   1.444  12.138 -1.0441  0.0637 -0.3208
 9552TIP3    H252852   1.091   1.503  12.008  1.4364 -0.1110 -1.4670
 9553TIP3   OH252853   2.105   6.432  12.629  0.1241  0.3083  0.5290
 9553TIP3    H152854   2.106   6.384  12.712  0.2153 -0.0432  0.3253
 9553TIP3    H252855   2.158   6.379  12.570  1.6150  1.4801  0.7602
 9554TIP3   OH252856   2.884   0.155  12.575  0.5289 -0.5717 -0.0359
 9554TIP3    H152857   2.803   0.125  12.617 -0.2170 -1.4912 -2.0221
 9554TIP3    H252858   2.889   0.248  12.597 -1.7531 -0.1888 -0.8542
 9555TIP3   OH252859   5.861   0.977  12.661 -0.1003 -0.2291 -0.0424
 9555TIP3    H152860   5.822   0.890  12.657 -1.1209  0.2377 -0.8209
 9555TIP3    H252861   5.946   0.967  12.618  0.3524 -1.1071  1.0243
 9556TIP3   OH252862   0.124   5.609  11.536  0.4542  0.2415 -0.3586
 9556TIP3    H152863   0.122   5.529  11.588  1.2448 -0.0505 -0.7549
 9556TIP3    H252864   0.179   5.669  11.586  0.7326  0.1637 -0.5688
 9557TIP3   OH252865   0.519   1.639  10.975 -0.1101 -0.2989  0.0000
 9557TIP3    H152866   0.602   1.591  10.973 -0.8968 -1.7562  0.5193
 9557TIP3    H252867   0.500   1.659  10.884  0.5352 -0.4626 -0.1753
 9558TIP3   OH252868   4.789   6.349  10.680 -0.2163 -0.6676  0.1747
 9558TIP3    H152869   4.694   6.337  10.676 -0.6664  1.7139  1.6974
 9558TIP3    H252870   4.824   6.259  10.680 -2.4539 -1.6165 -0.0902
 9559TIP3   OH252871   5.954   0.049  12.071 -0.5951 -0.3679 -0.1259
 9559TIP3    H152872   5.999  -0.030  12.041 -0.5175 -0.5856  0.5406
 9559TIP3    H252873   6.000   0.121  12.027 -0.2534 -0.6569 -0.2448
 9560TIP3   OH252874   1.805   6.119  11.745  0.0641  0.6132 -0.0387
 9560TIP3    H152875   1.787   6.025  11.755  1.9388  0.3784  1.6526
 9560TIP3    H252876   1.792   6.135  11.651 -1.3813 -1.0617 -0.1828
 9561TIP3   OH252877   5.077   6.317  13.060 -0.7734 -0.1734 -0.3909
 9561TIP3    H152878   5.009   6.382  13.077 -1.9419 -1.1476 -1.1940
 9561TIP3    H252879   5.123   6.349  12.982  0.2672  0.8958  0.6091
 9562TIP3   OH252880   1.547   4.234  12.586  0.1477  0.1906 -0.0640
 9562TIP3    H152881   1.597   4.163  12.547 -0.4572 -0.8587  1.0309
 9562TIP3    H252882   1.614   4.293  12.621  0.6393 -0.6767  0.4792
 9563TIP3   OH252883   5.798   4.052  13.221 -0.0214  0.3445  0.5515
 9563TIP3    H152884   5.830   4.038  13.310  0.1316 -0.0242  0.4439
 9563TIP3    H252885   5.857   4.117  13.184 -0.3591  0.8329  0.8641
 9564TIP3   OH252886   6.475   5.470  12.759 -0.1241  0.0187 -0.2723
 9564TIP3    H152887   6.546   5.448  12.698 -0.4585 -0.6206 -0.4354
 9564TIP3    H252888   6.491   5.562  12.781 -0.0873  0.3080 -1.4467
 9565TIP3   OH252889   1.865   3.453  10.306  0.0346 -0.1736 -0.2073
 9565TIP3    H152890   1.949   3.461  10.352  0.7167  1.9562 -1.6852
 9565TIP3    H252891   1.816   3.531  10.332 -0.1509  0.3054 -1.8745
 9566TIP3   OH252892   7.411   6.703  12.160  0.3349  0.2059  0.2321
 9566TIP3    H152893   7.493   6.663  12.133  0.5625  1.0305 -0.3311
 9566TIP3    H252894   7.367   6.635  12.213  0.8015 -0.6931 -0.5114
 9567TIP3   OH252895   3.463   2.315  13.472 -0.5613  0.1431 -0.4750
 9567TIP3    H152896   3.459   2.404  13.508 -0.9229 -0.5088  1.1905
 9567TIP3    H252897   3.371   2.292  13.455 -0.5287 -0.1538 -0.2592
 9568TIP3   OH252898   0.867   2.820  12.779 -0.4603  0.1884 -0.1777
 9568TIP3    H152899   0.843   2.761  12.850  0.5865  0.8928  0.7921
 9568TIP3    H252900   0.936   2.774  12.732 -1.5656 -0.5424 -1.1511
 9569TIP3   OH252901   0.754   4.059  10.219 -0.0929  0.2477  0.0764
 9569TIP3    H152902   0.784   3.978  10.259 -1.9209 -0.0444  0.9975
 9569TIP3    H252903   0.658   4.053  10.222 -0.2805  2.1902 -0.3500
 9570TIP3   OH252904   6.357   5.963  12.679  0.9178  0.3101  0.2843
 9570TIP3    H152905   6.381   6.006  12.597  0.6773 -0.1325 -0.0264
 9570TIP3    H252906   6.392   6.019  12.748  1.4300  0.5006 -0.1305
 9571TIP3   OH252907   3.297   6.037  11.798 -0.2487  0.4709  0.2167
 9571TIP3    H152908   3.346   5.979  11.741  1.8978  1.2458  1.1700
 9571TIP3    H252909   3.295   5.992  11.883 -1.2835  0.4323  0.1949
 9572TIP3   OH252910   5.914   6.808  11.305  0.0173 -0.7998  0.1482
 9572TIP3    H152911   6.010   6.808  11.311  0.1142  0.4678 -0.9616
 9572TIP3    H252912   5.894   6.734  11.248  0.4759  0.0108 -1.0994
 9573TIP3   OH252913   4.462   0.521  12.423 -0.1527 -0.4265  0.2385
 9573TIP3    H152914   4.381   0.501  12.376 -0.5837 -0.8489  1.1547
 9573TIP3    H252915   4.531   0.507  12.358 -0.7682 -0.5827 -0.3931
 9574TIP3   OH252916   5.196   7.273  12.818  0.1113  0.7566 -0.6279
 9574TIP3    H152917   5.199   7.229  12.733  1.9104  1.1566 -0.8012
 9574TIP3    H252918   5.110   7.251  12.853 -1.6133  2.3088 -3.4608
 9575TIP3   OH252919   2.922   6.488  10.937 -0.0697  0.3392  0.1732
 9575TIP3    H152920   2.982   6.558  10.913  2.2887 -2.1013 -1.7967
 9575TIP3    H252921   2.861   6.482  10.863 -1.4502  1.3814  1.1683
 9576TIP3   OH252922   0.173   1.903  10.493 -0.0488  0.2311 -0.1266
 9576TIP3    H152923   0.242   1.969  10.497 -1.7756  2.3605 -2.5232
 9576TIP3    H252924   0.103   1.938  10.548 -0.6459 -0.0356 -0.7085
 9577TIP3   OH252925   0.277   2.877  10.794  0.3199  0.4614 -0.7584
 9577TIP3    H152926   0.243   2.954  10.749 -0.1270 -0.0514 -1.3230
 9577TIP3    H252927   0.360   2.858  10.750 -1.3452 -1.6134 -3.2685
 9578TIP3   OH252928   6.695   3.089  12.673  0.1402 -0.0677 -1.0575
 9578TIP3    H152929   6.664   3.118  12.588 -1.4935 -0.6078 -0.6880
 9578TIP3    H252930   6.619   3.099  12.731  1.5342  1.3817  0.6182
 9579TIP3   OH252931   1.155   1.987  11.695  0.1325 -0.4839 -0.3124
 9579TIP3    H152932   1.099   1.911  11.708  0.4594 -0.8487 -0.9780
 9579TIP3    H252933   1.171   2.020  11.783 -2.7190  0.8268 -0.1726
 9580TIP3   OH252934   7.459   1.629  12.647  0.2456 -0.0025 -0.2499
 9580TIP3    H152935   7.536   1.577  12.626 -0.9691 -1.6756 -0.7682
 9580TIP3    H252936   7.488   1.720  12.639  2.0914 -0.5900 -0.6103
 9581TIP3   OH252937   4.548   5.749  10.485 -0.2021 -0.3684  0.6119
 9581TIP3    H152938   4.516   5.659  10.497 -0.6873 -0.4872 -1.3467
 9581TIP3    H252939   4.640   5.739  10.462  0.3747 -0.1969  2.5972
 9582TIP3   OH252940   5.869   5.242  10.838  0.1883  0.4137 -0.0655
 9582TIP3    H152941   5.832   5.324  10.872 -0.6440 -0.7342  1.9538
 9582TIP3    H252942   5.859   5.250  10.743 -3.0364  1.2617  0.1993
 9583TIP3   OH252943   6.656   7.261  11.686 -0.1978  0.0379  0.2034
 9583TIP3    H152944   6.745   7.283  11.714 -0.4426  2.6076 -0.6924
 9583TIP3    H252945   6.665   7.180  11.638  1.8613  0.7172 -0.6740
 9584TIP3   OH252946   2.603   7.107  11.051  0.5442 -0.0057 -0.0870
 9584TIP3    H152947   2.607   7.028  11.103  0.0477 -0.1969 -0.3284
 9584TIP3    H252948   2.520   7.149  11.077  1.2855  0.9652  0.7907
 9585TIP3   OH252949   4.195   0.834  11.075  0.4441  0.3951  0.6648
 9585TIP3    H152950   4.241   0.754  11.050  1.2070  1.3458 -1.2085
 9585TIP3    H252951   4.103   0.809  11.080  0.5442 -0.4378 -0.8569
 9586TIP3   OH252952   1.103   0.516  10.871 -0.1342 -0.1680  0.0947
 9586TIP3    H152953   1.070   0.501  10.782 -1.7774 -1.0276  0.8068
 9586TIP3    H252954   1.044   0.466  10.927  0.1643  1.2633  1.7691
 9587TIP3   OH252955   0.213   0.651  10.848 -0.4180  0.3578  0.2419
 9587TIP3    H152956   0.227   0.647  10.943 -0.7225  2.0853  0.4070
 9587TIP3    H252957   0.290   0.608  10.810  1.0326  1.9011  1.2648
 9588TIP3   OH252958   4.868   4.995  12.583 -0.0330  0.5369 -0.7049
 9588TIP3    H152959   4.899   5.057  12.518  0.0951 -0.2839 -1.4449
 9588TIP3    H252960   4.824   4.927  12.532  0.3241 -0.2686  0.0350
 9589TIP3   OH252961   1.194   6.307  11.456 -0.1441  0.1893  0.0635
 9589TIP3    H152962   1.180   6.213  11.461 -0.1832  0.1575 -0.5602
 9589TIP3    H252963   1.269   6.323  11.514  1.4836 -0.5860 -1.7097
 9590TIP3   OH252964   0.165   5.416  10.498  0.3681  0.8361  0.5516
 9590TIP3    H152965   0.188   5.335  10.543 -0.6211  0.8908  1.1892
 9590TIP3    H252966   0.245   5.441  10.451  0.5516 -0.7598 -0.0593
 9591TIP3   OH252967   7.584   3.043  11.589 -0.3622 -0.2850 -0.1256
 9591TIP3    H152968   7.519   2.979  11.558 -0.3202 -0.8217  0.8232
 9591TIP3    H252969   7.662   3.025  11.538 -0.9774  0.4494 -1.3723
 9592TIP3   OH252970   3.370   3.001  11.351 -0.0210 -0.2161 -0.0660
 9592TIP3    H152971   3.305   3.020  11.283  1.6855  1.6923 -1.2804
 9592TIP3    H252972   3.370   3.079  11.406  1.1721 -0.2326 -0.0324
 9593TIP3   OH252973   1.993   1.466  12.323  0.4917  0.1618 -0.0372
 9593TIP3    H152974   2.045   1.508  12.392  0.1304 -0.4265  0.6088
 9593TIP3    H252975   2.038   1.383  12.307  0.4783  0.2251 -0.3940
 9594TIP3   OH252976   1.520   6.112  12.037 -0.2985 -0.0706  0.0207
 9594TIP3    H152977   1.542   6.205  12.047 -0.8720  0.2418 -1.3766
 9594TIP3    H252978   1.601   6.072  12.005  0.1138 -0.1793  1.1442
 9595TIP3   OH252979   1.369   5.568  12.291  0.2651 -0.4731  0.2407
 9595TIP3    H152980   1.354   5.480  12.256 -0.6910 -0.0429 -0.4894
 9595TIP3    H252981   1.405   5.553  12.378 -2.0479 -1.6370  1.0751
 9596TIP3   OH252982   1.006   7.206  11.180 -0.7056 -0.3415 -0.0630
 9596TIP3    H152983   1.038   7.130  11.228 -0.2465  2.0214  3.8024
 9596TIP3    H252984   1.073   7.223  11.113 -0.7036 -3.0357 -0.8613
 9597TIP3   OH252985   2.019   1.474  10.989 -0.6225 -0.2293  0.3714
 9597TIP3    H152986   2.017   1.556  10.940 -1.5416  0.1858  1.0493
 9597TIP3    H252987   2.104   1.435  10.969 -0.0495  1.0277  0.2455
 9598TIP3   OH252988   4.155   4.601  10.934  0.1906  0.2412  0.0557
 9598TIP3    H152989   4.211   4.674  10.961  1.9304 -0.4860 -1.3452
 9598TIP3    H252990   4.156   4.604  10.838 -0.7222 -0.8685 -0.0155
 9599TIP3   OH252991   2.674   5.020  13.084 -0.0805  0.2565 -0.1683
 9599TIP3    H152992   2.584   5.050  13.067 -0.7110 -0.9875  0.7937
 9599TIP3    H252993   2.729   5.079  13.032 -1.4463  1.0582 -0.7694
 9600TIP3   OH252994   6.551   6.953  12.944 -0.4062  0.8321  0.0383
 9600TIP3    H152995   6.639   6.986  12.963 -0.3992  0.0935  1.3819
 9600TIP3    H252996   6.551   6.864  12.979 -1.6083  0.7320 -0.1856
 9601TIP3   OH252997   5.517   5.043  11.628  0.0105 -0.2560  0.7223
 9601TIP3    H152998   5.428   5.049  11.593  0.5176  0.9886 -0.4243
 9601TIP3    H252999   5.526   4.951  11.654 -1.0444 -0.7900 -0.6664
 9602TIP3   OH253000   6.604   6.291  13.066 -0.2189 -0.1149 -0.3633
 9602TIP3    H153001   6.574   6.200  13.063  0.4502 -0.3456 -0.2204
 9602TIP3    H253002   6.530   6.339  13.103 -0.0178 -0.8376  1.0360
 9603TIP3   OH253003   3.805   5.132  11.310  0.1313 -0.0954  0.3622
 9603TIP3    H153004   3.730   5.147  11.368  0.4669 -1.7994  1.3182
 9603TIP3    H253005   3.838   5.046  11.336  1.4930 -0.0521 -1.0786
 9604TIP3   OH253006   1.173   2.006  12.226 -0.6672 -0.5255  0.1572
 9604TIP3    H153007   1.110   1.937  12.206 -3.9524  2.3967 -0.4850
 9604TIP3    H253008   1.176   2.060  12.147  0.9196  0.7459  1.0232
 9605TIP3   OH253009   1.682   3.863  12.860 -0.3170 -0.5003  0.3128
 9605TIP3    H153010   1.658   3.951  12.830 -1.2643 -0.9941 -0.4374
 9605TIP3    H253011   1.599   3.816  12.864  0.3566 -1.9326 -1.2393
 9606TIP3   OH253012   3.964   1.535  12.492  0.3039 -0.7242  0.7097
 9606TIP3    H153013   4.021   1.482  12.549  2.5452  1.1321  0.3562
 9606TIP3    H253014   3.951   1.616  12.541 -0.0527 -0.1865 -0.2612
 9607TIP3   OH253015   4.342   7.507  12.144 -0.0598 -0.0363  0.5670
 9607TIP3    H153016   4.404   7.542  12.208  0.4805 -0.0610  0.0729
 9607TIP3    H253017   4.308   7.585  12.098  0.6586 -0.0952 -0.0961
 9608TIP3   OH253018   2.744   2.053  11.819  0.0341  0.1516  0.8498
 9608TIP3    H153019   2.701   2.076  11.737  1.1545  0.5693  0.3664
 9608TIP3    H253020   2.672   2.029  11.878 -0.7976  0.0885 -0.1665
 9609TIP3   OH253021   4.001   5.425  11.500  0.2066 -0.1389  0.1271
 9609TIP3    H153022   4.061   5.407  11.427  0.8267 -0.8861  0.7996
 9609TIP3    H253023   4.048   5.486  11.556  0.1357 -0.3309  0.3993
 9610TIP3   OH253024   5.700   5.421  11.108 -0.2316  0.2284  0.4143
 9610TIP3    H153025   5.654   5.365  11.045  1.3384 -0.1159 -0.4768
 9610TIP3    H253026   5.652   5.408  11.190 -0.3004 -1.9697  0.1056
 9611TIP3   OH253027   6.050   0.943  12.200  0.1339  0.0944  0.4492
 9611TIP3    H153028   6.078   0.904  12.282 -1.3593 -1.4183  0.2926
 9611TIP3    H253029   6.006   0.873  12.153 -1.6789  1.6566 -0.3489
 9612TIP3   OH253030   3.280   1.985  11.737  0.4876  0.1958  0.2732
 9612TIP3    H153031   3.223   1.965  11.663  0.4637  0.3544  0.2487
 9612TIP3    H253032   3.364   2.006  11.698  0.6882 -0.4835  0.3331
 9613TIP3   OH253033   4.455   1.138  11.688 -0.1205  0.1323 -0.1762
 9613TIP3    H153034   4.391   1.175  11.748 -0.2358  1.3331 -1.0107
 9613TIP3    H253035   4.409   1.130  11.604  0.4249 -0.2296 -0.4501
 9614TIP3   OH253036   2.410   2.976  12.701  0.0999  0.3760 -0.1923
 9614TIP3    H153037   2.327   3.002  12.661 -0.8622  3.7200  3.4008
 9614TIP3    H253038   2.465   3.053  12.696  1.8506 -0.7774  0.3000
 9615TIP3   OH253039   5.790   5.878  12.031  0.3661 -0.6503  0.0250
 9615TIP3    H153040   5.797   5.787  12.060 -1.4755 -0.1457  2.3269
 9615TIP3    H253041   5.714   5.879  11.974 -0.1765 -0.4031  0.7446
 9616TIP3   OH253042   0.587   5.018  10.376  0.2438 -0.2355  0.1404
 9616TIP3    H153043   0.495   5.003  10.355  0.2970 -1.4899  0.7346
 9616TIP3    H253044   0.619   4.934  10.408  1.6654  0.1214 -0.2670
 9617TIP3   OH253045   0.319   4.807  12.205 -0.3243  0.0491 -0.1263
 9617TIP3    H153046   0.368   4.804  12.122 -0.0186  1.6807 -0.0512
 9617TIP3    H253047   0.244   4.750  12.191  0.9514 -1.5441 -0.6809
 9618TIP3   OH253048   2.335   6.287  11.814 -0.0201 -0.2107  0.3511
 9618TIP3    H153049   2.255   6.239  11.793  0.0460  0.0361 -0.5096
 9618TIP3    H253050   2.310   6.345  11.886 -0.6622 -0.0036 -0.0284
 9619TIP3   OH253051   2.441   7.182  12.814  0.1192  0.3513 -0.0770
 9619TIP3    H153052   2.467   7.101  12.859 -0.5014  0.5707  0.7165
 9619TIP3    H253053   2.524   7.227  12.796  0.4190 -0.0392  0.2951
 9620TIP3   OH253054   1.233   3.162  12.485 -0.2047  0.5790 -0.8391
 9620TIP3    H153055   1.325   3.182  12.499  0.0761 -1.7371  1.3879
 9620TIP3    H253056   1.229   3.066  12.477 -2.4393  0.5626 -0.4048
 9621TIP3   OH253057   5.858   6.359  13.544 -0.0056  0.1951 -0.0882
 9621TIP3    H153058   5.827   6.426  13.605 -0.0497  0.3208 -0.2491
 9621TIP3    H253059   5.856   6.278  13.595  1.2600  0.5086  0.5020
 9622TIP3   OH253060   1.144   5.868  10.842  0.2884 -0.4491  0.7589
 9622TIP3    H153061   1.122   5.830  10.927  1.3829 -1.8631  0.4536
 9622TIP3    H253062   1.230   5.833  10.822 -1.0480 -2.4833 -2.2091
 9623TIP3   OH253063   6.623   6.675  13.027  0.1669  0.7036  0.0173
 9623TIP3    H153064   6.579   6.667  13.112 -0.6230  2.5663 -0.1847
 9623TIP3    H253065   6.712   6.702  13.049  0.5805 -0.7659  0.3072
 9624TIP3   OH253066   2.281   1.237  12.078 -0.3859 -0.6867  0.2792
 9624TIP3    H153067   2.213   1.282  12.029  0.5910  0.4969 -0.0286
 9624TIP3    H253068   2.249   1.237  12.169 -1.0841 -0.7378  0.0385
 9625TIP3   OH253069   2.952   5.141  12.668  0.2718 -0.1170 -0.3842
 9625TIP3    H153070   2.917   5.160  12.755  1.3415  1.1275 -0.1938
 9625TIP3    H253071   3.039   5.105  12.686  0.2478 -0.4493 -0.9278
 9626TIP3   OH253072   5.701   2.144  11.722 -0.1552 -0.7777  0.2180
 9626TIP3    H153073   5.753   2.118  11.799 -2.3422 -0.2920  1.9418
 9626TIP3    H253074   5.663   2.062  11.691 -0.4335 -0.7785  0.5566
 9627TIP3   OH253075   2.973   0.216  11.900 -0.0265  0.6483  0.3775
 9627TIP3    H153076   2.953   0.137  11.950 -1.4015  1.0023  0.4138
 9627TIP3    H253077   3.043   0.259  11.950  0.1132 -0.0849  0.8289
 9628TIP3   OH253078   0.604   7.059  13.723 -0.2165  0.1881 -0.0643
 9628TIP3    H153079   0.625   7.016  13.805  1.0549 -0.0168 -0.4816
 9628TIP3    H253080   0.654   7.012  13.657  1.3316  2.3041 -0.5239
 9629TIP3   OH253081   4.335   5.883  12.018  0.7668  0.1376  0.4454
 9629TIP3    H153082   4.310   5.804  12.066 -0.8427  0.2666 -0.1354
 9629TIP3    H253083   4.337   5.856  11.926  0.2326  0.7634  0.2445
 9630TIP3   OH253084   5.412   5.350  13.087 -0.5241  0.1535  0.3226
 9630TIP3    H153085   5.437   5.318  13.000 -0.2265  0.9895  0.0901
 9630TIP3    H253086   5.468   5.302  13.148  0.8440  1.1417 -0.1084
 9631TIP3   OH253087   1.811   4.674  13.171  0.3943  0.3051  0.3690
 9631TIP3    H153088   1.753   4.623  13.114 -0.2395  0.9747  0.4098
 9631TIP3    H253089   1.893   4.678  13.123 -0.1034  0.7914 -0.4711
 9632TIP3   OH253090   5.470   4.159  13.032 -0.0467  0.1289 -0.6711
 9632TIP3    H153091   5.552   4.159  13.081 -1.2906  1.4505  1.5459
 9632TIP3    H253092   5.430   4.074  13.051  0.7499 -0.5210 -1.7620
 9633TIP3   OH253093   5.078   0.801  11.107 -0.2685  0.0780  0.0878
 9633TIP3    H153094   5.030   0.733  11.154 -0.9182  1.5524  1.6913
 9633TIP3    H253095   5.064   0.880  11.159  0.9293  1.3292 -1.3862
 9634TIP3   OH253096   5.676   2.119  10.611 -0.2736  0.1730 -0.6869
 9634TIP3    H153097   5.637   2.034  10.592  1.3334 -0.8100  0.2635
 9634TIP3    H253098   5.687   2.120  10.706  3.2247 -0.2158 -0.9743
 9635TIP3   OH253099   1.483   6.213  11.542  0.1672  0.0413  0.1399
 9635TIP3    H153100   1.542   6.270  11.592 -1.6861  0.4516  1.9892
 9635TIP3    H253101   1.539   6.175  11.474  2.1167  1.8289  0.6257
 9636TIP3   OH253102   2.818   5.896  11.486 -0.2099  0.1182 -0.4726
 9636TIP3    H153103   2.762   5.837  11.537  1.6235 -1.2323  0.1175
 9636TIP3    H253104   2.905   5.857  11.494  1.0188  2.7024 -0.4414
 9637TIP3   OH253105   2.265   3.357  12.215 -0.3005  0.2245  0.0758
 9637TIP3    H153106   2.267   3.268  12.251  0.3647 -0.4259 -1.4730
 9637TIP3    H253107   2.172   3.373  12.198 -0.4415 -0.1221  0.4786
 9638TIP3   OH253108   4.122   6.968  11.618  0.4245  0.0814  0.1145
 9638TIP3    H153109   4.090   7.002  11.535  0.3816  1.2212  0.5794
 9638TIP3    H253110   4.042   6.950  11.669  0.4518  1.8032  0.8334
 9639TIP3   OH253111   2.285   0.330  11.432 -0.1621  0.5160 -0.3297
 9639TIP3    H153112   2.225   0.306  11.503 -0.5373  1.2872 -0.3752
 9639TIP3    H253113   2.346   0.392  11.472 -0.6267  1.2783 -0.7631
 9640TIP3   OH253114   0.968   6.233  11.693 -0.3703  0.3357 -0.1406
 9640TIP3    H153115   1.063   6.221  11.688 -0.5415 -0.9445 -0.7096
 9640TIP3    H253116   0.955   6.290  11.769  0.9193  1.5951 -0.8018
 9641TIP3   OH253117   3.319   0.395  10.484  0.1353  0.0140  0.1677
 9641TIP3    H153118   3.266   0.326  10.443  0.5058  0.8140 -1.7905
 9641TIP3    H253119   3.282   0.405  10.571 -0.2642 -2.2744  0.3209
 9642TIP3   OH253120   3.894   7.121  13.034  0.1549  0.1687 -0.0792
 9642TIP3    H153121   3.940   7.048  13.077  1.6190  1.4672  0.6495
 9642TIP3    H253122   3.810   7.083  13.006  0.7818 -1.7334  0.4529
 9643TIP3   OH253123   4.870   5.643  11.248  0.5051  0.5924 -0.5638
 9643TIP3    H153124   4.883   5.610  11.337  0.4458  2.4379  0.1633
 9643TIP3    H253125   4.778   5.622  11.228  0.3318  0.7399  0.0599
 9644TIP3   OH253126   6.303   2.889  11.045 -0.5232 -0.5577  0.0568
 9644TIP3    H153127   6.341   2.946  10.978 -1.0155 -0.5292 -0.2047
 9644TIP3    H253128   6.219   2.861  11.008 -1.2101  0.1579  1.0134
 9645TIP3   OH253129   4.747   5.133  11.080 -0.2549 -0.4548  0.1560
 9645TIP3    H153130   4.763   5.205  11.018 -0.8169 -0.4631 -0.0036
 9645TIP3    H253131   4.823   5.134  11.138 -0.1813  0.1692  0.0559
 9646TIP3   OH253132   0.705   7.585  10.670  0.0738 -0.0303  0.3654
 9646TIP3    H153133   0.761   7.658  10.642  0.6699 -0.4224  0.5085
 9646TIP3    H253134   0.739   7.560  10.755 -0.6450  0.0450  0.6810
 9647TIP3   OH253135   5.477   3.468  12.042 -0.5568 -0.0667  0.3336
 9647TIP3    H153136   5.403   3.477  12.103 -1.3666 -0.4555 -0.5673
 9647TIP3    H253137   5.466   3.381  12.004  1.9807 -1.3492  2.2440
 9648TIP3   OH253138   4.327   2.356  12.548  0.3041 -0.7631 -0.3079
 9648TIP3    H153139   4.334   2.264  12.524 -0.0581 -1.0292  0.5940
 9648TIP3    H253140   4.261   2.392  12.489 -0.0998 -1.2587 -0.1560
 9649TIP3   OH253141   6.106   5.673  10.587  0.2352  0.2529  0.2912
 9649TIP3    H153142   6.051   5.715  10.652  1.6739  2.3304  0.2664
 9649TIP3    H253143   6.162   5.743  10.553  0.6941 -1.0828 -1.9838
 9650TIP3   OH253144   7.424   2.904  12.440  0.2113 -0.4381  0.3584
 9650TIP3    H153145   7.477   2.974  12.403  0.3041  0.4531  2.0530
 9650TIP3    H253146   7.360   2.949  12.495 -2.6838 -1.4456 -1.9724
 9651TIP3   OH253147   4.259   5.610  12.122 -0.3386  0.3796 -0.6210
 9651TIP3    H153148   4.293   5.541  12.180 -0.2756  0.7590 -0.2047
 9651TIP3    H253149   4.168   5.622  12.149 -0.6975 -0.3312 -1.4502
 9652TIP3   OH253150   3.539   3.658  11.071  0.1769  0.2462  0.2505
 9652TIP3    H153151   3.516   3.749  11.053 -0.5293  0.2311  1.0476
 9652TIP3    H253152   3.472   3.607  11.025 -0.9469  0.1892  1.8795
 9653TIP3   OH253153   0.025   0.529  10.516  0.0393  0.2796  0.0764
 9653TIP3    H153154   0.092   0.465  10.494  0.0561  0.5678 -0.7630
 9653TIP3    H253155   0.064   0.613  10.495 -0.4871  0.4648 -0.1998
 9654TIP3   OH253156   2.097   0.107  11.906 -0.1515  0.3323  0.3477
 9654TIP3    H153157   2.098   0.064  11.991  1.0961 -1.5504 -0.5627
 9654TIP3    H253158   2.024   0.065  11.859 -0.8254  1.3504  0.4530
 9655TIP3   OH253159   0.206   1.003  13.614  0.2345 -0.6220 -0.1534
 9655TIP3    H153160   0.246   0.934  13.668  0.9024 -0.0305  0.1130
 9655TIP3    H253161   0.263   1.011  13.538 -0.0420 -0.5999 -0.3633
 9656TIP3   OH253162   4.659   1.261  11.988  0.4704 -0.1442 -0.0728
 9656TIP3    H153163   4.596   1.273  12.058 -0.9347 -0.6266 -1.1918
 9656TIP3    H253164   4.703   1.346  11.980 -2.0041  1.1493 -1.0653
 9657TIP3   OH253165   4.219   4.182  10.636 -0.2930  0.1262 -0.4002
 9657TIP3    H153166   4.197   4.112  10.574 -0.1290  0.8879 -1.3509
 9657TIP3    H253167   4.282   4.143  10.696 -0.6120 -0.6930 -0.5925
 9658TIP3   OH253168   0.072   7.642  12.109 -0.4550  0.5918  0.0917
 9658TIP3    H153169   0.082   7.599  12.194  0.6155 -1.3694 -0.9296
 9658TIP3    H253170   0.144   7.607  12.056 -1.5742  1.0779 -1.8791
 9659TIP3   OH253171   1.689   7.297  11.475 -0.3206 -0.0779  0.0413
 9659TIP3    H153172   1.737   7.318  11.556  1.1199  0.9235 -1.0349
 9659TIP3    H253173   1.730   7.351  11.408 -2.1110 -0.2039 -1.2115
 9660TIP3   OH253174   6.000   2.231  12.068 -0.0782 -0.3019 -0.2011
 9660TIP3    H153175   6.078   2.177  12.082  0.8057  0.7694 -0.8061
 9660TIP3    H253176   6.020   2.314  12.111 -2.0225 -0.8755  2.0154
 9661TIP3   OH253177   4.733   6.329  11.191 -0.0745 -0.0386 -0.0695
 9661TIP3    H153178   4.671   6.317  11.263 -1.1041  1.4146 -0.6655
 9661TIP3    H253179   4.685   6.297  11.114  1.3295 -2.4085 -0.0560
 9662TIP3   OH253180   0.024   6.279  12.560  0.9138  0.4737 -0.2419
 9662TIP3    H153181  -0.042   6.304  12.495 -0.0182  0.4102  0.6521
 9662TIP3    H253182   0.084   6.353  12.564 -0.6192  1.7183  0.8515
 9663TIP3   OH253183   6.001   4.416  11.090  0.7015 -0.4478  0.6006
 9663TIP3    H153184   5.992   4.364  11.010 -0.1218  0.0490  0.3544
 9663TIP3    H253185   6.058   4.364  11.147  0.3665 -1.3348  0.1407
 9664TIP3   OH253186   0.721   3.249  12.449  0.0910  0.2889  0.0024
 9664TIP3    H153187   0.713   3.336  12.487 -0.9323  0.9936 -1.7057
 9664TIP3    H253188   0.652   3.245  12.383 -0.3448 -2.0825  0.4905
 9665TIP3   OH253189   6.605   7.617  11.885  0.2474  0.4770  0.1731
 9665TIP3    H153190   6.697   7.615  11.913  0.6508  0.4328 -1.0822
 9665TIP3    H253191   6.572   7.701  11.916  0.9079  0.7682  0.0997
 9666TIP3   OH253192   0.588   1.141  11.029  0.0892  0.1860 -0.1418
 9666TIP3    H153193   0.609   1.196  11.105 -1.6712 -0.9879  1.2974
 9666TIP3    H253194   0.503   1.173  11.000  0.2840 -0.0423 -0.9695
 9667TIP3   OH253195   4.056   2.644  11.993  0.4858 -0.7925  0.0361
 9667TIP3    H153196   4.141   2.617  11.960  1.0059 -0.5409  1.1538
 9667TIP3    H253197   4.071   2.669  12.084 -1.1735 -2.9752  1.0191
 9668TIP3   OH253198   6.283   6.507  10.841  0.1221  0.0519  0.5558
 9668TIP3    H153199   6.220   6.439  10.866 -1.9169  0.8952 -1.8043
 9668TIP3    H253200   6.292   6.562  10.919 -0.6342 -1.1317  1.5116
 9669TIP3   OH253201   1.709   5.489  12.770  0.4159 -0.5928 -0.1313
 9669TIP3    H153202   1.637   5.541  12.732  0.5559 -0.4969 -0.2658
 9669TIP3    H253203   1.665   5.426  12.827  0.2830  0.1248  0.5734
 9670TIP3   OH253204   0.139   0.603  12.326 -0.3891 -0.3227  0.1041
 9670TIP3    H153205   0.129   0.671  12.393 -0.1358 -1.5334  1.4029
 9670TIP3    H253206   0.063   0.616  12.268 -0.7010  0.6389  0.6968
 9671TIP3   OH253207   6.242   2.994  11.888 -0.3171 -0.5529 -0.4253
 9671TIP3    H153208   6.282   2.976  11.973  0.3724  0.3446 -0.5513
 9671TIP3    H253209   6.153   2.960  11.897  0.3038 -2.1695  0.0058
 9672TIP3   OH253210   0.187   5.985  12.830  0.8469 -0.6721 -0.0517
 9672TIP3    H153211   0.166   6.001  12.922 -1.0968 -1.4809 -0.3108
 9672TIP3    H253212   0.238   6.062  12.804 -1.5999  1.3448  0.7582
 9673TIP3   OH253213   5.081   5.944  11.010  0.1453 -0.4633 -0.4887
 9673TIP3    H153214   4.999   5.914  10.971  0.2189 -1.1843 -0.1203
 9673TIP3    H253215   5.075   6.039  11.009 -1.1020 -0.5068  0.3563
 9674TIP3   OH253216   4.132   0.476  13.507 -0.0324 -0.4248 -0.4527
 9674TIP3    H153217   4.120   0.553  13.562  2.5155 -0.4122  0.2346
 9674TIP3    H253218   4.081   0.407  13.550  0.6298 -0.0143  1.0392
 9675TIP3   OH253219   3.117   7.666  10.772 -0.3546 -0.3951  0.0947
 9675TIP3    H153220   3.068   7.608  10.713  0.9708 -0.6354 -0.8048
 9675TIP3    H253221   3.053   7.691  10.839 -1.4554 -1.4137 -0.5348
 9676TIP3   OH253222   4.992   5.091  11.187  0.2529 -0.4563 -0.6842
 9676TIP3    H153223   5.048   5.145  11.244 -1.6036 -0.2972  1.0992
 9676TIP3    H253224   5.051   5.060  11.118  2.2266  0.7466  0.3658
 9677TIP3   OH253225   5.179   6.417  12.415  0.2695  0.3004 -0.3676
 9677TIP3    H153226   5.230   6.396  12.336  1.5218 -1.5360  0.8378
 9677TIP3    H253227   5.243   6.452  12.477  0.0702 -1.6486  1.0343
 9678TIP3   OH253228   2.511   4.567  13.151 -0.6541 -0.3576  0.0912
 9678TIP3    H153229   2.495   4.648  13.104 -1.2028  0.0581  0.9642
 9678TIP3    H253230   2.424   4.528  13.161 -0.7590  0.2399  1.9091
 9679TIP3   OH253231   0.409   4.080  13.033  0.0012 -0.0165 -0.2645
 9679TIP3    H153232   0.361   4.022  13.093 -1.0949 -2.0120 -2.8567
 9679TIP3    H253233   0.493   4.036  13.021 -0.3521 -0.4436 -1.2741
 9680TIP3   OH253234   7.640   1.970  10.656 -0.4411 -0.2849 -0.6023
 9680TIP3    H153235   7.551   1.935  10.661 -0.9586  1.1005  0.7848
 9680TIP3    H253236   7.636   2.051  10.707  0.9867  1.1571 -2.6294
 9681TIP3   OH253237   6.710   7.076  11.508  0.1768  0.5940 -0.4897
 9681TIP3    H153238   6.684   7.129  11.433  2.9851  1.2779 -1.0782
 9681TIP3    H253239   6.746   6.996  11.470 -0.3171  0.0101  0.2396
 9682TIP3   OH253240   3.087   0.043  13.198 -0.0153  0.0402  0.2240
 9682TIP3    H153241   3.143   0.107  13.242 -3.9187  1.4189  3.8815
 9682TIP3    H253242   3.102  -0.038  13.245  0.1239 -0.0592  0.0121
 9683TIP3   OH253243   2.703   3.530  11.995  0.0825  0.7356 -0.3792
 9683TIP3    H153244   2.692   3.496  11.906  1.8150 -1.3117  0.1065
 9683TIP3    H253245   2.640   3.481  12.048  0.1554  0.8250 -0.2088
 9684TIP3   OH253246   6.456   6.624  12.772 -0.7579  0.8567 -0.2118
 9684TIP3    H153247   6.487   6.590  12.856 -2.3702  1.0565  0.4833
 9684TIP3    H253248   6.526   6.684  12.743  0.7813 -0.7743 -0.0611
 9685TIP3   OH253249   5.739   2.176  13.568  0.3524 -0.1539 -0.2158
 9685TIP3    H153250   5.749   2.107  13.503  0.5153 -1.9144  1.5778
 9685TIP3    H253251   5.645   2.197  13.566  0.3214 -0.3334 -0.8514
 9686TIP3   OH253252   0.190   4.693  10.911  0.3871  0.8658  0.3089
 9686TIP3    H153253   0.117   4.632  10.901 -0.4404  1.9906 -0.9567
 9686TIP3    H253254   0.268   4.638  10.912 -0.2651 -0.1880 -1.7428
 9687TIP3   OH253255   3.897   1.878  13.688  0.3604 -0.6405  0.4053
 9687TIP3    H153256   3.829   1.842  13.632  1.0499  0.7856 -1.4255
 9687TIP3    H253257   3.876   1.971  13.697  0.8478 -0.6237  1.6748
 9688TIP3   OH253258   0.858   3.723  10.464 -0.0740 -0.1602 -0.2084
 9688TIP3    H153259   0.857   3.720  10.560 -0.8223 -0.4407 -0.2169
 9688TIP3    H253260   0.904   3.804  10.443  0.8870 -0.5326  0.3745
 9689TIP3   OH253261   0.745   0.351  12.133 -0.3065 -0.4230  0.1784
 9689TIP3    H153262   0.755   0.275  12.190  1.3971  0.0256  0.5433
 9689TIP3    H253263   0.834   0.372  12.106 -0.6159  1.9332  0.7679
 9690TIP3   OH253264   2.259   4.448  13.154  0.3471 -0.2874  0.4061
 9690TIP3    H153265   2.283   4.409  13.238  1.6897 -1.1318 -0.3156
 9690TIP3    H253266   2.258   4.374  13.093 -1.1252  0.2291 -0.2393
 9691TIP3   OH253267   4.038   4.690  12.514  0.6245  0.2403  0.0179
 9691TIP3    H153268   4.071   4.601  12.523 -0.2641  0.0057  1.1216
 9691TIP3    H253269   4.062   4.715  12.425  2.1046 -0.5821  0.1580
 9692TIP3   OH253270   2.277   2.561  11.197 -0.6176  0.7221  0.0403
 9692TIP3    H153271   2.276   2.605  11.282 -2.2591 -1.1848  1.1128
 9692TIP3    H253272   2.211   2.607  11.146  0.2693  1.7837 -0.1707
 9693TIP3   OH253273   1.619   2.136  12.798  0.1416  0.4081  0.3104
 9693TIP3    H153274   1.691   2.192  12.771  1.8712 -0.1790  3.2063
 9693TIP3    H253275   1.543   2.194  12.803  0.8111  1.4491 -1.0460
 9694TIP3   OH253276   3.616   6.531  11.839  0.7063  0.0736 -0.4989
 9694TIP3    H153277   3.658   6.445  11.843  0.7847  0.1471  0.5712
 9694TIP3    H253278   3.555   6.525  11.765  1.3943 -0.5840 -1.0221
 9695TIP3   OH253279   1.416   5.762  10.810 -0.4716 -0.3450  0.4372
 9695TIP3    H153280   1.469   5.695  10.766  0.0020  0.2008  0.1661
 9695TIP3    H253281   1.462   5.779  10.892 -1.2917 -1.2754  1.1140
 9696TIP3   OH253282   4.214   5.354  10.950  0.2335  0.0199 -0.4902
 9696TIP3    H153283   4.308   5.360  10.936  0.3406 -1.0750 -0.3213
 9696TIP3    H253284   4.187   5.444  10.970  1.7506 -0.0970  2.6976
 9697TIP3   OH253285   0.952   6.763  10.988  0.0599  0.0480 -0.0215
 9697TIP3    H153286   1.015   6.832  11.011  1.9571 -1.5146 -0.3182
 9697TIP3    H253287   0.873   6.811  10.962  1.0501  2.0856  0.5383
 9698TIP3   OH253288   3.597   1.361  12.323 -0.2570  0.0601 -0.6507
 9698TIP3    H153289   3.585   1.324  12.235 -0.8320 -0.4858 -0.3529
 9698TIP3    H253290   3.690   1.350  12.342 -0.5311 -1.8623 -0.3021
 9699TIP3   OH253291   1.588   6.537  11.345 -1.0642  0.0549  0.3289
 9699TIP3    H153292   1.501   6.562  11.376 -1.8321  0.4797 -1.9760
 9699TIP3    H253293   1.574   6.509  11.254  0.9718 -1.4278  0.4010
 9700TIP3   OH253294   3.299   5.968  12.531 -0.4315 -0.0858  0.2633
 9700TIP3    H153295   3.351   5.889  12.521 -1.1106 -0.2851 -2.5354
 9700TIP3    H253296   3.209   5.937  12.536 -0.6212  0.4551  0.3221
 9701TIP3   OH253297   5.805   4.195  11.238  0.2005 -0.0550  0.2402
 9701TIP3    H153298   5.806   4.200  11.333  0.2547 -1.3703  0.3180
 9701TIP3    H253299   5.881   4.140  11.216  1.2852  1.6854 -0.6745
 9702TIP3   OH253300   4.278   7.345  11.486  0.3846 -0.1677 -0.3505
 9702TIP3    H153301   4.255   7.437  11.472  0.2809 -0.2883 -1.0304
 9702TIP3    H253302   4.223   7.317  11.559  0.9754  0.5112  0.3803
 9703TIP3   OH253303   2.042   5.697  11.230 -0.3347 -0.2996  0.4229
 9703TIP3    H153304   2.001   5.779  11.203  3.6130  1.6034 -0.4553
 9703TIP3    H253305   2.079   5.715  11.316 -0.0780 -1.4703  0.5762
 9704TIP3   OH253306   4.904   3.172  11.721  0.1421  0.2488 -0.5478
 9704TIP3    H153307   4.904   3.243  11.785  1.5789  1.5325 -1.8680
 9704TIP3    H253308   4.969   3.109  11.754  0.2528  0.4856 -0.3105
 9705TIP3   OH253309   2.918   0.423  12.381 -0.1423  0.3547  0.2396
 9705TIP3    H153310   2.965   0.505  12.398  2.1286 -0.8306  0.0501
 9705TIP3    H253311   2.882   0.398  12.466  1.2511  0.3468  0.8585
 9706TIP3   OH253312   5.435   6.979  12.883 -0.1852 -0.3500 -0.1729
 9706TIP3    H153313   5.461   7.041  12.815  0.7239  0.8498  1.2008
 9706TIP3    H253314   5.518   6.940  12.913 -0.5402 -0.6576  0.4304
 9707TIP3   OH253315   6.405   1.716  11.462  0.5274  0.0176  0.5124
 9707TIP3    H153316   6.439   1.794  11.417  0.6089  0.1603  0.8210
 9707TIP3    H253317   6.471   1.696  11.529 -0.0353  0.3380  1.1663
 9708TIP3   OH253318   5.337   0.149  12.428  0.3397 -0.3024  0.1883
 9708TIP3    H153319   5.340   0.080  12.361  1.4892  0.0785 -0.1697
 9708TIP3    H253320   5.277   0.215  12.392  1.9458  0.5097 -1.0941
 9709TIP3   OH253321   3.949   2.459  11.646 -0.2617 -0.1084  0.4005
 9709TIP3    H153322   3.887   2.516  11.600 -0.6825 -0.4777  0.5013
 9709TIP3    H253323   3.911   2.448  11.733 -1.3655 -2.3133 -0.2877
 9710TIP3   OH253324   4.198   0.234  11.171 -0.1907  0.3931  0.0010
 9710TIP3    H153325   4.208   0.139  11.169 -1.7712  0.1611  1.1823
 9710TIP3    H253326   4.192   0.260  11.079  2.5067 -0.3250 -0.4620
 9711TIP3   OH253327   5.150   6.440  10.701 -0.0597  0.1892 -0.0763
 9711TIP3    H153328   5.196   6.437  10.617 -0.8920  0.3704 -0.5485
 9711TIP3    H253329   5.116   6.351  10.714 -1.7163  0.6454 -0.9728
 9712TIP3   OH253330   5.195   3.574  11.196 -0.2897 -0.0810  0.1044
 9712TIP3    H153331   5.222   3.596  11.285  0.8350  0.7595 -0.4251
 9712TIP3    H253332   5.268   3.525  11.159 -0.0145  1.0230 -0.8881
 9713TIP3   OH253333   0.924   7.092  13.177  0.3650  0.5516 -0.1970
 9713TIP3    H153334   0.906   7.136  13.094  1.2826  0.5765 -0.3941
 9713TIP3    H253335   0.917   7.160  13.243  0.8740  0.8080 -0.4014
 9714TIP3   OH253336   3.727   7.612  12.331 -0.2475  0.2556  0.0570
 9714TIP3    H153337   3.691   7.601  12.420  0.0882  0.8767  0.2741
 9714TIP3    H253338   3.786   7.537  12.320 -0.2296  0.2185  0.3873
 9715TIP3   OH253339   4.898   5.510  12.959 -0.1948 -0.3158  0.0426
 9715TIP3    H153340   4.991   5.526  12.976  0.5298 -2.4062 -1.5189
 9715TIP3    H253341   4.882   5.421  12.992 -2.7843  1.3631  4.0658
 9716TIP3   OH253342   6.394   5.008  11.862 -0.0611  0.2050 -0.0091
 9716TIP3    H153343   6.361   4.958  11.788  0.0825 -2.1148  1.3835
 9716TIP3    H253344   6.475   5.048  11.830  0.2373 -1.1239 -1.0111
 9717TIP3   OH253345   5.749   3.806  12.715 -0.0366  0.3740 -0.0362
 9717TIP3    H153346   5.673   3.857  12.744 -1.1354 -0.1823 -1.8040
 9717TIP3    H253347   5.773   3.754  12.792 -1.1673  0.8751  0.6872
 9718TIP3   OH253348   4.606   5.818  11.513  0.2251  0.1538 -0.0646
 9718TIP3    H153349   4.684   5.772  11.483  0.4250 -0.7275  1.7083
 9718TIP3    H253350   4.639   5.883  11.575 -0.3496  0.7150 -0.3286
 9719TIP3   OH253351   7.518   4.942  10.938 -0.5144  0.2157  0.5708
 9719TIP3    H153352   7.533   5.023  10.889  1.6066 -1.5322 -1.9905
 9719TIP3    H253353   7.424   4.942  10.957 -0.4092  3.7583  1.7826
 9720TIP3   OH253354   7.258   6.924  11.994 -0.3868  0.2217 -0.2525
 9720TIP3    H153355   7.322   6.884  12.053 -1.4996  0.1004  0.9096
 9720TIP3    H253356   7.290   6.903  11.906  0.2008 -1.4064  0.3183
 9721TIP3   OH253357   3.802   3.067  12.476  0.3116 -0.0426  0.1136
 9721TIP3    H153358   3.710   3.082  12.454  0.8819  0.8833 -1.9201
 9721TIP3    H253359   3.829   3.148  12.521 -0.1273 -0.7921  1.8009
 9722TIP3   OH253360   0.905   1.833  13.078  0.2164  0.0371  0.0131
 9722TIP3    H153361   0.834   1.832  13.143 -1.1269 -0.1369 -1.4041
 9722TIP3    H253362   0.972   1.775  13.115 -0.5015 -0.0428  1.2431
 9723TIP3   OH253363   6.827   4.947  11.432  0.2300  0.2071  0.5223
 9723TIP3    H153364   6.740   4.967  11.396  0.5556 -0.1099 -0.4988
 9723TIP3    H253365   6.824   4.853  11.449  0.4681  0.1392  0.1957
 9724TIP3   OH253366   1.617   5.667  11.240 -0.5307 -0.4393  0.6535
 9724TIP3    H153367   1.625   5.676  11.335 -1.6780 -1.8392  0.9106
 9724TIP3    H253368   1.700   5.627  11.212  1.1278  2.6778  0.5728
 9725TIP3   OH253369   0.782   0.591  11.781 -0.0669  0.3182 -0.0158
 9725TIP3    H153370   0.814   0.521  11.838  0.0846 -1.1938 -1.8430
 9725TIP3    H253371   0.736   0.651  11.840 -1.1446 -1.8632  1.5264
 9726TIP3   OH253372   5.425   3.677  11.797 -0.3105  0.1207 -0.1490
 9726TIP3    H153373   5.451   3.698  11.887  0.7573 -0.1223 -0.3940
 9726TIP3    H253374   5.374   3.596  11.805  0.7859 -0.5604  0.1181
 9727TIP3   OH253375   3.095   5.606  12.733 -0.5448 -0.0432 -0.0939
 9727TIP3    H153376   3.157   5.564  12.792 -0.6804 -0.2280 -0.0825
 9727TIP3    H253377   3.047   5.534  12.692 -2.2182  0.1374  1.4419
 9728TIP3   OH253378   5.369   3.428  10.952  0.3221 -0.2990  0.4876
 9728TIP3    H153379   5.304   3.492  10.920  0.6435  0.4655  1.3150
 9728TIP3    H253380   5.320   3.346  10.960  0.0027 -0.2802 -1.0050
 9729TIP3   OH253381   5.361   7.311  11.599  0.1016  0.5906  0.5009
 9729TIP3    H153382   5.364   7.227  11.644 -1.4201 -0.5992 -1.4655
 9729TIP3    H253383   5.291   7.360  11.644  1.4074  1.1194  2.0504
 9730TIP3   OH253384   4.088   4.125  11.021 -0.1259  0.3287 -0.4799
 9730TIP3    H153385   4.114   4.035  10.999 -0.4944  0.5547 -1.9557
 9730TIP3    H253386   4.161   4.179  10.990 -0.1084  0.5770 -0.0078
 9731TIP3   OH253387   6.388   4.411  12.764  0.0499  0.4884  0.0905
 9731TIP3    H153388   6.398   4.474  12.692  0.3274 -0.0102 -0.3154
 9731TIP3    H253389   6.335   4.457  12.829 -0.7301  0.7284 -0.6981
 9732TIP3   OH253390   6.303   1.453  12.823 -0.1354 -0.1621  0.1197
 9732TIP3    H153391   6.267   1.396  12.891 -1.1576 -1.7045 -1.6299
 9732TIP3    H253392   6.230   1.509  12.796  0.1124  0.0676 -0.0901
 9733TIP3   OH253393   6.085   0.657  11.785 -0.1064 -0.1936 -0.0137
 9733TIP3    H153394   6.113   0.742  11.818 -0.8895 -0.0678  0.3549
 9733TIP3    H253395   6.046   0.613  11.861 -0.3752 -0.5859 -0.3725
 9734TIP3   OH253396   2.758   3.611  11.065  0.1450  0.1972  0.6652
 9734TIP3    H153397   2.672   3.637  11.032 -0.4379 -4.0080 -1.8695
 9734TIP3    H253398   2.747   3.605  11.160 -2.2213  0.2765  0.4499
 9735TIP3   OH253399   5.474   6.264  10.952  0.2826  0.0902  0.2543
 9735TIP3    H153400   5.455   6.353  10.982 -1.3210  0.1483 -0.8056
 9735TIP3    H253401   5.543   6.275  10.887  2.4792  0.1493  2.4543
 9736TIP3   OH253402   0.576   6.300  12.344 -0.1010  0.0633  0.7069
 9736TIP3    H153403   0.536   6.214  12.356  1.2518 -0.4526  1.7235
 9736TIP3    H253404   0.579   6.312  12.249  3.2494 -2.8580  0.2151
 9737TIP3   OH253405   6.505   1.574  13.017 -0.1427  1.0754  0.1938
 9737TIP3    H153406   6.491   1.481  13.006 -1.0408  1.1509  0.6116
 9737TIP3    H253407   6.444   1.616  12.956 -1.0908  1.3953  1.3146
 9738TIP3   OH253408   0.358   4.870  10.380 -0.2742 -0.3666  0.0998
 9738TIP3    H153409   0.289   4.825  10.428 -0.9386  2.2244  1.7713
 9738TIP3    H253410   0.439   4.839  10.420 -0.5658 -1.7591 -0.3529
 9739TIP3   OH253411   6.881   0.259  13.568 -0.9910 -0.2301  0.3131
 9739TIP3    H153412   6.795   0.243  13.607  1.3182 -2.2839  5.5395
 9739TIP3    H253413   6.895   0.353  13.575 -1.7216 -0.2413  2.2852
 9740TIP3   OH253414   1.120   6.778  13.398  0.7633 -0.6812  0.0268
 9740TIP3    H153415   1.211   6.804  13.404 -0.2359  3.9437 -0.7503
 9740TIP3    H253416   1.086   6.784  13.487  0.5891  0.7363 -0.1188
 9741TIP3   OH253417   2.908   2.697  12.897 -0.5804  0.0909 -0.1566
 9741TIP3    H153418   2.831   2.749  12.876  0.0508  0.7467 -0.9590
 9741TIP3    H253419   2.967   2.759  12.941  0.0675  0.0062 -0.8785
 9742TIP3   OH253420   0.799   7.368  12.143  0.4342 -0.0604 -0.0448
 9742TIP3    H153421   0.727   7.429  12.162  0.8868  0.0471  1.4202
 9742TIP3    H253422   0.863   7.421  12.095 -0.2871 -0.0685 -1.0584
 9743TIP3   OH253423   4.447   5.900  12.567 -0.0309  0.1455  0.1043
 9743TIP3    H153424   4.476   5.814  12.596 -3.8812 -2.3905 -2.5762
 9743TIP3    H253425   4.466   5.958  12.641  0.7705 -3.4258  2.9648
 9744TIP3   OH253426   0.172   4.420  10.465  0.2988 -1.0397 -0.1148
 9744TIP3    H153427   0.211   4.333  10.460  1.0950 -0.6961 -0.0294
 9744TIP3    H253428   0.120   4.429  10.385  1.6672 -0.9048 -1.0086
 9745TIP3   OH253429   7.130   3.399  11.361 -0.0780  0.1322 -0.2995
 9745TIP3    H153430   7.222   3.425  11.358  0.0635 -0.3538 -0.3106
 9745TIP3    H253431   7.085   3.473  11.402  0.6006 -0.3582  1.3971
 9746TIP3   OH253432   0.772   1.525  13.103 -0.0772  0.0903  0.1808
 9746TIP3    H153433   0.731   1.439  13.096 -0.3123  0.2183 -0.0441
 9746TIP3    H253434   0.812   1.526  13.190  0.0383 -0.2945  0.1334
 9747TIP3   OH253435   4.063   0.117  10.744  0.5103 -0.4248 -0.3587
 9747TIP3    H153436   4.092   0.050  10.806  0.0968 -0.8748 -0.6413
 9747TIP3    H253437   3.967   0.115  10.750  0.3205 -2.1022 -2.6650
 9748TIP3   OH253438   2.578   7.628  12.004  0.3334 -0.6680  0.3269
 9748TIP3    H153439   2.490   7.624  11.966  0.3751 -0.1665  0.1753
 9748TIP3    H253440   2.565   7.605  12.096 -0.3511  1.8058  0.9267
 9749TIP3   OH253441   6.858   6.315  12.487 -0.0406  0.1139  0.1441
 9749TIP3    H153442   6.876   6.223  12.507 -0.1249  0.3403  1.3576
 9749TIP3    H253443   6.893   6.328  12.399  0.7854 -0.8486  0.3156
 9750TIP3   OH253444   5.273   2.594  11.586 -0.3256 -0.1547  0.0348
 9750TIP3    H153445   5.232   2.581  11.501 -0.9197 -0.6530  0.3926
 9750TIP3    H253446   5.359   2.631  11.566 -0.5372 -0.0887 -0.7681
 9751TIP3   OH253447   5.932   1.385  11.123 -0.0136 -0.3527  0.4112
 9751TIP3    H153448   5.929   1.304  11.173 -0.8035 -0.3292  0.4142
 9751TIP3    H253449   5.858   1.436  11.155  0.7851  0.6033  0.7966
 9752TIP3   OH253450   0.572   4.265  11.242  0.4249 -0.1605 -0.5794
 9752TIP3    H153451   0.576   4.170  11.229  1.4098 -0.1404 -0.5143
 9752TIP3    H253452   0.530   4.299  11.163  0.3973 -0.6176 -0.7631
 9753TIP3   OH253453   1.597   7.045  12.564  0.1293 -0.3656  0.8935
 9753TIP3    H153454   1.545   7.123  12.581  0.3543 -0.4669  2.1855
 9753TIP3    H253455   1.658   7.070  12.494  0.5488  0.7885  1.6414
 9754TIP3   OH253456   7.577   3.384  11.099 -0.3393  0.4413 -0.6354
 9754TIP3    H153457   7.671   3.391  11.116 -0.5901  0.2548  0.9301
 9754TIP3    H253458   7.550   3.305  11.146 -1.5799  1.4585  0.4228
 9755TIP3   OH253459   1.151   0.737  11.005  0.0795 -0.0660 -0.2198
 9755TIP3    H153460   1.107   0.684  10.938 -2.2975 -0.6223  1.6413
 9755TIP3    H253461   1.191   0.673  11.064 -0.4165  0.2856  0.5125
 9756TIP3   OH253462   7.336   6.668  11.647  0.4127 -0.2624 -0.0383
 9756TIP3    H153463   7.372   6.743  11.694  2.0162 -0.7998 -0.3576
 9756TIP3    H253464   7.297   6.705  11.569 -1.7342  0.5732  1.3485
 9757TIP3   OH253465   5.218   3.484  11.804 -0.4830  0.4279  0.0850
 9757TIP3    H153466   5.131   3.473  11.766 -0.7507 -1.8967  1.2182
 9757TIP3    H253467   5.215   3.436  11.886  2.0149 -0.1056 -0.0562
 9758TIP3   OH253468   3.589   6.806  12.612  0.2937  0.6210  0.5663
 9758TIP3    H153469   3.541   6.781  12.534 -0.1681  0.3973  0.9195
 9758TIP3    H253470   3.652   6.735  12.626  2.1701  1.8652 -1.0583
 9759TIP3   OH253471   7.158   2.470  10.978 -0.1815 -0.2593 -0.1947
 9759TIP3    H153472   7.237   2.422  10.951 -0.3772 -0.6659 -0.0428
 9759TIP3    H253473   7.090   2.403  10.984  0.1873 -0.4972  2.7901
 9760TIP3   OH253474   3.686   4.229  12.607  0.0781 -0.3159 -0.1013
 9760TIP3    H153475   3.620   4.189  12.663  0.2516 -1.7775 -0.8888
 9760TIP3    H253476   3.711   4.160  12.546 -0.7274  1.4175 -2.5586
 9761TIP3   OH253477   0.354   3.330  13.163 -0.2375  0.2390  0.4180
 9761TIP3    H153478   0.352   3.425  13.181 -2.3060  0.6320 -1.4304
 9761TIP3    H253479   0.275   3.297  13.205  0.5413 -0.7382  1.1643
 9762TIP3   OH253480   6.828   3.816  11.927 -0.4669  0.2428 -0.3957
 9762TIP3    H153481   6.794   3.789  12.012 -1.7179 -1.2113 -1.3160
 9762TIP3    H253482   6.878   3.896  11.946  0.0680 -0.5407  1.8310
 9763TIP3   OH253483   6.283   4.553  10.765 -0.0200  0.3728 -0.2493
 9763TIP3    H153484   6.311   4.644  10.764  3.7157 -0.6272 -0.9642
 9763TIP3    H253485   6.299   4.523  10.854  1.6950 -0.2728 -0.7264
 9764TIP3   OH253486   7.352   5.962  10.819  0.0548 -0.8736  1.0601
 9764TIP3    H153487   7.285   6.029  10.807 -0.3559 -1.2664  1.1588
 9764TIP3    H253488   7.346   5.906  10.742  1.4735  0.1184  0.1895
 9765TIP3   OH253489   5.133   2.238  11.168  0.3542 -0.1614 -0.0418
 9765TIP3    H153490   5.051   2.283  11.190 -0.7804 -1.6382 -1.0166
 9765TIP3    H253491   5.120   2.209  11.078  2.0354 -0.2946 -0.2617
 9766TIP3   OH253492   6.151   1.374  11.796 -0.5977 -0.2100 -0.1733
 9766TIP3    H153493   6.211   1.307  11.765  1.2029  1.2071  0.0753
 9766TIP3    H253494   6.187   1.457  11.763 -0.0709  1.1168  3.2691
 9767TIP3   OH253495   7.097   6.182  11.828 -0.1027 -0.3203  0.8725
 9767TIP3    H153496   7.056   6.191  11.742  1.4570 -0.2906  0.1002
 9767TIP3    H253497   7.177   6.234  11.822  0.6543 -1.3162  1.9346
 9768TIP3   OH253498   2.932   0.834  11.270  0.2931  0.3609 -0.2067
 9768TIP3    H153499   2.910   0.777  11.344  1.1016  1.9147  1.3250
 9768TIP3    H253500   2.847   0.858  11.233 -0.2480  0.7479  1.1978
 9769TIP3   OH253501   4.535   4.109  10.936 -0.3461 -0.6198  0.5110
 9769TIP3    H153502   4.504   4.108  10.846 -0.7453  0.3570  0.6223
 9769TIP3    H253503   4.550   4.017  10.958  0.8595 -0.7877 -0.9153
 9770TIP3   OH253504   5.197   4.705  11.626 -0.2914  0.7088  0.2532
 9770TIP3    H153505   5.264   4.746  11.571 -0.9554 -1.1931 -2.1533
 9770TIP3    H253506   5.245   4.642  11.679  0.1017  0.9703  0.2106
 9771TIP3   OH253507   3.521   2.613  11.450  0.1889  0.3223 -0.0680
 9771TIP3    H153508   3.455   2.644  11.388  0.8000  0.8656 -0.4567
 9771TIP3    H253509   3.581   2.560  11.398 -1.2580 -2.2986  0.7077
 9772TIP3   OH253510   0.155   3.234  11.634 -0.0345  0.2309  0.5132
 9772TIP3    H153511   0.196   3.270  11.555  2.2238  0.6449  1.7745
 9772TIP3    H253512   0.066   3.270  11.634  0.1554  0.8117 -1.4426
 9773TIP3   OH253513   4.063   2.792  11.488  0.1367  0.0494 -0.3662
 9773TIP3    H153514   3.977   2.754  11.475  0.1714  0.1749 -0.9601
 9773TIP3    H253515   4.065   2.813  11.582  0.4929 -2.2914  0.2097
 9774TIP3   OH253516   1.646   2.613  12.172  0.0374  0.3738 -0.3692
 9774TIP3    H153517   1.551   2.626  12.181  0.0507  0.4894 -0.3972
 9774TIP3    H253518   1.663   2.529  12.215 -0.2423 -0.1715 -1.2855
 9775TIP3   OH253519   1.149   1.668  10.941 -0.2195 -0.5555  0.3510
 9775TIP3    H153520   1.146   1.698  11.031 -1.3218 -0.2003  0.2057
 9775TIP3    H253521   1.201   1.588  10.944  2.0654  0.8209  0.8830
 9776TIP3   OH253522   1.257   7.101  12.902 -0.4432 -0.3640 -0.0884
 9776TIP3    H153523   1.259   7.020  12.851 -2.9429 -0.8013  0.3314
 9776TIP3    H253524   1.184   7.151  12.864 -1.8551 -0.3394  2.3984
 9777TIP3   OH253525   7.237   3.958  11.933 -0.6298 -0.1215 -0.0456
 9777TIP3    H153526   7.285   4.022  11.985 -0.4103  0.8776 -1.4010
 9777TIP3    H253527   7.300   3.931  11.865 -1.3345 -0.3360 -0.6246
 9778TIP3   OH253528   3.608   6.720  10.932 -0.4197 -0.5032  0.2615
 9778TIP3    H153529   3.629   6.677  11.015 -2.4160 -0.3201  0.9078
 9778TIP3    H253530   3.584   6.648  10.873  1.6256 -0.6952 -0.4200
 9779TIP3   OH253531   7.476   7.306  12.953 -0.0723  0.2983  0.1285
 9779TIP3    H153532   7.463   7.264  13.038  2.3774  1.0453  0.9593
 9779TIP3    H253533   7.466   7.236  12.889  2.5327 -1.3580  1.3664
 9780TIP3   OH253534   7.135   4.949  11.868  0.3254 -0.3305  0.0615
 9780TIP3    H153535   7.066   4.959  11.933  1.5682 -0.8189  1.5174
 9780TIP3    H253536   7.205   5.008  11.898  0.6318  0.0402 -1.2846
 9781TIP3   OH253537   0.677   7.496  13.106 -0.5759 -0.0884 -0.1982
 9781TIP3    H153538   0.724   7.497  13.189 -1.8454  2.9785  0.5978
 9781TIP3    H253539   0.614   7.425  13.115 -1.0163  0.4891  1.6843
 9782TIP3   OH253540   6.221   0.078  11.308 -0.4676  0.5396  0.3063
 9782TIP3    H153541   6.199   0.002  11.361  1.6549 -0.5789 -0.3132
 9782TIP3    H253542   6.162   0.073  11.233 -0.5940 -0.2931  0.4534
 9783TIP3   OH253543   7.023   4.243  11.356  0.2649 -0.6671  0.2231
 9783TIP3    H153544   7.050   4.213  11.269 -0.1305  2.3947 -1.0600
 9783TIP3    H253545   7.102   4.281  11.394 -0.0839 -0.0201  0.3028
 9784TIP3   OH253546   5.736   1.343  11.510  0.0002  0.0591  0.2102
 9784TIP3    H153547   5.832   1.344  11.519  0.0046 -0.0358  0.1739
 9784TIP3    H253548   5.715   1.252  11.492 -0.0243  0.2210 -0.6219
 9785TIP3   OH253549   1.879   0.978  12.481  0.1531 -0.4592 -0.1544
 9785TIP3    H153550   1.872   1.047  12.547  3.3817 -1.6498  1.6645
 9785TIP3    H253551   1.968   0.986  12.447  0.4124 -3.2535 -0.3660
 9786TIP3   OH253552   5.887   7.668  12.532  0.4783 -0.3951  0.7612
 9786TIP3    H153553   5.821   7.622  12.481  0.7147  0.2714 -0.1569
 9786TIP3    H253554   5.872   7.640  12.622  0.6405 -2.2910  0.2282
 9787TIP3   OH253555   5.177   5.447  11.894  0.2912 -0.1977  0.2580
 9787TIP3    H153556   5.192   5.439  11.989 -0.8566  1.1338  0.5798
 9787TIP3    H253557   5.252   5.498  11.862  0.2304  0.1010  0.5910
 9788TIP3   OH253558   0.439   5.044  11.344 -0.2347  0.2316 -0.1227
 9788TIP3    H153559   0.500   4.971  11.350  1.1163  1.2542 -0.7763
 9788TIP3    H253560   0.495   5.121  11.337 -1.5873  1.1322 -1.8645
 9789TIP3   OH253561   1.382   4.950  10.774 -0.1240  0.6123 -0.2787
 9789TIP3    H153562   1.351   4.963  10.863  0.7263 -1.1600  0.3215
 9789TIP3    H253563   1.303   4.943  10.721 -0.6319  1.9205  0.2634
 9790TIP3   OH253564   4.766   5.171  11.821 -0.1978 -0.0286  0.2623
 9790TIP3    H153565   4.830   5.113  11.778 -1.2352 -1.0916  0.1099
 9790TIP3    H253566   4.740   5.232  11.752  0.8588  0.6128  0.4040
 9791TIP3   OH253567   1.815   6.217  11.132 -0.4309  0.0034 -0.4427
 9791TIP3    H153568   1.869   6.194  11.056  1.3377 -1.6516  1.1773
 9791TIP3    H253569   1.877   6.220  11.205 -2.4055 -1.4873  1.4545
 9792TIP3   OH253570   5.060   5.929  12.275  0.1019  0.0474 -0.3024
 9792TIP3    H153571   4.999   5.874  12.324  0.1921 -0.1980 -0.4649
 9792TIP3    H253572   5.112   5.868  12.223  0.0081  0.3075 -0.7038
 9793TIP3   OH253573   4.783   1.510  12.958  0.4915 -0.3408  0.4017
 9793TIP3    H153574   4.740   1.431  12.990  1.4248 -1.1603 -0.2880
 9793TIP3    H253575   4.769   1.575  13.026  0.5726 -1.4070  1.4619
 9794TIP3   OH253576   6.877   0.857  11.933  0.5181 -0.3536 -0.3791
 9794TIP3    H153577   6.919   0.881  12.016  0.4229 -0.3885 -0.3204
 9794TIP3    H253578   6.929   0.784  11.899  1.8762  1.0152 -1.4038
 9795TIP3   OH253579   6.534   3.214  12.442  0.3482 -0.4469 -0.4591
 9795TIP3    H153580   6.616   3.255  12.413  0.1948  1.3306  1.3480
 9795TIP3    H253581   6.467   3.254  12.387  0.5467 -0.8183 -0.9726
 9796TIP3   OH253582   5.637   4.925  10.476  0.1439  0.0282 -0.4383
 9796TIP3    H153583   5.607   4.835  10.462  0.5067 -0.4623  1.5632
 9796TIP3    H253584   5.732   4.921  10.466  0.1172  0.2961 -0.8156
 9797TIP3   OH253585   1.874   3.746  11.185 -0.2076 -0.5281  0.0217
 9797TIP3    H153586   1.926   3.684  11.238 -3.1565 -1.9465  1.4640
 9797TIP3    H253587   1.905   3.832  11.212  1.0255 -1.2976  1.2151
 9798TIP3   OH253588   2.793   2.639  11.229 -0.0294 -0.0670  0.0049
 9798TIP3    H153589   2.720   2.677  11.278  0.9823 -0.2082  1.6894
 9798TIP3    H253590   2.855   2.612  11.296  2.1961  1.2512 -1.4275
 9799TIP3   OH253591   0.447   5.778  10.627 -0.4699 -0.4150 -0.2803
 9799TIP3    H153592   0.441   5.702  10.570  0.9349 -0.4322 -0.4381
 9799TIP3    H253593   0.536   5.809  10.616 -0.2822 -0.1709  1.5985
 9800TIP3   OH253594   4.657   6.973  11.903  0.3426 -0.2433 -0.8705
 9800TIP3    H153595   4.686   6.897  11.954 -1.4458  0.2909  1.0482
 9800TIP3    H253596   4.622   6.936  11.822 -1.5585 -1.6343  0.5049
 9801TIP3   OH253597   1.898   5.220  11.107 -0.0483 -0.0895  0.4981
 9801TIP3    H153598   1.900   5.313  11.128 -1.3972 -0.1432  0.9406
 9801TIP3    H253599   1.966   5.182  11.162  0.6248  0.6480  0.1909
 9802TIP3   OH253600   0.309   5.504  11.376  0.2733  0.0243  0.1256
 9802TIP3    H153601   0.284   5.553  11.297  0.0862  0.2790  0.3426
 9802TIP3    H253602   0.234   5.512  11.434  1.7911  3.0439  1.8785
 9803TIP3   OH253603   5.094   3.018  11.806 -0.4870  0.1471  0.5017
 9803TIP3    H153604   5.150   3.041  11.732 -0.8081  0.4192  0.3384
 9803TIP3    H253605   5.069   2.927  11.790  0.8250 -0.3569  1.1707
 9804TIP3   OH253606   5.275   0.790  11.789 -0.1666  0.5840  0.5474
 9804TIP3    H153607   5.234   0.858  11.737  1.7045  1.1086 -0.3064
 9804TIP3    H253608   5.342   0.835  11.840 -0.3117 -0.3152  1.5895
 9805TIP3   OH253609   4.876   6.068  11.506  0.0220  0.0475 -0.3582
 9805TIP3    H153610   4.856   6.017  11.427  0.0386 -0.6114  0.0577
 9805TIP3    H253611   4.959   6.112  11.486 -0.2894  0.3863 -0.9401
 9806TIP3   OH253612   5.127   1.652  10.688  0.2152 -0.2326  0.1685
 9806TIP3    H153613   5.104   1.651  10.595  0.3823 -1.5015  0.1256
 9806TIP3    H253614   5.112   1.562  10.718 -1.4086  0.4889  1.7719
 9807TIP3   OH253615   6.825   4.494  10.840  0.0317 -0.3903 -0.4111
 9807TIP3    H153616   6.831   4.399  10.831  0.4092 -0.3339 -0.8058
 9807TIP3    H253617   6.740   4.509  10.882 -0.5580 -0.8458 -1.4089
 9808TIP3   OH253618   7.562   7.104  12.520  0.0183 -0.1440 -0.0105
 9808TIP3    H153619   7.626   7.162  12.560 -1.3257  0.0758  1.9198
 9808TIP3    H253620   7.599   7.083  12.434  2.0793  0.9142  0.5682
 9809TIP3   OH253621   1.110   6.330  12.016  0.6991 -0.0834 -0.3859
 9809TIP3    H153622   1.076   6.291  12.096  1.3356 -1.2778 -0.6657
 9809TIP3    H253623   1.038   6.383  11.982  0.8102  1.3909  1.5566
 9810TIP3   OH253624   4.356   3.006  11.566 -0.1427  0.4023  0.0414
 9810TIP3    H153625   4.441   3.034  11.599  0.6492 -1.6277 -0.1069
 9810TIP3    H253626   4.326   2.942  11.630 -0.4837 -0.5627 -1.0541
 9811TIP3   OH253627   7.077   6.888  10.806 -0.0746  0.1369 -0.5120
 9811TIP3    H153628   7.081   6.795  10.784  1.3592  0.1714 -0.5246
 9811TIP3    H253629   7.166   6.919  10.791 -0.0474  1.0818  1.3566
 9812TIP3   OH253630   4.551   7.586  10.789  0.1023 -0.0726  0.3036
 9812TIP3    H153631   4.643   7.578  10.764  0.1014 -0.4227  0.4066
 9812TIP3    H253632   4.502   7.557  10.712  0.0478  1.2122 -0.1755
 9813TIP3   OH253633   7.331   2.005  12.890 -0.6174 -0.3838  0.1061
 9813TIP3    H153634   7.289   1.951  12.957 -0.2822 -2.5667 -1.3404
 9813TIP3    H253635   7.317   1.958  12.808  1.9100  0.4061 -0.8912
 9814TIP3   OH253636   0.679   0.110  13.197 -0.2156  0.2295  0.5452
 9814TIP3    H153637   0.587   0.083  13.200  0.2111 -1.2934  0.9825
 9814TIP3    H253638   0.677   0.200  13.163 -2.1382  1.6694  4.0099
 9815TIP3   OH253639   6.727   7.071  12.685 -0.8135  0.5953 -0.3909
 9815TIP3    H153640   6.813   7.104  12.662  0.1889 -0.6091  1.3167
 9815TIP3    H253641   6.699   7.126  12.758 -0.4668 -0.3656  0.4988
 9816TIP3   OH253642   0.597   1.360  11.256 -0.0869 -0.0220  0.6480
 9816TIP3    H153643   0.582   1.434  11.315 -1.9151  2.1099 -2.2648
 9816TIP3    H253644   0.509   1.334  11.227  0.7454 -1.0550 -1.0771
 9817TIP3   OH253645   3.924   1.751  12.642  0.3575  0.0715  0.1464
 9817TIP3    H153646   3.949   1.831  12.596  2.2837  0.7646  2.2275
 9817TIP3    H253647   3.892   1.781  12.727  3.2841 -1.3692  1.8922
 9818TIP3   OH253648   3.691   2.840  11.971  0.0829  0.2761 -0.3284
 9818TIP3    H153649   3.640   2.759  11.974  0.6002 -0.0415  0.1133
 9818TIP3    H253650   3.687   2.867  11.879  1.1382 -1.0569 -0.7967
 9819TIP3   OH253651   1.298   7.514  11.808 -0.5912 -0.1983  0.1084
 9819TIP3    H153652   1.266   7.483  11.723 -1.4083 -1.4524  0.8256
 9819TIP3    H253653   1.218   7.535  11.857 -0.0978  1.3078  0.2931
 9820TIP3   OH253654   4.437   5.715  10.887  0.1181  0.4786 -0.3666
 9820TIP3    H153655   4.368   5.662  10.847 -0.6470  1.6706 -0.6819
 9820TIP3    H253656   4.518   5.673  10.860 -0.3526  1.2705 -3.3548
 9821TIP3   OH253657   3.426   2.274  12.131 -0.3374 -0.7782 -0.1710
 9821TIP3    H153658   3.371   2.340  12.173  1.0658  3.1603 -3.7565
 9821TIP3    H253659   3.365   2.217  12.084 -1.5494 -0.0892  0.5326
 9822TIP3   OH253660   5.704   4.549  11.975  0.1910  0.2492  0.1117
 9822TIP3    H153661   5.751   4.632  11.982 -0.5897  0.8943 -1.6885
 9822TIP3    H253662   5.613   4.574  11.959 -0.0664 -0.9490 -0.4220
 9823TIP3   OH253663   7.081   0.088  12.965  0.0726  0.1191 -0.0387
 9823TIP3    H153664   6.996   0.047  12.954  0.3689 -0.5516  0.1503
 9823TIP3    H253665   7.108   0.110  12.875  0.5299 -1.3772 -0.2978
 9824TIP3   OH253666   0.822   2.454  12.644 -0.2534  0.3528 -0.6900
 9824TIP3    H153667   0.827   2.381  12.583  0.6088  1.0629 -1.4912
 9824TIP3    H253668   0.814   2.413  12.730  0.8192 -0.6906 -1.0695
 9825TIP3   OH253669   0.028   2.337  11.672 -0.2550 -0.9307 -0.6051
 9825TIP3    H153670   0.093   2.389  11.625 -0.0677 -0.6952 -0.0977
 9825TIP3    H253671  -0.020   2.289  11.604  2.0800 -3.0620 -0.8881
 9826TIP3   OH253672   2.083   2.493  11.407 -0.2981 -0.2852 -0.1160
 9826TIP3    H153673   2.133   2.494  11.489 -1.4895 -0.1920  0.6364
 9826TIP3    H253674   2.067   2.585  11.387  1.1986 -0.2414 -1.2432
 9827TIP3   OH253675   5.966   2.329  10.780  0.4087 -0.3007 -0.8418
 9827TIP3    H153676   5.971   2.239  10.814  1.2257  0.5090  1.3378
 9827TIP3    H253677   5.918   2.320  10.698  1.0344 -2.8221 -1.0351
 9828TIP3   OH253678   5.515   7.667  13.067  0.2415 -0.0777 -0.1637
 9828TIP3    H153679   5.466   7.749  13.075  1.1332  0.3706  0.8292
 9828TIP3    H253680   5.447   7.601  13.052 -0.4036  1.0446 -3.1088
 9829TIP3   OH253681   0.108   6.232  11.676  0.1025 -0.5703  0.3462
 9829TIP3    H153682   0.127   6.326  11.672  0.7314 -0.6758  0.7890
 9829TIP3    H253683   0.060   6.214  11.595  1.0575 -0.1151 -0.3391
 9830TIP3   OH253684   6.945   7.520  11.419  0.2096  0.0845 -0.0167
 9830TIP3    H153685   7.022   7.497  11.471  1.1218  2.1758 -0.3360
 9830TIP3    H253686   6.936   7.615  11.430 -1.9430  0.0039 -0.5311
 9831TIP3   OH253687   5.423   1.260  12.575  0.2455  0.3804  0.4537
 9831TIP3    H153688   5.419   1.351  12.603 -1.6283  1.3589 -2.5733
 9831TIP3    H253689   5.510   1.251  12.537 -0.0658  1.3864 -0.5498
 9832TIP3   OH253690   2.315   1.941  11.902  0.0238  0.4087 -0.3497
 9832TIP3    H153691   2.284   1.856  11.934  1.3867  0.4460  1.1872
 9832TIP3    H253692   2.350   1.985  11.979  3.7069  0.4385 -1.8140
 9833TIP3   OH253693   7.340   2.572  12.079  0.4232 -0.1374 -0.4900
 9833TIP3    H153694   7.303   2.577  11.991  1.5179  1.5123 -0.8910
 9833TIP3    H253695   7.275   2.615  12.135  0.3028 -0.0586 -0.6892
 9834TIP3   OH253696   3.110   2.968  11.211 -0.2354 -0.5046  0.3182
 9834TIP3    H153697   3.115   2.913  11.133 -0.6910 -0.0772 -0.0133
 9834TIP3    H253698   3.061   3.045  11.184 -2.8679 -1.5660  1.7147
 9835TIP3   OH253699   3.703   0.965  10.916 -1.2609 -0.3205 -0.2661
 9835TIP3    H153700   3.761   0.936  10.987 -0.5941 -2.7004 -1.6746
 9835TIP3    H253701   3.753   0.947  10.836 -2.7674  0.4506 -1.4137
 9836TIP3   OH253702   1.253   0.100  12.980  0.0821  0.2506  0.2704
 9836TIP3    H153703   1.196   0.070  13.051 -0.9785  1.2997 -0.1172
 9836TIP3    H253704   1.193   0.133  12.913  1.0728 -0.4138 -0.9913
 9837TIP3   OH253705   3.903   5.735  11.608  0.0709  0.5207 -0.5512
 9837TIP3    H153706   3.883   5.699  11.522 -0.6383  0.0658 -0.2090
 9837TIP3    H253707   3.970   5.677  11.644  0.1875  0.5660 -0.6931
 9838TIP3   OH253708   6.306   2.295  11.903 -0.1307 -0.3210 -0.3965
 9838TIP3    H153709   6.279   2.329  11.988  0.6962 -0.8915  0.0993
 9838TIP3    H253710   6.226   2.299  11.850 -0.9287 -0.9608  0.7173
 9839TIP3   OH253711   4.973   4.285  11.709  0.5192  0.5972 -0.2943
 9839TIP3    H153712   4.912   4.249  11.645 -1.2654 -0.8550  2.0330
 9839TIP3    H253713   4.926   4.359  11.747 -0.4625 -1.1882  2.2929
 9840TIP3   OH253714   2.251   1.288  10.693  0.1465 -0.3295 -0.0718
 9840TIP3    H153715   2.242   1.310  10.601  1.0605 -0.6171 -0.2365
 9840TIP3    H253716   2.330   1.234  10.698  0.6684  0.4958  1.0062
 9841TIP3   OH253717   1.274   0.984  11.662 -0.3192  0.4540  0.1562
 9841TIP3    H153718   1.237   0.958  11.746  0.5421 -3.1685 -0.4348
 9841TIP3    H253719   1.318   1.067  11.680 -2.0119  0.9369  2.6753
 9842TIP3   OH253720   2.601   3.561  11.699 -0.2832 -0.4807 -0.1164
 9842TIP3    H153721   2.515   3.577  11.659 -0.0947 -0.0289 -0.3343
 9842TIP3    H253722   2.659   3.625  11.659 -0.1909  0.2952  1.2143
 9843TIP3   OH253723   4.901   5.763  12.429  0.3258  0.6300  0.1265
 9843TIP3    H153724   4.810   5.737  12.419  0.1720  0.9625  0.5735
 9843TIP3    H253725   4.942   5.691  12.476  0.1649  0.7087  0.3912
 9844TIP3   OH253726   6.589   2.114  12.370  0.0544  0.0427  0.3597
 9844TIP3    H153727   6.639   2.183  12.328  2.5576 -0.6263  2.0244
 9844TIP3    H253728   6.500   2.125  12.336  1.8097 -1.1055 -6.0144
 9845TIP3   OH253729   2.423   5.437  12.187 -0.1314  0.2726  0.1241
 9845TIP3    H153730   2.478   5.503  12.228 -0.3117  0.8589 -0.5454
 9845TIP3    H253731   2.346   5.486  12.157 -0.4227 -0.3029 -0.0792
 9846TIP3   OH253732   6.616   7.138  11.240 -0.2690 -1.1699 -0.1246
 9846TIP3    H153733   6.623   7.087  11.159 -1.3544 -0.3489 -0.7786
 9846TIP3    H253734   6.676   7.212  11.227 -1.0233 -0.6152 -0.5387
 9847TIP3   OH253735   2.337   0.806  12.137  0.0028 -0.3308  0.9253
 9847TIP3    H153736   2.341   0.854  12.220  1.3661  0.1340  0.6171
 9847TIP3    H253737   2.264   0.846  12.089 -0.1193  0.1074  1.4685
 9848TIP3   OH253738   7.260   4.866  12.187  0.2378 -0.1608  0.0955
 9848TIP3    H153739   7.335   4.831  12.138 -0.7359 -1.3508 -0.6028
 9848TIP3    H253740   7.240   4.798  12.252  0.0972  0.3886  0.6339
 9849TIP3   OH253741   3.551   3.315  10.808  1.0422 -0.2686  0.0159
 9849TIP3    H153742   3.625   3.347  10.757  0.6355  0.6801  0.0009
 9849TIP3    H253743   3.475   3.357  10.768  0.8084  1.5998  2.1769
 9850TIP3   OH253744   6.812   0.045  12.052  1.0181 -0.1703  0.5736
 9850TIP3    H153745   6.763   0.011  12.127  0.0773  0.2681  0.1605
 9850TIP3    H253746   6.830   0.136  12.074  1.0959 -0.1528  0.4383
 9851TIP3   OH253747   4.353   0.225  12.388 -0.0189 -0.1302 -0.6533
 9851TIP3    H153748   4.276   0.170  12.369 -0.4749  0.5990 -0.9505
 9851TIP3    H253749   4.333   0.309  12.348  0.4108  0.4544  0.3239
 9852TIP3   OH253750   2.801   0.035  13.254  0.1554 -0.2408 -0.3056
 9852TIP3    H153751   2.891   0.060  13.234 -0.0095 -1.1878 -2.4395
 9852TIP3    H253752   2.809  -0.045  13.305  0.5272 -0.5716 -0.8754
 9853TIP3   OH253753   3.410   1.766  12.579  0.2975 -0.3056  0.7975
 9853TIP3    H153754   3.390   1.739  12.668 -0.2961 -0.8668  0.5044
 9853TIP3    H253755   3.495   1.728  12.560 -0.4689 -1.9425  0.4337
 9854TIP3   OH253756   0.560   5.640  11.339  0.2370 -0.0253 -0.5214
 9854TIP3    H153757   0.477   5.593  11.347 -0.4277  1.0230 -0.9260
 9854TIP3    H253758   0.536   5.732  11.352  1.2948  0.3195 -0.9208
 9855TIP3   OH253759   2.157   4.471  10.412 -0.2424 -0.2673 -0.0737
 9855TIP3    H153760   2.077   4.524  10.412 -0.7972 -1.0827  0.4207
 9855TIP3    H253761   2.155   4.425  10.328 -1.6643 -2.2503  0.9609
 9856TIP3   OH253762   0.005   4.420  10.992 -0.0630 -0.0266 -0.0358
 9856TIP3    H153763  -0.040   4.369  11.060  0.0840 -1.5898 -1.0644
 9856TIP3    H253764  -0.056   4.490  10.971 -0.3745  0.1209  1.2677
 9857TIP3   OH253765   2.348   7.411  12.638  0.4244 -0.5723  0.1239
 9857TIP3    H153766   2.345   7.484  12.700 -1.9566  0.2506 -0.8776
 9857TIP3    H253767   2.385   7.339  12.689  1.0304  0.7873  1.6992
 9858TIP3   OH253768   2.314   4.938  11.892 -0.2005 -0.0086 -0.2662
 9858TIP3    H153769   2.316   4.843  11.907 -1.8810 -0.0614 -0.2784
 9858TIP3    H253770   2.222   4.961  11.894  0.2043  1.6957  0.0285
 9859TIP3   OH253771   6.209   6.291  11.867 -0.0866 -0.2575  0.5170
 9859TIP3    H153772   6.161   6.269  11.787 -2.6582  1.1069  1.5707
 9859TIP3    H253773   6.300   6.301  11.838 -0.7325 -0.8946 -1.9956
 9860TIP3   OH253774   2.463   2.804  12.441  0.6242 -0.2727  0.5280
 9860TIP3    H153775   2.432   2.893  12.428 -1.1283 -0.9622 -0.2912
 9860TIP3    H253776   2.394   2.761  12.491  1.0500 -1.4019  0.1934
 9861TIP3   OH253777   7.673   2.456  10.724  0.8690  0.0077  0.1996
 9861TIP3    H153778   7.625   2.479  10.803 -0.2437 -1.0669 -0.1212
 9861TIP3    H253779   7.646   2.521  10.659  0.2698 -0.2558  0.1800
 9862TIP3   OH253780   3.917   6.199  11.571  0.0117 -0.5212 -0.0641
 9862TIP3    H153781   3.974   6.270  11.599  0.2865 -0.1853 -1.4102
 9862TIP3    H253782   3.940   6.184  11.479 -1.5411 -0.8881 -0.4243
 9863TIP3   OH253783   3.006   1.591  11.264 -0.0880  0.2020 -0.0830
 9863TIP3    H153784   2.925   1.606  11.216 -0.7796  0.2930  1.0798
 9863TIP3    H253785   3.007   1.658  11.332 -0.4735 -1.5124  1.6947
 9864TIP3   OH253786   4.310   1.563  13.558 -0.3150  0.1728  0.5538
 9864TIP3    H153787   4.371   1.602  13.496  0.0430 -0.3228  0.5913
 9864TIP3    H253788   4.232   1.620  13.554  0.9618  2.1609  2.1545
 9865TIP3   OH253789   0.686   1.167  11.461  0.2435  0.6071 -0.7818
 9865TIP3    H153790   0.638   1.211  11.391 -1.1482 -0.4396 -0.5322
 9865TIP3    H253791   0.627   1.169  11.536  0.2154 -1.4163 -0.6944
 9866TIP3   OH253792   6.439   4.958  11.005  0.0671 -0.3129  0.1992
 9866TIP3    H153793   6.410   4.888  11.063 -0.8319  0.1862  0.3754
 9866TIP3    H253794   6.515   4.922  10.959  0.3217 -0.9938  1.1168
 9867TIP3   OH253795   5.662   1.442  12.470  0.6420 -0.5719 -0.3670
 9867TIP3    H153796   5.599   1.494  12.419  0.9746  2.9100  2.4012
 9867TIP3    H253797   5.727   1.416  12.405 -1.4121 -0.6471 -2.5640
 9868TIP3   OH253798   5.541   0.073  10.999  0.2530  0.1298 -0.0450
 9868TIP3    H153799   5.453   0.104  11.020 -0.7348 -0.8136 -2.4373
 9868TIP3    H253800   5.593   0.093  11.077 -1.8531  1.5360  1.0871
 9869TIP3   OH253801   4.717   1.748  11.358  0.0459  0.4355  1.0056
 9869TIP3    H153802   4.801   1.794  11.355  1.2640 -1.7261 -0.0477
 9869TIP3    H253803   4.724   1.688  11.432 -0.3034 -0.2151  0.5260
 9870TIP3   OH253804   6.683   0.329  11.971 -0.0868  0.1930 -0.0101
 9870TIP3    H153805   6.615   0.262  11.964  0.6076 -0.5300  0.0057
 9870TIP3    H253806   6.636   0.408  11.999 -1.1325  0.0901 -1.3557
 9871TIP3   OH253807   4.482   6.732  10.515  0.3612  0.3940 -0.3117
 9871TIP3    H153808   4.557   6.722  10.573 -0.2443 -0.5796  0.3441
 9871TIP3    H253809   4.495   6.667  10.446 -0.3501 -0.4823  0.3530
 9872TIP3   OH253810   3.817   0.499  12.165  0.0132  0.4290 -0.7415
 9872TIP3    H153811   3.816   0.406  12.141  0.2321  0.1611  0.2438
 9872TIP3    H253812   3.885   0.506  12.231 -0.1789  1.2476 -0.6189
 9873TIP3   OH253813   6.375   6.863  12.566  0.1079  0.4880  0.0240
 9873TIP3    H153814   6.386   6.850  12.471  2.7135  0.2637  0.2722
 9873TIP3    H253815   6.348   6.777  12.599  0.5313  0.2013 -0.3604
 9874TIP3   OH253816   3.597   2.658  12.524 -0.2673  0.4125  0.0653
 9874TIP3    H153817   3.535   2.605  12.474  0.6860 -0.0184 -0.6956
 9874TIP3    H253818   3.639   2.596  12.584 -0.0595  0.5576  0.0700
 9875TIP3   OH253819   6.988   6.758  12.326 -0.2137  0.6281 -0.3085
 9875TIP3    H153820   6.897   6.782  12.305 -1.0083 -1.4482  0.5866
 9875TIP3    H253821   6.997   6.777  12.419  0.2045  0.5703 -0.3354
 9876TIP3   OH253822   3.316   5.570  11.612 -0.2223  0.0534 -0.2193
 9876TIP3    H153823   3.225   5.568  11.641 -0.8199  0.6447 -1.9285
 9876TIP3    H253824   3.366   5.538  11.687 -1.4759  2.8851  2.0332
 9877TIP3   OH253825   0.520   0.916  11.221  0.4574 -0.2170 -0.2968
 9877TIP3    H153826   0.587   0.885  11.282  1.0292 -0.5311 -1.0600
 9877TIP3    H253827   0.504   0.841  11.164 -0.7648 -0.2336  0.0452
 9878TIP3   OH253828   5.672   6.690  11.698  0.1609  0.2039 -0.1479
 9878TIP3    H153829   5.750   6.733  11.731  0.2081 -0.3444  0.4628
 9878TIP3    H253830   5.599   6.734  11.743 -0.0154  1.7439 -1.8164
 9879TIP3   OH253831   1.768   4.606  12.246  0.3998 -0.5339 -0.0065
 9879TIP3    H153832   1.712   4.667  12.199  0.3209 -2.1147 -2.1039
 9879TIP3    H253833   1.790   4.651  12.327 -1.0288  1.5458 -0.7019
 9880TIP3   OH253834   2.894   4.511  10.587 -0.2490 -0.7552 -0.3165
 9880TIP3    H153835   2.982   4.485  10.558  0.0448 -1.3443  1.0295
 9880TIP3    H253836   2.908   4.590  10.638 -0.5108 -0.8369 -0.1203
 9881TIP3   OH253837   2.502   0.248  12.119 -0.6267 -0.0526  0.0225
 9881TIP3    H153838   2.553   0.315  12.164 -0.7897  0.9432 -1.2193
 9881TIP3    H253839   2.568   0.188  12.084 -0.3606  0.5103 -0.4669
 9882TIP3   OH253840   2.367   2.565  11.762 -0.4160  0.2207  0.1290
 9882TIP3    H153841   2.438   2.582  11.824 -1.2551  2.0023  0.6776
 9882TIP3    H253842   2.332   2.652  11.741 -1.4464 -0.4982 -1.3060
 9883TIP3   OH253843   1.931   4.653  10.482  0.2735 -0.7242 -0.8530
 9883TIP3    H153844   1.891   4.669  10.568  0.3361 -2.2207 -0.5088
 9883TIP3    H253845   1.947   4.740  10.446 -0.2049 -0.0695  0.4476
 9884TIP3   OH253846   0.332   2.961  11.056 -0.4891 -0.5637  0.0659
 9884TIP3    H153847   0.425   2.952  11.077 -0.5828 -0.9928  0.3102
 9884TIP3    H253848   0.320   2.909  10.976 -0.7378 -1.4430  0.6601
 9885TIP3   OH253849   4.723   7.608  11.421  0.3519  0.1373 -0.1562
 9885TIP3    H153850   4.771   7.675  11.373  1.2856  1.7650  2.7907
 9885TIP3    H253851   4.632   7.640  11.423  0.4338  0.3781 -0.3121
 9886TIP3   OH253852   2.581   4.695  11.322 -0.7500  0.1648  0.7043
 9886TIP3    H153853   2.500   4.744  11.309 -0.6959  0.5717  1.8298
 9886TIP3    H253854   2.615   4.726  11.406  1.0116  0.6313 -0.1229
 9887TIP3   OH253855   1.231   0.484  10.560 -0.4908  0.2292 -0.4076
 9887TIP3    H153856   1.213   0.400  10.517  0.9029  0.4435 -1.5098
 9887TIP3    H253857   1.145   0.516  10.586 -1.0976 -1.3359 -0.3352
 9888TIP3   OH253858   3.169   5.219  10.639  0.2334 -0.4408 -0.3992
 9888TIP3    H153859   3.114   5.215  10.561 -1.5983  0.5399  0.7731
 9888TIP3    H253860   3.117   5.178  10.708  0.7579  0.9196  0.8629
 9889TIP3   OH253861   0.369   2.624  11.894  0.1145  0.1352 -0.1131
 9889TIP3    H153862   0.449   2.676  11.880  0.0669 -0.3630 -2.7435
 9889TIP3    H253863   0.310   2.683  11.940  1.3839  1.1078  0.3332
 9890TIP3   OH253864   5.802   5.031  11.824 -0.4957 -0.2911  0.2256
 9890TIP3    H153865   5.725   5.046  11.878  1.1139  0.4833  2.4909
 9890TIP3    H253866   5.794   5.095  11.753 -0.7652  1.5522  1.8218
 9891TIP3   OH253867   7.014   0.973  12.448 -0.4958  0.0778 -0.5462
 9891TIP3    H153868   7.075   0.948  12.379 -1.2221 -2.7847 -0.2929
 9891TIP3    H253869   6.999   1.067  12.434  2.1052  0.3660 -2.0170
 9892TIP3   OH253870   3.408   4.146  11.589 -0.4539  0.3779  0.2291
 9892TIP3    H153871   3.471   4.209  11.555  1.5841 -1.5132  0.2276
 9892TIP3    H253872   3.323   4.176  11.556  0.7182  1.7948 -1.6936
 9893TIP3   OH253873   0.030   0.259  10.793 -0.0153  0.4485 -0.3307
 9893TIP3    H153874  -0.043   0.224  10.741 -0.2160 -0.6329  0.6468
 9893TIP3    H253875   0.025   0.354  10.779  1.6253  0.1462 -4.4761
 9894TIP3   OH253876   0.609   0.411  11.009 -0.1032  0.3012 -0.0169
 9894TIP3    H153877   0.524   0.367  11.001  0.8422 -1.7690  0.5820
 9894TIP3    H253878   0.655   0.387  10.928 -0.6473  2.8305 -1.1484
 9895TIP3   OH253879   3.142   0.419  10.766 -0.0564 -0.2805  0.1546
 9895TIP3    H153880   3.054   0.449  10.743 -0.5790 -1.6833  0.2417
 9895TIP3    H253881   3.147   0.431  10.861 -0.0817 -0.0440  0.1279
 9896TIP3   OH253882   1.588   6.092  11.098  0.4123 -0.0993 -0.0036
 9896TIP3    H153883   1.518   6.139  11.144 -1.2001  0.0508 -2.4107
 9896TIP3    H253884   1.665   6.148  11.109 -0.8596  1.9180 -0.7011
 9897TIP3   OH253885   5.195   7.659  10.783  0.1497 -0.0837 -0.6065
 9897TIP3    H153886   5.169   7.597  10.715 -0.6657 -0.1615 -0.2382
 9897TIP3    H253887   5.246   7.607  10.846 -2.5564 -1.0192  0.9833
 9898TIP3   OH253888   7.426   4.111  12.879  0.1241  0.8941 -0.4626
 9898TIP3    H153889   7.417   4.046  12.949 -0.5391  2.0952  0.6012
 9898TIP3    H253890   7.339   4.151  12.871 -0.2683 -0.2520 -3.0726
 9899TIP3   OH253891   0.205   2.229  11.878  0.6161 -0.1243  0.1202
 9899TIP3    H153892   0.266   2.214  11.806  0.0463 -2.6124  0.0684
 9899TIP3    H253893   0.124   2.257  11.836  0.4355 -1.0821 -0.1909
 9900TIP3   OH253894   6.899   7.024  13.637  0.2540 -0.5100  0.0556
 9900TIP3    H153895   6.857   6.986  13.714 -3.1365  2.8995  0.2171
 9900TIP3    H253896   6.958   7.091  13.672 -1.2870  1.0406 -0.1477
 9901TIP3   OH253897   3.498   3.535  13.036  0.6146  0.1140 -0.0502
 9901TIP3    H153898   3.423   3.595  13.040 -0.1239 -0.5770 -2.0520
 9901TIP3    H253899   3.570   3.584  13.076 -0.2764  1.8350 -0.4435
 9902TIP3   OH253900   3.888   1.256  11.525  0.1578 -0.0351 -0.0250
 9902TIP3    H153901   3.816   1.198  11.498 -1.4654  1.1234  1.5500
 9902TIP3    H253902   3.894   1.321  11.456 -0.3970 -0.0738 -0.1139
 9903TIP3   OH253903   5.040   0.385  12.032  0.1830 -0.5146  0.1693
 9903TIP3    H153904   5.027   0.366  11.939  0.9174  0.0999 -0.0705
 9903TIP3    H253905   5.067   0.476  12.034 -0.2988 -0.3795  1.0380
 9904TIP3   OH253906   1.038   5.250  11.357 -0.4283 -0.6693 -0.3041
 9904TIP3    H153907   0.998   5.183  11.301 -0.9983 -1.2707  0.8001
 9904TIP3    H253908   1.033   5.330  11.305 -2.9786 -0.7392 -0.2896
 9905TIP3   OH253909   5.712   7.260  13.348  0.1461 -0.0385  0.7101
 9905TIP3    H153910   5.716   7.351  13.318 -0.3636 -0.3668 -0.4313
 9905TIP3    H253911   5.804   7.234  13.354  0.2859  0.2943  0.1781
 9906TIP3   OH253912   3.042   5.254  11.118 -0.9502  0.1053 -0.2167
 9906TIP3    H153913   2.970   5.298  11.163 -0.0828  0.6012  0.7069
 9906TIP3    H253914   3.086   5.203  11.186 -0.4338 -0.2181 -0.7815
 9907TIP3   OH253915   0.069   1.253  13.563 -0.1794 -0.0031  0.4908
 9907TIP3    H153916   0.114   1.172  13.589 -0.8505 -0.1951  1.0978
 9907TIP3    H253917   0.102   1.319  13.624  0.3638  0.1897 -0.0014
 9908TIP3   OH253918   1.497   3.332  10.702  0.0623  0.4406  0.7324
 9908TIP3    H153919   1.501   3.405  10.764 -0.4910  2.2906 -1.3042
 9908TIP3    H253920   1.411   3.339  10.661  0.6484 -0.3072 -0.7122
 9909TIP3   OH253921   1.846   3.745  12.060  0.0254 -0.4886  0.0470
 9909TIP3    H153922   1.919   3.712  12.112  0.4849  1.0095  0.3899
 9909TIP3    H253923   1.829   3.676  11.996  0.8681 -1.4244  0.7970
 9910TIP3   OH253924   3.840   6.504  12.280  0.0694  0.6266 -0.6872
 9910TIP3    H153925   3.796   6.464  12.355 -0.5289  0.7365 -0.9745
 9910TIP3    H253926   3.771   6.517  12.215  0.6068  0.3827 -1.3254
 9911TIP3   OH253927   5.869   7.229  12.880 -0.3012  0.7819 -0.5690
 9911TIP3    H153928   5.892   7.270  12.963 -2.1017  1.6832 -0.4597
 9911TIP3    H253929   5.805   7.162  12.903  0.6524 -0.3138 -1.0430
 9912TIP3   OH253930   4.943   5.116  13.260 -0.6943 -0.9628 -0.4608
 9912TIP3    H153931   4.923   5.033  13.216 -1.1640 -0.0243 -2.0640
 9912TIP3    H253932   4.976   5.089  13.346 -0.6481 -2.8152 -1.0101
 9913TIP3   OH253933   7.411   7.443  11.170  0.3710  0.0933  0.0057
 9913TIP3    H153934   7.364   7.514  11.127  1.0883  0.1403 -0.7220
 9913TIP3    H253935   7.478   7.487  11.223 -0.1816  0.0138  0.7865
 9914TIP3   OH253936   4.837   3.173  10.949  0.1656  0.4362  0.0799
 9914TIP3    H153937   4.875   3.243  11.002 -0.2376  0.5099  0.2768
 9914TIP3    H253938   4.826   3.100  11.010  1.0663  0.0165 -0.2405
 9915TIP3   OH253939   0.250   0.642  11.125 -0.0767 -1.0161  0.7700
 9915TIP3    H153940   0.333   0.620  11.168  0.8024  0.3711 -0.1245
 9915TIP3    H253941   0.209   0.706  11.183 -0.9244 -2.2385  1.5821
 9916TIP3   OH253942   3.395   5.806  10.510  0.2577  0.2297 -0.6346
 9916TIP3    H153943   3.435   5.835  10.592  1.8921  0.3736 -1.4396
 9916TIP3    H253944   3.363   5.886  10.469  0.8901  0.3610 -0.8747
 9917TIP3   OH253945   2.168   5.918  13.314 -0.1964  0.1728 -0.0857
 9917TIP3    H153946   2.136   5.847  13.368  2.3815 -0.6553  0.5050
 9917TIP3    H253947   2.120   5.995  13.344 -1.5989 -0.9461  0.6377
 9918TIP3   OH253948   0.363   5.383  11.894  0.2737  0.3794  0.4504
 9918TIP3    H153949   0.377   5.400  11.801  1.3859  1.5784  0.7977
 9918TIP3    H253950   0.337   5.291  11.899  0.7020  0.1645 -0.9929
 9919TIP3   OH253951   0.942   1.904  12.808  0.3733  0.0331 -0.2925
 9919TIP3    H153952   0.925   1.888  12.901  0.9131  0.3257 -0.1328
 9919TIP3    H253953   1.038   1.898  12.801  0.3114 -0.2525 -0.8811
 9920TIP3   OH253954   7.573   4.593  12.335  0.2021  0.3477  0.1748
 9920TIP3    H153955   7.484   4.591  12.370 -0.0796 -1.6920 -0.5407
 9920TIP3    H253956   7.566   4.642  12.253  0.0952  1.6016  0.9021
 9921TIP3   OH253957   3.937   4.261  12.202  0.0934 -0.0617  0.6934
 9921TIP3    H153958   3.902   4.318  12.270 -0.6347 -0.7983  0.9524
 9921TIP3    H253959   3.859   4.224  12.160  0.5354 -1.7869  1.3212
 9922TIP3   OH253960   6.342   5.168  11.218 -0.4991 -0.4197  0.3169
 9922TIP3    H153961   6.285   5.214  11.156 -0.5281 -1.6927 -0.6475
 9922TIP3    H253962   6.366   5.087  11.173 -0.0766 -1.1401  1.7660
 9923TIP3   OH253963   1.625   0.885  11.187  0.4717 -0.4802 -0.1747
 9923TIP3    H153964   1.559   0.852  11.127  2.3165 -1.8532 -1.5504
 9923TIP3    H253965   1.631   0.979  11.167 -0.5426 -0.4725 -0.5010
 9924TIP3   OH253966   4.065   1.218  11.728 -0.2418 -0.2831 -0.1423
 9924TIP3    H153967   4.005   1.234  11.656 -0.2243 -2.2216 -0.6576
 9924TIP3    H253968   4.041   1.131  11.760  1.2617 -0.4336  0.6644
 9925TIP3   OH253969   0.806   2.769  12.374 -0.1590  0.2525  0.2438
 9925TIP3    H153970   0.791   2.691  12.319  0.7430 -0.0923  0.4615
 9925TIP3    H253971   0.745   2.759  12.447  0.3440 -0.5677  0.5714
 9926TIP3   OH253972   6.948   1.733  12.591 -0.1764 -0.0198  0.2096
 9926TIP3    H153973   6.966   1.818  12.632  1.1450  0.0082 -0.3824
 9926TIP3    H253974   7.028   1.682  12.605 -0.4265 -0.6740 -0.6544
 9927TIP3   OH253975   4.038   0.963  12.882 -0.1237  0.1558 -0.1565
 9927TIP3    H153976   4.093   0.913  12.823  0.1612  1.5140 -1.1001
 9927TIP3    H253977   4.032   1.050  12.842 -1.0206  0.7352  1.1336
 9928TIP3   OH253978   3.243   5.466  10.821 -0.1637 -0.0085  0.7482
 9928TIP3    H153979   3.258   5.424  10.905 -0.5497 -0.9824  0.3414
 9928TIP3    H253980   3.180   5.409  10.776 -2.8788  2.3380  1.2258
 9929TIP3   OH253981   3.040   5.747  11.498 -0.3383  0.5126 -0.0416
 9929TIP3    H153982   3.061   5.676  11.437 -0.3984 -0.9743  1.5790
 9929TIP3    H253983   3.124   5.771  11.536 -0.5335  0.0692  0.6848
 9930TIP3   OH253984   7.436   1.561  10.879  0.4334 -0.8565 -0.3645
 9930TIP3    H153985   7.495   1.488  10.858  0.6680 -0.4232 -1.2602
 9930TIP3    H253986   7.493   1.628  10.916  0.0703 -1.4845  1.4210
 9931TIP3   OH253987   5.970   5.287  11.917 -0.4605  0.6260  0.1436
 9931TIP3    H153988   5.965   5.282  12.012  0.6529 -3.1609  0.1970
 9931TIP3    H253989   6.035   5.221  11.893  0.4752  2.5376 -3.2107
 9932TIP3   OH253990   0.029   5.222  12.892 -0.1880  0.1109 -0.5093
 9932TIP3    H153991  -0.009   5.152  12.944 -0.9741  2.6985  2.6713
 9932TIP3    H253992  -0.041   5.249  12.832 -0.9860  0.2728  0.4809
 9933TIP3   OH253993   4.704   1.306  11.686  0.1608  0.1249  0.0572
 9933TIP3    H153994   4.671   1.274  11.770 -0.2841  1.1153  0.2833
 9933TIP3    H253995   4.651   1.262  11.620 -0.2945  0.2332  0.3482
 9934TIP3   OH253996   5.012   1.176  12.750  0.5236  0.4356  0.2453
 9934TIP3    H153997   5.085   1.236  12.770  1.1559 -0.4686  0.7247
 9934TIP3    H253998   5.036   1.136  12.667  0.5725  0.1376  0.4037
 9935TIP3   OH253999   7.072   3.463  10.824 -0.4780 -0.0250 -0.2663
 9935TIP3    H154000   7.057   3.379  10.781 -0.4607  0.2061 -0.7290
 9935TIP3    H254001   7.064   3.444  10.917  0.1714 -0.6653 -0.3379
 9936TIP3   OH254002   1.917   3.177  10.171 -0.3536  0.5895 -0.3487
 9936TIP3    H154003   1.910   3.171  10.076 -0.4402  1.1110 -0.3778
 9936TIP3    H254004   1.885   3.265  10.192  1.5059  1.2324 -0.0205
 9937TIP3   OH254005   0.151   7.211  10.679  0.2034 -0.1254 -0.3307
 9937TIP3    H154006   0.236   7.170  10.661  0.0957  0.2457 -1.7698
 9937TIP3    H254007   0.141   7.277  10.610 -0.0375  1.7349  1.3785
 9938TIP3   OH254008   0.512   2.105  13.219  0.0567 -0.0382 -0.5854
 9938TIP3    H154009   0.522   2.200  13.222  1.0643 -0.1481  0.3038
 9938TIP3    H254010   0.482   2.081  13.307  0.1088 -0.5581 -0.7050
 9939TIP3   OH254011   1.229   1.214  11.390 -0.0898 -0.2623  0.2751
 9939TIP3    H154012   1.309   1.232  11.340  0.0858  0.4818  0.8024
 9939TIP3    H254013   1.163   1.271  11.349  0.2238  0.8870  1.3132
 9940TIP3   OH254014   0.464   1.313  10.703  0.5741  0.2880 -0.4845
 9940TIP3    H154015   0.555   1.299  10.731 -0.0021  1.1872  2.1236
 9940TIP3    H254016   0.459   1.407  10.686  0.0402  0.2981 -0.2699
 9941TIP3   OH254017   0.253   4.655  12.461 -0.4011  0.4088 -0.3628
 9941TIP3    H154018   0.253   4.724  12.395  0.6566 -0.4419 -1.2999
 9941TIP3    H254019   0.279   4.576  12.413  0.0555 -0.3068  1.0063
 9942TIP3   OH254020   4.898   6.448  13.481  0.3017 -0.1015 -0.4284
 9942TIP3    H154021   4.920   6.357  13.461 -1.8316 -0.8858  0.5590
 9942TIP3    H254022   4.807   6.446  13.509  0.6808  2.1104  1.2387
 9943TIP3   OH254023   2.993   1.952  11.686  0.0010  0.6555  0.7157
 9943TIP3    H154024   2.918   1.922  11.737 -0.3970 -0.3880 -0.4604
 9943TIP3    H254025   3.014   1.880  11.627  0.1728  1.9619 -0.9155
 9944TIP3   OH254026   1.668   0.343  11.856  0.0155 -0.0698 -0.1999
 9944TIP3    H154027   1.654   0.248  11.856  1.4892 -0.3091 -0.2875
 9944TIP3    H254028   1.738   0.357  11.793  0.5944  0.9467  0.6338
 9945TIP3   OH254029   1.666   3.464  12.105 -0.7306  0.5921  0.1241
 9945TIP3    H154030   1.635   3.487  12.193  0.3954  1.7983  0.2268
 9945TIP3    H254031   1.740   3.406  12.120  1.2784  3.0024  0.1240
 9946TIP3   OH254032   5.633   1.833  10.864 -0.0183  0.0985  0.3345
 9946TIP3    H154033   5.608   1.816  10.774  1.0571 -0.3680  0.1121
 9946TIP3    H254034   5.668   1.750  10.896 -0.6656  0.1751  1.2762
 9947TIP3   OH254035   2.443   6.765  10.723 -1.0300  0.2663 -0.6140
 9947TIP3    H154036   2.421   6.832  10.658 -0.2384  0.6635 -0.4768
 9947TIP3    H254037   2.358   6.733  10.754 -1.4127  0.9918 -0.8974
 9948TIP3   OH254038   1.079   1.676  13.198 -0.0375 -0.4816 -0.2976
 9948TIP3    H154039   1.150   1.612  13.196  0.5848  0.2209 -1.1952
 9948TIP3    H254040   1.017   1.640  13.263  1.6574 -0.5197  1.3997
 9949TIP3   OH254041   5.292   2.963  11.273  0.0243 -0.7273 -0.7417
 9949TIP3    H154042   5.384   2.937  11.280 -0.0737 -0.7016  1.4525
 9949TIP3    H254043   5.286   3.043  11.325 -1.3378 -1.0880 -0.2902
 9950TIP3   OH254044   3.931   2.277  13.202  0.5583  0.4876 -0.0846
 9950TIP3    H154045   4.021   2.248  13.220  0.3235 -0.3076 -0.1624
 9950TIP3    H254046   3.877   2.202  13.224 -0.0309  0.7095 -0.7471
 9951TIP3   OH254047   6.044   1.337  12.027 -0.0073  0.0667  0.0267
 9951TIP3    H154048   6.090   1.318  11.946 -1.6364 -1.2628 -0.6339
 9951TIP3    H254049   5.982   1.406  12.004 -0.4382 -0.2763  0.1366
 9952TIP3   OH254050   2.634   2.136  11.567  0.3299 -0.5226 -0.0006
 9952TIP3    H154051   2.566   2.125  11.501  0.1562 -1.6540  0.3321
 9952TIP3    H254052   2.688   2.207  11.535 -0.2669 -0.4620 -0.9100
 9953TIP3   OH254053   4.960   5.541  11.759 -0.0012  0.0968  0.1106
 9953TIP3    H154054   4.910   5.600  11.816  1.0463  1.1889 -0.0312
 9953TIP3    H254055   5.024   5.501  11.818  0.1512  0.1316 -0.0306
 9954TIP3   OH254056   6.546   5.623  11.728 -0.8604  0.4782 -0.4605
 9954TIP3    H154057   6.459   5.585  11.720 -0.3883 -1.3573  1.8477
 9954TIP3    H254058   6.585   5.612  11.642 -2.4580  0.1642 -1.1810
 9955TIP3   OH254059   6.119   2.568  11.233  0.9152 -0.1925  0.2839
 9955TIP3    H154060   6.154   2.480  11.250  0.4911 -0.6149 -0.9664
 9955TIP3    H254061   6.091   2.566  11.142 -2.0120  0.2461  1.0691
 9956TIP3   OH254062   1.925   3.255  11.345 -0.1428 -0.5853 -0.1219
 9956TIP3    H154063   1.985   3.306  11.400 -0.1923 -1.2445  0.5502
 9956TIP3    H254064   1.841   3.298  11.354  0.2029  0.3243 -1.0375
 9957TIP3   OH254065   0.755   4.961  13.066  0.0138 -0.6122 -0.1863
 9957TIP3    H154066   0.733   4.900  13.136  0.2582 -0.0107  0.4157
 9957TIP3    H254067   0.681   5.022  13.063  1.6958  1.7592  2.2137
 9958TIP3   OH254068   1.978   6.786  11.775  0.3750 -0.4884 -0.2441
 9958TIP3    H154069   2.067   6.820  11.776 -0.0712  0.7156  1.0834
 9958TIP3    H254070   1.929   6.847  11.719  0.4147 -1.2994 -1.1964
 9959TIP3   OH254071   1.096   3.120  12.225  0.5487 -0.0186  0.5927
 9959TIP3    H154072   1.137   3.162  12.301  0.7661 -0.5892  0.8007
 9959TIP3    H254073   1.014   3.085  12.258 -1.4498  3.3147 -0.3943
 9960TIP3   OH254074   4.002   5.734  12.213  0.3991  0.1433  0.2873
 9960TIP3    H154075   3.959   5.768  12.291  0.0187 -0.5065  0.3734
 9960TIP3    H254076   3.948   5.658  12.187 -1.5441  2.2870 -2.6150
 9961TIP3   OH254077   0.451   4.244  12.536  0.0348  0.3317  0.4612
 9961TIP3    H154078   0.514   4.308  12.504  0.4902  0.4023  1.4685
 9961TIP3    H254079   0.367   4.289  12.534  0.2379  0.7084  0.4492
 9962TIP3   OH254080   5.359   6.176  12.980  0.4555 -0.2859  0.1683
 9962TIP3    H154081   5.303   6.222  12.918 -0.1331 -0.0839  0.8439
 9962TIP3    H254082   5.418   6.244  13.013  0.5271 -0.3212  0.1161
 9963TIP3   OH254083   4.188   5.101  11.815  0.3069 -0.2837  0.3355
 9963TIP3    H154084   4.143   5.158  11.753 -0.2635  0.5168  1.4571
 9963TIP3    H254085   4.208   5.022  11.765 -1.0813 -0.0893 -0.5770
 9964TIP3   OH254086   6.644   1.818  12.833  0.0769  0.7118  0.3625
 9964TIP3    H154087   6.557   1.808  12.871  0.5774 -0.3784  1.2741
 9964TIP3    H254088   6.682   1.891  12.882  0.2503  0.1424  1.0979
 9965TIP3   OH254089   3.495   7.512  11.241  0.2021 -0.1129 -0.0733
 9965TIP3    H154090   3.482   7.593  11.191 -0.0087  0.4950  0.9340
 9965TIP3    H254091   3.549   7.457  11.184  1.6209  1.3207 -0.1708
 9966TIP3   OH254092   6.620   1.759  11.657  0.3894  0.1915 -0.7229
 9966TIP3    H154093   6.666   1.837  11.626  1.6323 -0.4846 -0.6161
 9966TIP3    H254094   6.687   1.707  11.700 -0.7570 -0.1797  0.6829
 9967TIP3   OH254095   4.375   7.006  11.993  0.1075  0.0049  0.0533
 9967TIP3    H154096   4.342   7.095  12.000 -1.3953 -0.3432 -1.7868
 9967TIP3    H254097   4.460   7.015  11.950 -0.3375  0.5305 -0.7474
 9968TIP3   OH254098   4.199   6.708  11.631  0.5685  0.0038 -0.9196
 9968TIP3    H154099   4.195   6.793  11.674  0.0159 -0.1837 -0.5939
 9968TIP3    H254100   4.175   6.725  11.540 -0.9460 -0.0150 -0.5431
 9969TIP3   OH254101   0.956   5.641  12.262  0.7801 -0.2288 -0.4167
 9969TIP3    H154102   0.979   5.565  12.208  2.0959 -1.7601  2.0572
 9969TIP3    H254103   1.039   5.686  12.276  0.3294  0.5853 -0.3256
 9970TIP3   OH254104   4.590   0.796  11.206  0.0024 -0.3471  0.2564
 9970TIP3    H154105   4.517   0.742  11.176 -0.8643  0.5400  0.6948
 9970TIP3    H254106   4.604   0.858  11.135  0.4206 -0.6052  0.1153
 9971TIP3   OH254107   2.130   6.197  13.344 -0.1349  0.4160  0.3596
 9971TIP3    H154108   2.084   6.189  13.260 -1.3361  0.5800  0.9737
 9971TIP3    H254109   2.062   6.182  13.409  0.6188  1.0691  1.3190
 9972TIP3   OH254110   3.190   0.988  11.050  0.4599 -0.1511 -0.1297
 9972TIP3    H154111   3.181   0.930  10.974 -0.9184  0.4146 -0.4362
 9972TIP3    H254112   3.263   0.952  11.100  1.1622 -0.7516 -1.5374
 9973TIP3   OH254113   6.745   1.768  12.394 -0.5413  0.1008 -0.2013
 9973TIP3    H154114   6.825   1.733  12.433 -0.7667 -0.7240 -0.4683
 9973TIP3    H254115   6.714   1.699  12.335 -1.1391  0.6402 -0.5340
 9974TIP3   OH254116   3.908   3.053  12.907  0.0396  0.6668  0.1529
 9974TIP3    H154117   3.894   3.103  12.987  2.3656  0.4374  0.7784
 9974TIP3    H254118   3.827   3.063  12.857 -0.4755  3.0110  1.3392
 9975TIP3   OH254119   1.841   0.211  11.030 -0.2205 -0.0832  0.3014
 9975TIP3    H154120   1.913   0.207  10.968 -0.0222 -1.6055  0.5792
 9975TIP3    H254121   1.836   0.302  11.056 -0.7682  0.7848 -2.4724
 9976TIP3   OH254122   7.256   0.423  11.377 -0.0202  0.5397  0.1341
 9976TIP3    H154123   7.167   0.405  11.347  0.1884 -0.9372  0.3494
 9976TIP3    H254124   7.306   0.436  11.296  0.1315 -1.4664 -0.1516
 9977TIP3   OH254125   3.525   1.617  12.260 -0.0056  1.1552  0.7121
 9977TIP3    H154126   3.545   1.530  12.295 -0.1953  0.3936 -0.9702
 9977TIP3    H254127   3.576   1.623  12.179 -1.1559  2.0057  0.0209
 9978TIP3   OH254128   0.341   0.621  12.833  0.0133 -0.1495 -0.2374
 9978TIP3    H154129   0.345   0.716  12.822  2.7262 -0.2049 -0.4456
 9978TIP3    H254130   0.307   0.608  12.921  0.1178  1.0395 -0.0074
 9979TIP3   OH254131   5.357   2.013  10.764 -0.4024  0.4595 -0.1456
 9979TIP3    H154132   5.374   2.107  10.769 -1.1570  0.6008 -0.0666
 9979TIP3    H254133   5.400   1.985  10.683 -0.9067  1.0435 -0.6290
 9980TIP3   OH254134   2.730   0.357  11.880  0.0979  0.5926  0.0208
 9980TIP3    H154135   2.749   0.448  11.906  1.4297  0.5581 -0.7068
 9980TIP3    H254136   2.814   0.312  11.889  0.3337  0.2539 -2.8130
 9981TIP3   OH254137   5.588   5.838  11.859  0.1118 -0.2611 -0.0875
 9981TIP3    H154138   5.503   5.878  11.879 -0.6099 -2.1759  0.8548
 9981TIP3    H254139   5.568   5.771  11.793  1.3715  1.0667 -1.9394
 9982TIP3   OH254140   4.155   2.277  11.707 -0.2523 -0.9139  0.2755
 9982TIP3    H154141   4.078   2.322  11.673 -0.0068 -1.1521 -0.6217
 9982TIP3    H254142   4.122   2.192  11.735 -0.4693 -0.6897  0.7098
 9983TIP3   OH254143   5.102   1.965  11.782 -0.2952  0.5057 -0.1631
 9983TIP3    H154144   5.021   1.916  11.768 -0.1511  0.1705  0.1543
 9983TIP3    H254145   5.129   1.993  11.695 -0.0928 -0.4468 -0.4197
 9984TIP3   OH254146   3.262   5.862  11.240  0.6497  0.1747  0.5384
 9984TIP3    H154147   3.353   5.874  11.213  0.1923 -1.8133 -2.3181
 9984TIP3    H254148   3.218   5.941  11.209  1.3502  1.2791  2.1752
 9985TIP3   OH254149   5.494   7.122  12.652  0.4547 -0.1120 -0.3021
 9985TIP3    H154150   5.550   7.070  12.594  1.0301  1.2154 -0.9951
 9985TIP3    H254151   5.405   7.096  12.629  0.7143 -0.4523 -0.9671
 9986TIP3   OH254152   2.054   7.204  11.696 -0.2621  0.1691  0.3916
 9986TIP3    H154153   2.107   7.170  11.623  0.4645  1.0375  0.4871
 9986TIP3    H254154   2.046   7.130  11.756  2.0526  0.3334  1.0318
 9987TIP3   OH254155   3.886   2.864  11.001  0.0947 -0.2274 -0.2368
 9987TIP3    H154156   3.917   2.842  10.913  1.4116 -0.7787  0.3326
 9987TIP3    H254157   3.887   2.781  11.049  0.2346  0.2039  0.5327
 9988TIP3   OH254158   6.485   5.119  12.533 -0.3057  0.3358 -0.0699
 9988TIP3    H154159   6.390   5.118  12.527 -0.3497 -2.3361 -0.2795
 9988TIP3    H254160   6.513   5.180  12.465 -1.8508  0.8224 -0.3064
 9989TIP3   OH254161   5.509   2.100  12.050  0.0997 -0.1955  0.2030
 9989TIP3    H154162   5.442   2.116  11.984 -1.1411 -1.0813  1.1812
 9989TIP3    H254163   5.516   2.182  12.098  0.1234  0.0812 -0.2747
 9990TIP3   OH254164   1.597   4.392  13.116  0.4411  0.3165  0.0665
 9990TIP3    H154165   1.577   4.484  13.101 -2.3017 -0.2012 -0.0140
 9990TIP3    H254166   1.546   4.345  13.051  0.5848 -1.3256  1.0802
 9991TIP3   OH254167   4.257   2.682  12.207 -0.5034 -0.6755 -0.6176
 9991TIP3    H154168   4.182   2.663  12.264 -1.8794  0.9763 -1.7570
 9991TIP3    H254169   4.332   2.644  12.252 -1.8685 -1.4611  1.1136
 9992TIP3   OH254170   3.807   6.083  10.781 -0.1999 -0.4087  0.5753
 9992TIP3    H154171   3.782   6.174  10.766 -0.8432 -0.6407  0.1944
 9992TIP3    H254172   3.726   6.033  10.771  0.1151 -1.0108  0.9256
 9993TIP3   OH254173   2.955   1.939  11.276  0.2943 -0.1502 -0.0347
 9993TIP3    H154174   2.897   1.884  11.328 -0.2196  0.1443 -0.2825
 9993TIP3    H254175   2.906   2.021  11.265  0.1466 -0.4029 -1.4424
 9994TIP3   OH254176   0.875   1.161  12.710 -0.0326  0.4726 -0.5761
 9994TIP3    H154177   0.945   1.108  12.673  0.1441  0.8788 -0.8305
 9994TIP3    H254178   0.814   1.098  12.748  1.5894  0.1522  1.7283
 9995TIP3   OH254179   2.869   2.856  10.836  0.0432 -0.4860 -0.0228
 9995TIP3    H154180   2.810   2.910  10.889  0.3934 -0.4621  0.3526
 9995TIP3    H254181   2.906   2.916  10.771  0.0653 -0.3798  0.0889
 9996TIP3   OH254182   4.022   3.000  11.244  0.5120 -0.2359  0.6717
 9996TIP3    H154183   4.046   2.929  11.303  1.5099  0.7429  1.4890
 9996TIP3    H254184   3.989   2.956  11.165  0.4617 -1.5756  1.4181
 9997TIP3   OH254185   5.746   3.454  11.978 -0.4079  0.1207  0.4641
 9997TIP3    H154186   5.764   3.376  12.030 -0.4582 -0.3387 -0.1906
 9997TIP3    H254187   5.652   3.470  11.990 -0.4007  0.0729  0.5852
 9998TIP3   OH254188   7.001   1.385  10.869 -0.1427 -0.1749  0.1338
 9998TIP3    H154189   6.950   1.464  10.852  0.1390  0.1147  0.6120
 9998TIP3    H254190   6.942   1.313  10.848 -0.2440  0.1554 -0.7743
 9999TIP3   OH254191   2.260   0.068  11.282 -0.1185  0.1102 -0.1022
 9999TIP3    H154192   2.287   0.150  11.325  0.2282 -0.6500  1.1902
 9999TIP3    H254193   2.167   0.060  11.303  0.0055 -0.1647  0.3404
10000TIP3   OH254194   0.854   3.417  10.482  0.4049 -0.5859  0.0185
10000TIP3    H154195   0.921   3.416  10.413  0.8459 -0.4091  0.4410
10000TIP3    H254196   0.831   3.509  10.493 -1.1859 -0.7681 -1.3307
10001TIP3   OH254197   3.054   6.132  11.547  0.4363  0.5710 -0.8466
10001TIP3    H154198   2.999   6.090  11.481 -0.1736 -0.5068  0.3151
10001TIP3    H254199   3.124   6.069  11.564 -0.5986 -0.1493  1.0610
10002TIP3   OH254200   3.002   3.813  10.529 -0.0894  0.0076 -0.6279
10002TIP3    H154201   2.943   3.831  10.455 -1.3961  0.2986  0.4331
10002TIP3    H254202   3.053   3.893  10.538 -0.0352  0.0345 -1.1095
10003TIP3   OH254203   1.357   4.611  12.122 -0.1611  0.1224 -0.2607
10003TIP3    H154204   1.418   4.549  12.082  1.6989  1.6640  0.0264
10003TIP3    H254205   1.372   4.602  12.216  0.4973  1.3366 -0.2355
10004TIP3   OH254206   6.943   4.651  12.777  0.1491  1.0541 -0.5036
10004TIP3    H154207   7.033   4.662  12.808  0.4953 -2.2504  0.0949
10004TIP3    H254208   6.889   4.673  12.852  0.5935  0.9548 -0.1463
10005TIP3   OH254209   7.212   2.060  11.876  0.1840  0.5267 -0.7315
10005TIP3    H154210   7.139   2.048  11.936  1.6385 -1.0736  0.8480
10005TIP3    H254211   7.237   1.972  11.850  2.0038  0.9674 -0.6282
10006TIP3   OH254212   1.157   6.331  12.796  0.3875  0.3980 -0.2944
10006TIP3    H154213   1.114   6.252  12.764 -1.1814  1.0599  0.0682
10006TIP3    H254214   1.162   6.319  12.891  2.0624 -0.1496 -0.4240
10007TIP3   OH254215   0.994   6.656  12.177 -0.1258  0.4374  0.1024
10007TIP3    H154216   0.965   6.661  12.086 -0.2315  0.3764  0.1325
10007TIP3    H254217   0.959   6.573  12.209  0.2928  0.2435  0.0689
10008TIP3   OH254218   4.735   4.712  11.588 -0.0884 -0.1975  0.1882
10008TIP3    H154219   4.807   4.673  11.638  0.1279  0.4803  0.4263
10008TIP3    H254220   4.758   4.697  11.497  1.2712  1.4880  0.1786
10009TIP3   OH254221   0.952   3.900  12.108 -0.2757  0.0461  0.0929
10009TIP3    H154222   0.968   3.865  12.020 -0.6470 -0.0267  0.0555
10009TIP3    H254223   0.901   3.832  12.152 -1.0678  0.5642 -0.0046
10010TIP3   OH254224   7.039   6.542  11.797  0.2786 -0.0726  0.3231
10010TIP3    H154225   7.062   6.598  11.723  0.6475 -1.5868 -0.7467
10010TIP3    H254226   7.120   6.495  11.817  0.3414  0.6787  2.0629
10011TIP3   OH254227   2.198   1.106  11.740 -0.4685  0.0225 -0.0477
10011TIP3    H154228   2.170   1.194  11.767  2.3356  1.0972 -0.3579
10011TIP3    H254229   2.186   1.052  11.819  0.3320  1.3473  1.0282
10012TIP3   OH254230   6.739   2.626  11.283  0.1082 -0.7616  0.3189
10012TIP3    H154231   6.652   2.666  11.294 -0.5569 -2.2942  1.0051
10012TIP3    H254232   6.759   2.636  11.190 -0.7821 -0.3345  0.1648
10013TIP3   OH254233   7.424   2.264  13.216  0.3980 -0.0078 -0.0444
10013TIP3    H154234   7.445   2.355  13.238  0.7141 -0.3577  1.1917
10013TIP3    H254235   7.333   2.253  13.245 -0.2916  0.4206 -1.9078
10014TIP3   OH254236   6.037   6.351  11.219 -0.1702  0.6431  0.0250
10014TIP3    H154237   5.993   6.278  11.176  1.2054 -0.6128  0.6966
10014TIP3    H254238   6.126   6.349  11.186  0.3897  0.8634  1.4664
10015TIP3   OH254239   2.987   5.020  10.766  0.5101  0.1002 -0.2309
10015TIP3    H154240   3.072   5.014  10.808  0.4411  2.4645  0.3807
10015TIP3    H254241   2.947   5.099  10.802 -0.0464  1.6656 -3.8498
10016TIP3   OH254242   6.586   7.127  12.464  0.0032  0.1820 -0.3876
10016TIP3    H154243   6.621   7.118  12.553  1.1824  1.6441 -0.6736
10016TIP3    H254244   6.491   7.114  12.475 -0.0789  1.7485  1.3431
10017TIP3   OH254245   7.530   3.557  10.560  0.3326 -0.6818  0.0125
10017TIP3    H154246   7.554   3.592  10.645  1.6471  0.4981 -0.8043
10017TIP3    H254247   7.435   3.549  10.563  0.4364 -1.5809  1.9039
10018TIP3   OH254248   2.997   5.094  11.645 -0.1512  0.0260 -0.5167
10018TIP3    H154249   3.000   5.076  11.739 -1.3741 -2.6772 -0.9024
10018TIP3    H254250   2.906   5.117  11.628 -0.3440 -1.1820 -1.2517
10019TIP3   OH254251   4.457   0.504  10.588 -0.0653  0.1007 -0.1130
10019TIP3    H154252   4.501   0.551  10.659 -2.7454  2.1888  0.3364
10019TIP3    H254253   4.410   0.572  10.540 -1.5395 -1.7672 -1.4824
10020TIP3   OH254254   5.161   5.262  11.345  0.5329 -0.3241  0.2040
10020TIP3    H154255   5.224   5.329  11.320  0.2556 -0.1536 -0.0387
10020TIP3    H254256   5.134   5.287  11.434 -0.6434  0.7149 -0.4123
10021TIP3   OH254257   6.544   5.110  12.207 -0.1178 -0.3514 -0.2617
10021TIP3    H154258   6.489   5.186  12.184  0.3372  0.2948  0.7280
10021TIP3    H254259   6.489   5.057  12.264  0.1590  0.1356  0.4722
10022TIP3   OH254260   6.335   0.188  13.161 -0.1325 -0.4882 -0.4551
10022TIP3    H154261   6.273   0.241  13.110 -0.4805 -0.7895 -0.3455
10022TIP3    H254262   6.396   0.252  13.198 -0.4998 -0.1713 -0.3942
10023TIP3   OH254263   7.352   2.220  11.361 -0.2712 -0.2129 -0.2308
10023TIP3    H154264   7.401   2.265  11.430 -1.7607 -1.6986  1.9418
10023TIP3    H254265   7.379   2.128  11.369 -0.8969 -0.5023 -1.2677
10024TIP3   OH254266   3.412   4.573  12.242  0.4305  0.2426 -0.0593
10024TIP3    H154267   3.320   4.549  12.251 -0.0702  2.0849  0.2725
10024TIP3    H254268   3.458   4.516  12.304 -0.6776  0.2585  0.8043
10025TIP3   OH254269   0.492   0.994  10.666  0.0294  0.0750  0.1109
10025TIP3    H154270   0.506   1.087  10.683  0.7107 -0.4333  2.8450
10025TIP3    H254271   0.398   0.982  10.675 -0.2529  0.7039 -1.7030
10026TIP3   OH254272   2.831   6.553  10.682 -0.3985  0.0734 -0.1811
10026TIP3    H154273   2.753   6.537  10.628  2.0004 -0.0335 -4.0165
10026TIP3    H254274   2.825   6.646  10.705 -0.2936  0.9459 -3.1865
10027TIP3   OH254275   2.138   3.508  11.562  0.2106  0.0474 -0.4928
10027TIP3    H154276   2.173   3.498  11.650 -2.3159  0.4736  0.6495
10027TIP3    H254277   2.120   3.418  11.533  0.9789 -0.0884 -0.5726
10028TIP3   OH254278   3.864   4.494  10.564  0.1877  0.1313 -0.3069
10028TIP3    H154279   3.897   4.445  10.639 -0.9700 -1.1164 -0.5854
10028TIP3    H254280   3.874   4.586  10.590  0.0433 -0.2721  1.2723
10029TIP3   OH254281   4.900   7.335  12.081  0.2059  0.6087 -0.7747
10029TIP3    H154282   4.917   7.267  12.016 -0.1014  1.6061 -1.9345
10029TIP3    H254283   4.858   7.405  12.031  1.1270  1.9284  0.2470
10030TIP3   OH254284   3.485   6.360  10.490 -0.1565  0.3539  0.4654
10030TIP3    H154285   3.417   6.420  10.458  0.0455  0.4990  0.3112
10030TIP3    H254286   3.436   6.285  10.523 -0.4058  0.5578  0.5661
10031TIP3   OH254287   5.563   5.134  11.875 -0.6666  0.1406  0.6417
10031TIP3    H154288   5.488   5.092  11.918 -2.0394  1.0990 -0.6969
10031TIP3    H254289   5.561   5.101  11.785  0.1595  0.6264  0.4333
10032TIP3   OH254290   5.519   5.585  12.845 -0.2343  0.2352  0.4588
10032TIP3    H154291   5.538   5.673  12.879 -0.7441 -0.0553  1.5404
10032TIP3    H254292   5.590   5.568  12.783  0.5107  0.9633  1.0840
10033TIP3   OH254293   1.283   4.397  10.776 -0.0113 -0.2473 -1.2467
10033TIP3    H154294   1.371   4.434  10.762 -0.1410 -0.0236 -1.4835
10033TIP3    H254295   1.233   4.470  10.813 -0.4374  0.0052 -2.2959
10034TIP3   OH254296   3.420   1.472  11.421  0.8327 -0.3433 -0.1258
10034TIP3    H154297   3.437   1.436  11.508 -1.6197  1.3526  1.1817
10034TIP3    H254298   3.355   1.412  11.384 -1.9470  1.5104  1.3658
10035TIP3   OH254299   5.860   1.202  10.706  0.0670  0.7953  0.2653
10035TIP3    H154300   5.889   1.136  10.643 -1.8425  1.4385 -1.3900
10035TIP3    H254301   5.816   1.152  10.775 -2.5584  0.2492 -1.6237
10036TIP3   OH254302   0.578   7.053  12.784 -0.0445 -0.0330 -0.7687
10036TIP3    H154303   0.557   7.146  12.786 -0.7335 -0.1879 -0.5839
10036TIP3    H254304   0.562   7.027  12.693  0.7178  0.1472 -0.9649
10037TIP3   OH254305   5.822   5.289  12.357 -0.3819  0.6409 -0.1279
10037TIP3    H154306   5.911   5.290  12.322 -1.3623 -0.4645 -2.8884
10037TIP3    H254307   5.799   5.382  12.364  0.6854  0.9290 -0.1886
10038TIP3   OH254308   2.147   5.801  12.498  0.5105  0.4190 -0.1786
10038TIP3    H154309   2.060   5.775  12.528  0.3416 -0.8186 -1.6467
10038TIP3    H254310   2.203   5.727  12.522  1.2291  1.2742  0.8976
10039TIP3   OH254311   1.280   0.773  10.633 -0.1323  0.5244 -0.4989
10039TIP3    H154312   1.234   0.824  10.567 -1.7446 -0.1593  0.0378
10039TIP3    H254313   1.210   0.731  10.683  1.0427  0.6044  1.3086
10040TIP3   OH254314   0.158   2.692  11.176  0.1760 -0.7308 -0.0947
10040TIP3    H154315   0.125   2.717  11.262 -1.2147 -0.7391 -0.5869
10040TIP3    H254316   0.224   2.757  11.155  1.8114 -1.6995  1.6863
10041TIP3   OH254317   3.269   0.068  11.776  0.0955  0.2447  0.4836
10041TIP3    H154318   3.307   0.017  11.704 -0.0162  0.4294  0.2921
10041TIP3    H254319   3.175   0.055  11.768 -0.0640  1.7821 -0.5738
10042TIP3   OH254320   3.005   3.318  11.464 -0.0160  0.4105 -0.4689
10042TIP3    H154321   3.050   3.361  11.391  0.4709 -1.8527 -1.5968
10042TIP3    H254322   3.076   3.289  11.521 -0.1908 -0.6459 -0.7733
10043TIP3   OH254323   2.655   1.646  12.452 -0.1442 -0.1158  0.3401
10043TIP3    H154324   2.671   1.695  12.372  2.3074  0.0102  0.8312
10043TIP3    H254325   2.735   1.596  12.467 -1.0802 -1.2709  1.9518
10044TIP3   OH254326   2.262   6.263  12.486 -0.1409  0.2227  0.6750
10044TIP3    H154327   2.214   6.182  12.507  0.3042 -0.4637 -0.8085
10044TIP3    H254328   2.353   6.236  12.479 -0.0171  0.8066 -0.0693
10045TIP3   OH254329   5.805   4.574  11.173 -0.3800  0.2362 -0.3774
10045TIP3    H154330   5.869   4.528  11.119 -1.1959 -0.0839 -1.0798
10045TIP3    H254331   5.842   4.570  11.262  0.1484 -0.7113 -0.6231
10046TIP3   OH254332   2.529   6.233  12.510 -0.4003 -0.2700  0.3333
10046TIP3    H154333   2.557   6.247  12.420 -1.0019 -0.3466  0.1297
10046TIP3    H254334   2.558   6.144  12.531 -1.5625 -0.8153 -0.2928
10047TIP3   OH254335   5.617   6.398  12.034  0.2127 -0.0560 -0.0249
10047TIP3    H154336   5.636   6.304  12.037  1.1163  0.1087 -0.4885
10047TIP3    H254337   5.643   6.430  12.120 -1.2878 -0.4286  0.6098
10048TIP3   OH254338   4.591   2.380  11.385  0.3571  0.2431 -0.3323
10048TIP3    H154339   4.508   2.332  11.389 -0.2062  1.2533  2.5358
10048TIP3    H254340   4.571   2.457  11.332 -0.9264  1.0723  1.2979
10049TIP3   OH254341   3.037   6.726  11.241 -0.2012 -0.4364  0.5576
10049TIP3    H154342   3.109   6.767  11.194  0.0671 -1.1925  0.2866
10049TIP3    H254343   2.965   6.789  11.235 -0.2712 -0.6215 -1.1475
10050TIP3   OH254344   5.657   0.241  13.214 -0.2752 -0.6205 -0.7773
10050TIP3    H154345   5.688   0.321  13.256  1.1553 -0.5576 -1.8505
10050TIP3    H254346   5.721   0.175  13.241 -1.3963 -1.4101  0.0327
10051TIP3   OH254347   0.608   5.084  12.406  0.4551 -0.6986 -0.4503
10051TIP3    H154348   0.675   5.151  12.392  0.7782 -0.2752  2.4663
10051TIP3    H254349   0.525   5.130  12.397  0.6115 -0.4778 -0.7964
10052TIP3   OH254350   6.348   3.721  11.385  0.2724  0.9097  0.2388
10052TIP3    H154351   6.256   3.749  11.383 -0.0157  0.1790  1.8285
10052TIP3    H254352   6.343   3.625  11.393  1.2047  0.7215 -1.1017
10053TIP3   OH254353   2.858   4.348  12.476  0.3428 -0.1847 -0.2426
10053TIP3    H154354   2.870   4.277  12.413  0.8799  0.0681 -0.4306
10053TIP3    H254355   2.836   4.424  12.422  0.1706 -0.1132 -0.0741
10054TIP3   OH254356   6.089   2.804  10.909  0.9357 -0.3338  0.1889
10054TIP3    H154357   6.050   2.719  10.890  0.6383  0.0529 -1.0157
10054TIP3    H254358   6.027   2.847  10.968  0.8085 -0.7365  0.3444
10055TIP3   OH254359   6.377   5.714  12.283  0.3686  0.1232 -0.4800
10055TIP3    H154360   6.432   5.722  12.205  2.1275 -0.8708  0.6090
10055TIP3    H254361   6.438   5.695  12.354 -1.3820 -0.8850  0.8256
10056TIP3   OH254362   0.471   7.198  11.549 -0.4781  0.1458 -0.2032
10056TIP3    H154363   0.505   7.249  11.623 -0.9897  1.2716 -0.7301
10056TIP3    H254364   0.438   7.117  11.589 -0.4683  0.6073  0.7591
10057TIP3   OH254365   2.179   1.379  11.401 -0.0857  0.0088  0.5307
10057TIP3    H154366   2.244   1.338  11.458  0.7428 -1.7222 -1.5352
10057TIP3    H254367   2.229   1.443  11.349 -0.0716 -0.9700 -0.7104
10058TIP3   OH254368   1.522   1.479  11.890 -0.4298 -0.1010 -0.1047
10058TIP3    H154369   1.472   1.510  11.966  0.7766  1.5193  0.0735
10058TIP3    H254370   1.609   1.461  11.925  0.1684  0.7687 -1.1020
10059TIP3   OH254371   1.736   3.947  11.449  0.4174  0.2967 -0.0870
10059TIP3    H154372   1.733   3.919  11.541  0.6613 -0.7564 -0.3869
10059TIP3    H254373   1.647   3.976  11.430 -0.8040 -3.2853 -0.6239
10060TIP3   OH254374   6.123   2.560  12.471 -0.8048  0.2125  0.3225
10060TIP3    H154375   6.141   2.636  12.415 -1.1592 -0.1484 -0.2906
10060TIP3    H254376   6.126   2.595  12.560  2.1046  0.3615  0.2565
10061TIP3   OH254377   0.493   0.290  12.257  0.2142  0.5886 -0.2296
10061TIP3    H154378   0.458   0.379  12.253  1.4294  1.1735  1.0955
10061TIP3    H254379   0.576   0.295  12.209  0.8654  0.5016  0.8476
10062TIP3   OH254380   5.465   1.641  11.711 -0.7347  0.1437  0.3397
10062TIP3    H154381   5.494   1.717  11.762 -1.4456  0.0587  0.8936
10062TIP3    H254382   5.412   1.679  11.641  0.4148  0.2758 -0.4853
10063TIP3   OH254383   0.816   4.624  11.570  0.2658  0.7665 -0.3296
10063TIP3    H154384   0.901   4.668  11.578  1.3524 -1.3235  0.2069
10063TIP3    H254385   0.824   4.573  11.490 -0.4952  0.5229 -0.2537
10064TIP3   OH254386   2.204   6.693  10.843 -0.4181  0.4455 -0.1128
10064TIP3    H154387   2.121   6.716  10.802 -1.4944 -0.8190  1.2846
10064TIP3    H254388   2.188   6.702  10.937  1.9658  3.2222  0.1686
10065TIP3   OH254389   4.339   1.506  12.974  0.2222 -0.5609 -0.0789
10065TIP3    H154390   4.408   1.489  13.038  1.9987  0.2711 -1.6698
10065TIP3    H254391   4.305   1.592  12.998 -0.1463 -0.8921  0.6049
10066TIP3   OH254392   0.827   3.697  12.225  0.2230 -0.3242 -0.2124
10066TIP3    H154393   0.748   3.699  12.170  1.2325 -2.7276 -1.8986
10066TIP3    H254394   0.797   3.658  12.307 -0.3314 -1.3046 -0.8671
10067TIP3   OH254395   4.146   1.491  11.579  0.6120 -0.4585  0.2027
10067TIP3    H154396   4.182   1.533  11.657 -0.9211 -1.3742  1.4687
10067TIP3    H254397   4.123   1.403  11.608 -0.0636 -0.7980 -1.2697
10068TIP3   OH254398   3.046   0.194  11.114 -1.0111 -0.0496 -0.1916
10068TIP3    H154399   2.994   0.195  11.195 -0.9306 -2.0019 -0.0692
10068TIP3    H254400   3.001   0.130  11.058  0.6889 -1.0909 -0.4506
10069TIP3   OH254401   0.575   4.449  12.977 -0.5458 -0.3599 -0.1529
10069TIP3    H154402   0.591   4.515  13.045 -0.2712  0.2236 -0.7670
10069TIP3    H254403   0.480   4.445  12.969 -0.6391 -1.3363  1.1152
10070TIP3   OH254404   4.549   2.390  13.651 -0.0038  0.4215 -0.3377
10070TIP3    H154405   4.591   2.472  13.627  1.1970 -0.5402 -1.5998
10070TIP3    H254406   4.460   2.397  13.615 -0.2335  1.5224  0.3869
10071TIP3   OH254407   6.401   0.081  11.062  0.1469  0.7557  0.4198
10071TIP3    H154408   6.493   0.095  11.082  0.5089 -0.2440 -0.4685
10071TIP3    H254409   6.372   0.015  11.125  0.2338  0.5360  0.2306
10072TIP3   OH254410   4.047   5.764  11.900 -0.6359  0.1810  0.1476
10072TIP3    H154411   3.954   5.778  11.882 -0.6932  0.3948  0.5907
10072TIP3    H254412   4.076   5.844  11.943 -0.2636  0.0872  0.0747
10073TIP3   OH254413   3.127   4.916  11.464 -0.1131  0.4390 -0.0020
10073TIP3    H154414   3.155   4.974  11.393  0.9181  2.2030  1.7256
10073TIP3    H254415   3.069   4.971  11.518 -2.4158 -1.4178 -0.3926
10074TIP3   OH254416   1.102   2.195  11.990 -0.5412  0.1299  0.3018
10074TIP3    H154417   1.038   2.129  11.965 -2.6054  1.6408  1.3438
10074TIP3    H254418   1.057   2.279  11.977  1.1803  1.2510  1.1885
10075TIP3   OH254419   5.474   3.479  11.347 -0.0447  0.2605 -0.3323
10075TIP3    H154420   5.474   3.567  11.384 -1.2569  2.0007 -3.9631
10075TIP3    H254421   5.528   3.487  11.268 -0.7646 -2.0604 -1.1279
10076TIP3   OH254422   5.864   7.358  12.126 -0.2209  0.4945  0.1074
10076TIP3    H154423   5.941   7.405  12.095  0.1970 -0.6602 -0.6551
10076TIP3    H254424   5.851   7.288  12.062 -0.7847 -0.4782  1.2406
10077TIP3   OH254425   3.702   6.112  12.112 -0.2911 -0.1276  0.5392
10077TIP3    H154426   3.679   6.145  12.199 -2.6037 -0.1692  0.0083
10077TIP3    H254427   3.695   6.017  12.120  0.7334 -0.2095  0.6010
10078TIP3   OH254428   2.516   3.353  10.807 -0.5604 -0.9502 -0.2070
10078TIP3    H154429   2.507   3.289  10.737 -1.2069 -2.4247  1.1520
10078TIP3    H254430   2.512   3.301  10.887  0.0890  0.6792  0.9364
10079TIP3   OH254431   7.584   3.280  12.828  0.3217 -0.4183  0.3900
10079TIP3    H154432   7.492   3.262  12.809  0.5668 -1.0111 -0.2815
10079TIP3    H254433   7.586   3.300  12.922 -0.1533 -2.8208  0.9684
10080TIP3   OH254434   4.295   3.067  10.924 -0.7780  0.6599 -0.5470
10080TIP3    H154435   4.363   3.109  10.978 -0.6943 -0.7961  0.5492
10080TIP3    H254436   4.337   3.052  10.840 -0.3012  1.3228 -0.4380
10081TIP3   OH254437   4.493   5.403  11.250 -0.3591 -0.1394 -0.7353
10081TIP3    H154438   4.507   5.415  11.156  0.6816  0.3820 -0.5252
10081TIP3    H254439   4.417   5.345  11.255  1.2037 -2.4422 -1.9588
10082TIP3   OH254440   2.389   0.747  11.862 -0.5106  0.1162 -0.0385
10082TIP3    H154441   2.304   0.788  11.845 -0.6815  0.5387  1.6630
10082TIP3    H254442   2.386   0.723  11.954 -0.2481 -3.3755 -0.7845
10083TIP3   OH254443   4.448   3.708  11.901 -0.0632 -0.9757 -0.3668
10083TIP3    H154444   4.524   3.730  11.847 -0.6225  1.0864 -0.4168
10083TIP3    H254445   4.376   3.703  11.839 -0.3117 -0.8849 -0.0881
10084TIP3   OH254446   2.424   4.689  12.009 -0.4533 -0.5900 -0.3355
10084TIP3    H154447   2.472   4.758  12.055 -0.5380  0.0369 -1.1696
10084TIP3    H254448   2.417   4.618  12.073  2.6711 -1.2180 -0.5453
10085TIP3   OH254449   6.676   2.659  12.341  0.4212  0.5531 -0.3472
10085TIP3    H154450   6.757   2.669  12.391  0.4956 -1.3544 -0.0436
10085TIP3    H254451   6.664   2.745  12.299  0.1174  2.4459  3.2186
10086TIP3   OH254452   5.512   6.614  10.878  0.1143 -0.2966 -0.1784
10086TIP3    H154453   5.476   6.586  10.962 -1.0688 -0.0149 -0.5695
10086TIP3    H254454   5.436   6.645  10.828  1.0782  1.8272 -0.4695
10087TIP3   OH254455   0.538   0.839  12.290  0.0367  0.9873  0.1141
10087TIP3    H154456   0.488   0.840  12.209  0.1812  0.0110 -0.0030
10087TIP3    H254457   0.615   0.785  12.270 -0.3652  0.0003  1.1478
10088TIP3   OH254458   0.269   2.015  11.352  0.4644 -0.0285 -0.2497
10088TIP3    H154459   0.278   1.961  11.274 -0.5780 -0.7948  0.1385
10088TIP3    H254460   0.323   2.092  11.334  2.2869 -1.3287 -0.6859
10089TIP3   OH254461   0.610   4.286  10.375  0.2291 -0.2310  0.2982
10089TIP3    H154462   0.676   4.346  10.340  0.3133 -0.7361 -0.4353
10089TIP3    H254463   0.660   4.225  10.429  0.0112  0.9853  1.9589
10090TIP3   OH254464   1.602   4.280  10.694  0.2061  0.1261 -0.1018
10090TIP3    H154465   1.690   4.317  10.688 -0.3534  1.2175 -3.2643
10090TIP3    H254466   1.549   4.349  10.733  0.1982  0.5849 -0.9230
10091TIP3   OH254467   4.633   4.871  10.453  0.4447  0.3749  0.5122
10091TIP3    H154468   4.553   4.904  10.413  1.1024  1.9775  0.4457
10091TIP3    H254469   4.700   4.936  10.431  1.7424 -0.8402  0.6968
10092TIP3   OH254470   5.876   1.306  12.343  0.1017 -0.5427  0.1852
10092TIP3    H154471   5.870   1.242  12.272  2.3162 -0.9820  0.3135
10092TIP3    H254472   5.937   1.266  12.406  1.6782  1.7258  0.1976
10093TIP3   OH254473   3.825   4.169  11.948  0.6019  0.7731  0.6131
10093TIP3    H154474   3.919   4.163  11.929  0.2955  1.6823 -1.4068
10093TIP3    H254475   3.796   4.248  11.901 -0.9542  1.2141  2.1905
10094TIP3   OH254476   0.874   4.685  13.206 -0.6408 -0.4286  0.4569
10094TIP3    H154477   0.935   4.758  13.207 -0.6250 -0.2994 -2.2514
10094TIP3    H254478   0.894   4.635  13.285  0.0647  1.8729  1.8099
10095TIP3   OH254479   2.498   5.500  11.032 -0.2631  0.6327  0.5000
10095TIP3    H154480   2.513   5.407  11.017 -1.1256  0.1253  2.4249
10095TIP3    H254481   2.573   5.544  10.993 -0.4326 -0.7486 -1.5239
10096TIP3   OH254482   7.366   6.417  11.091  0.4504  0.4622 -0.0373
10096TIP3    H154483   7.353   6.466  11.010 -2.5216 -0.4592 -0.2170
10096TIP3    H254484   7.461   6.401  11.094  0.8001  1.5087 -2.7175
10097TIP3   OH254485   7.662   2.537  13.317  0.0232  0.1087 -0.6964
10097TIP3    H154486   7.704   2.481  13.252  0.1148  1.4804 -1.8680
10097TIP3    H254487   7.608   2.598  13.266 -1.2195  0.1624  0.6175
10098TIP3   OH254488   3.590   0.998  12.127 -0.2783 -0.5861 -0.3495
10098TIP3    H154489   3.543   0.918  12.150 -0.2874 -0.4232  0.2139
10098TIP3    H254490   3.669   0.996  12.182 -0.5073  0.0165  0.0163
10099TIP3   OH254491   2.478   4.273  13.303 -0.3678  0.0704  0.6397
10099TIP3    H154492   2.493   4.194  13.355  0.2525  0.0444  0.4260
10099TIP3    H254493   2.559   4.324  13.312  0.3892 -0.6443 -1.5505
10100TIP3   OH254494   5.593   1.146  12.094  0.0627  0.4710 -0.3759
10100TIP3    H154495   5.688   1.139  12.108  0.3864  3.8650 -0.0376
10100TIP3    H254496   5.557   1.160  12.182 -0.7761 -0.6508 -0.5228
10101TIP3   OH254497   3.256   2.206  11.245  0.0705  0.1874  0.2326
10101TIP3    H154498   3.168   2.242  11.244 -0.6353 -1.4074  0.7443
10101TIP3    H254499   3.294   2.232  11.161 -1.6200 -0.7435 -0.8945
10102TIP3   OH254500   2.021   3.955  11.259  0.1937  0.4947 -0.1741
10102TIP3    H154501   2.102   3.913  11.287  0.2230  0.4285 -0.3566
10102TIP3    H254502   2.007   4.025  11.323 -0.4341 -0.4796  0.7939
10103TIP3   OH254503   7.477   1.378  11.344  0.2669 -0.4547  0.3420
10103TIP3    H154504   7.473   1.363  11.250 -1.2277  1.0677  0.1010
10103TIP3    H254505   7.464   1.473  11.353 -0.7081 -0.7153  2.1033
10104TIP3   OH254506   3.128   1.733  12.555 -0.0490  0.4147  0.2034
10104TIP3    H154507   3.223   1.723  12.543 -0.2110  0.8102 -1.9020
10104TIP3    H254508   3.118   1.762  12.645  1.8210  0.2407  0.5184
10105TIP3   OH254509   6.821   2.164  11.527 -0.4139 -0.3479  0.3826
10105TIP3    H154510   6.782   2.249  11.505  0.8613  0.2121  0.1618
10105TIP3    H254511   6.903   2.187  11.570  0.2240 -1.4783 -0.1946
10106TIP3   OH254512   0.733   6.315  12.708 -0.0372  0.1835 -0.2299
10106TIP3    H154513   0.646   6.300  12.746 -0.0406 -1.2392 -0.7472
10106TIP3    H254514   0.794   6.299  12.781 -0.1965  1.3786  0.1863
10107TIP3   OH254515   0.225   6.728  11.817 -0.2420 -0.2357  0.2547
10107TIP3    H154516   0.267   6.779  11.886  1.0888  0.2711 -0.8792
10107TIP3    H254517   0.294   6.669  11.786 -0.7599 -0.3441 -0.7263
10108TIP3   OH254518   3.249   7.208  11.084  0.5465 -0.3104 -0.0378
10108TIP3    H154519   3.273   7.255  11.005  0.6278 -1.6288 -0.8290
10108TIP3    H254520   3.328   7.160  11.109  0.7199  0.5861  1.2291
10109TIP3   OH254521   7.020   6.206  11.193 -0.1128 -0.5092  0.0916
10109TIP3    H154522   7.051   6.154  11.267 -2.1011 -1.1420  0.5482
10109TIP3    H254523   7.073   6.286  11.196  1.0823 -1.2975  1.0759
10110TIP3   OH254524   2.265   1.485  10.868  0.0114  0.2825  0.8175
10110TIP3    H154525   2.295   1.568  10.831 -0.6223  0.4801  0.7439
10110TIP3    H254526   2.270   1.423  10.795  0.4863  0.2533  0.8730
10111TIP3   OH254527   0.141   0.202  11.739  0.1108  0.2343 -0.2181
10111TIP3    H154528   0.164   0.234  11.652  2.7397 -0.0464  0.2932
10111TIP3    H254529   0.070   0.259  11.768  0.6709  1.7584 -1.6812
10112TIP3   OH254530   4.233   1.756  12.731 -0.3367  0.1334  0.1567
10112TIP3    H154531   4.322   1.759  12.697 -0.3072  0.7638  0.2897
10112TIP3    H254532   4.240   1.784  12.822 -0.5440 -0.6911  0.4366
10113TIP3   OH254533   3.130   4.369  10.766 -0.2102  0.3539 -0.2153
10113TIP3    H154534   3.161   4.412  10.686  1.5861  1.9759  1.2400
10113TIP3    H254535   3.210   4.353  10.817 -1.2665 -0.9673  1.1119
10114TIP3   OH254536   6.058   6.023  11.523  0.4402 -0.0013  0.1737
10114TIP3    H154537   6.037   6.106  11.567  1.0987  0.5645 -0.5644
10114TIP3    H254538   6.027   6.035  11.433 -0.5478 -1.0086  0.3599
10115TIP3   OH254539   6.541   6.115  12.843  0.7468 -0.1788  0.6640
10115TIP3    H154540   6.636   6.118  12.847  0.7400 -0.8600  1.8615
10115TIP3    H254541   6.514   6.081  12.929 -0.4870 -1.7864 -0.2863
10116TIP3   OH254542   6.609   5.052  12.765 -0.3074 -0.8081  0.0851
10116TIP3    H154543   6.566   5.074  12.683  0.0128 -0.6617 -0.0473
10116TIP3    H254544   6.613   4.956  12.766 -0.6680 -0.8214  0.1162
10117TIP3   OH254545   1.755   0.940  12.838 -0.2845 -0.4538 -0.2746
10117TIP3    H154546   1.660   0.949  12.832 -0.6184 -1.9437  1.6215
10117TIP3    H254547   1.782   0.909  12.752 -1.4131  0.5270 -1.0212
10118TIP3   OH254548   3.998   6.490  11.651  0.4192  0.4519 -0.0994
10118TIP3    H154549   3.918   6.541  11.650 -0.0816 -0.3085  0.2865
10118TIP3    H254550   4.066   6.551  11.623 -0.0508  1.5201  1.0231
10119TIP3   OH254551   6.316   6.092  13.796  0.1113 -0.1860 -0.3705
10119TIP3    H154552   6.389   6.107  13.736 -0.6269  1.2056 -0.9687
10119TIP3    H254553   6.243   6.141  13.758 -1.4016 -2.1887 -0.2352
10120TIP3   OH254554   7.211   3.123  12.602  0.1454 -0.5997  0.3434
10120TIP3    H154555   7.179   3.177  12.530 -0.8030 -0.3944  0.9005
10120TIP3    H254556   7.133   3.081  12.637  0.6497 -1.0341  0.9820
10121TIP3   OH254557   5.695   1.100  10.923 -0.6107  0.1004  0.3421
10121TIP3    H154558   5.727   1.065  11.007  1.5520 -2.1087 -1.2581
10121TIP3    H254559   5.629   1.037  10.894  2.0991 -2.0280 -1.7564
10122TIP3   OH254560   3.229   3.594  10.969 -0.7293  0.8654  0.4787
10122TIP3    H154561   3.212   3.534  11.041 -1.2511  0.3525 -0.0634
10122TIP3    H254562   3.143   3.620  10.936 -0.5599 -0.8164 -1.5069
10123TIP3   OH254563   7.025   5.214  10.689 -0.3117 -0.2333 -0.2950
10123TIP3    H154564   7.031   5.297  10.737 -1.4735  0.0542 -0.6084
10123TIP3    H254565   6.933   5.208  10.663  0.2072 -0.5620 -2.1868
10124TIP3   OH254566   6.440   2.610  11.168 -0.2932  0.3294 -0.5879
10124TIP3    H154567   6.378   2.679  11.147 -0.0539  0.6766 -0.1555
10124TIP3    H254568   6.458   2.620  11.262  0.9256  0.6611 -0.8368
10125TIP3   OH254569   5.684   6.527  12.946  0.7215 -0.2120  0.4984
10125TIP3    H154570   5.642   6.610  12.965  0.5506 -0.0959 -0.3420
10125TIP3    H254571   5.686   6.481  13.030 -1.9814 -0.6387  0.4408
10126TIP3   OH254572   7.246   4.308  10.701 -0.1216  0.1081 -0.0935
10126TIP3    H154573   7.329   4.347  10.673 -0.4914 -0.1733 -1.6658
10126TIP3    H254574   7.185   4.382  10.707  0.5915  0.5784  2.7151
10127TIP3   OH254575   6.721   5.316  11.735 -0.6456 -0.0357  0.0148
10127TIP3    H154576   6.724   5.248  11.667  2.1994 -0.9676  0.9297
10127TIP3    H254577   6.812   5.345  11.745 -1.2552  1.4094  2.1183
10128TIP3   OH254578   4.264   7.214  12.492 -0.1683 -0.7679  0.7121
10128TIP3    H154579   4.207   7.156  12.443 -0.4185  0.4470 -0.4960
10128TIP3    H254580   4.309   7.157  12.555 -0.1486 -2.3115 -0.6473
10129TIP3   OH254581   7.213   7.643  11.177  0.1938 -0.1955 -0.2926
10129TIP3    H154582   7.189   7.728  11.140  1.8190  0.5796  0.3387
10129TIP3    H254583   7.221   7.659  11.271  1.2738 -0.8397 -0.2566
10130TIP3   OH254584   5.884   7.135  10.903  0.3854  0.3906 -0.7239
10130TIP3    H154585   5.805   7.188  10.913 -0.1594 -0.2150 -1.7377
10130TIP3    H254586   5.882   7.076  10.978 -0.1557  0.3397 -0.7751
10131TIP3   OH254587   0.477   1.880  10.723  0.1734  0.0718  0.2390
10131TIP3    H154588   0.557   1.928  10.744 -0.0203 -0.5181  2.5124
10131TIP3    H254589   0.406   1.938  10.753 -0.1482 -0.5643  0.7191
10132TIP3   OH254590   5.900   4.237  10.881  0.7932 -0.2497  0.9933
10132TIP3    H154591   5.805   4.238  10.885  0.5241 -1.2538 -2.0293
10132TIP3    H254592   5.923   4.144  10.880  1.8212 -0.0200  1.6361
10133TIP3   OH254593   6.992   3.245  11.931  0.6128 -0.6289  0.0918
10133TIP3    H154594   6.944   3.188  11.872  0.4738  0.1166 -0.5170
10133TIP3    H254595   6.954   3.227  12.017  0.2191 -1.0687 -0.1672
10134TIP3   OH254596   2.065   0.742  11.385 -0.2439  0.9745  0.5047
10134TIP3    H154597   2.036   0.834  11.382  0.4645  1.1756 -0.8955
10134TIP3    H254598   2.155   0.747  11.416  1.0948  1.1662 -2.9698
10135TIP3   OH254599   4.128   5.911  11.631 -0.2107  0.2956 -0.0331
10135TIP3    H154600   4.066   5.840  11.614  1.9063 -1.0198 -3.1919
10135TIP3    H254601   4.176   5.884  11.709 -1.3845 -0.2422  0.5283
10136TIP3   OH254602   4.808   6.094  10.828 -0.0386 -0.2319  0.5023
10136TIP3    H154603   4.771   6.046  10.902  0.7854  0.0017  1.0823
10136TIP3    H254604   4.733   6.114  10.772 -0.7084 -0.2286  1.3806
10137TIP3   OH254605   7.309   4.593  12.489 -0.0198 -0.1581  0.3221
10137TIP3    H154606   7.239   4.611  12.427  1.7835  1.9506 -1.2722
10137TIP3    H254607   7.308   4.668  12.549  1.1110  0.1295  0.0036
10138TIP3   OH254608   6.308   1.017  11.406 -0.3104  0.6204  0.2560
10138TIP3    H154609   6.270   1.064  11.332  0.4362 -0.5867 -0.9447
10138TIP3    H254610   6.273   0.928  11.399  1.4344 -0.0981  0.0363
10139TIP3   OH254611   4.302   4.232  12.399  0.1241 -0.1889 -0.5816
10139TIP3    H154612   4.367   4.186  12.453  0.0496 -0.8742 -1.0616
10139TIP3    H254613   4.224   4.177  12.404  0.2258 -0.4586 -1.6757
10140TIP3   OH254614   6.259   0.904  12.423 -0.0356  0.1371 -0.0516
10140TIP3    H154615   6.305   0.899  12.506  1.5701 -1.5951 -0.9704
10140TIP3    H254616   6.322   0.944  12.363 -0.6436  0.0652 -0.7550
10141TIP3   OH254617   2.781   4.191  12.910  0.5456  0.0434 -0.2282
10141TIP3    H154618   2.851   4.255  12.901  0.5109  0.3309  1.2380
10141TIP3    H254619   2.709   4.240  12.949  0.4651 -0.8363  0.7762
10142TIP3   OH254620   2.670   2.556  12.708  0.5794  0.3705  0.4655
10142TIP3    H154621   2.714   2.629  12.751 -0.1623  0.3655  1.2615
10142TIP3    H254622   2.711   2.478  12.744 -0.3210  0.3563  1.5131
10143TIP3   OH254623   4.950   5.024  11.620  0.2109  0.6227  0.1734
10143TIP3    H154624   4.993   5.106  11.596  0.7127 -0.0843 -1.5230
10143TIP3    H254625   4.887   5.008  11.549 -1.1543  0.4181  1.3901
10144TIP3   OH254626   6.211   4.385  11.631  0.1930 -0.4331 -0.7131
10144TIP3    H154627   6.231   4.301  11.590  0.7888 -0.6765  0.0629
10144TIP3    H254628   6.293   4.434  11.625  0.9771 -1.2448  2.0408
10145TIP3   OH254629   7.133   4.046  13.144  0.7225  0.0864 -0.2505
10145TIP3    H154630   7.046   4.061  13.106 -0.4826 -1.3859  1.7054
10145TIP3    H254631   7.145   3.951  13.140  1.2559  0.0452  1.4444
10146TIP3   OH254632   0.886   1.204  12.033  0.1009  0.5255  0.2324
10146TIP3    H154633   0.908   1.282  11.983 -2.5974  0.8814 -0.5496
10146TIP3    H254634   0.884   1.133  11.968  2.1979 -0.2194  0.8809
10147TIP3   OH254635   1.233   7.237  13.737  0.1636  0.2528  0.4131
10147TIP3    H154636   1.233   7.176  13.663  1.0442 -0.8056  1.2648
10147TIP3    H254637   1.234   7.323  13.696  0.4522 -0.3116 -0.8224
10148TIP3   OH254638   3.217   2.131  11.945 -0.4878  0.2784 -0.5010
10148TIP3    H154639   3.249   2.053  11.900  0.8556  0.6852 -0.2961
10148TIP3    H254640   3.229   2.202  11.882 -0.6767  0.4915 -0.2989
10149TIP3   OH254641   1.910   4.103  10.739  0.1319 -0.1490 -0.0234
10149TIP3    H154642   1.954   4.159  10.676  0.7423  0.4503  0.9114
10149TIP3    H254643   1.980   4.067  10.793 -0.5361  1.9507  2.4281
10150TIP3   OH254644   2.409   1.385  11.126  0.0268 -0.0554  0.0295
10150TIP3    H154645   2.356   1.446  11.177 -3.0020 -2.9093  0.6102
10150TIP3    H254646   2.378   1.395  11.036 -0.4285 -0.6773  0.1153
10151TIP3   OH254647   1.175   6.996  11.053  0.5282 -0.1512  0.3134
10151TIP3    H154648   1.202   7.021  11.141  0.5567  0.7796  0.0525
10151TIP3    H254649   1.210   6.908  11.041  0.8924 -0.1159  1.0702
10152TIP3   OH254650   6.950   0.937  12.755  0.6660  0.1068  0.3590
10152TIP3    H154651   6.919   0.849  12.731 -2.5068  0.9535  0.9399
10152TIP3    H254652   6.934   0.990  12.677 -0.7477  0.8497  1.1114
10153TIP3   OH254653   3.317   3.792  11.795 -0.1274 -0.4262 -0.1403
10153TIP3    H154654   3.374   3.753  11.861 -0.8778 -0.4635  0.5008
10153TIP3    H254655   3.228   3.774  11.826 -0.4945  0.9816 -0.2974
10154TIP3   OH254656   5.626   5.806  12.495  0.0337 -0.0629 -0.0423
10154TIP3    H154657   5.713   5.842  12.480 -0.2273 -0.0966 -1.9024
10154TIP3    H254658   5.569   5.882  12.501  0.1878 -0.0362  1.3119
10155TIP3   OH254659   7.234   7.678  11.432 -0.1507 -0.4427 -0.5073
10155TIP3    H154660   7.181   7.734  11.488 -0.8920 -1.1808 -0.4532
10155TIP3    H254661   7.232   7.592  11.474 -1.8799 -1.3809 -2.3459
10156TIP3   OH254662   2.667   0.098  13.014  0.8716 -0.3428  0.8631
10156TIP3    H154663   2.622   0.020  12.982 -1.3251  0.7986  0.9994
10156TIP3    H254664   2.712   0.069  13.093  0.9374 -1.6843  0.3596
10157TIP3   OH254665   4.383   4.254  12.832  0.2160  0.3985  0.3375
10157TIP3    H154666   4.428   4.252  12.916 -1.3669 -0.5368  1.1991
10157TIP3    H254667   4.307   4.309  12.845 -1.3345 -1.5902  0.2683
10158TIP3   OH254668   0.197   6.508  10.946 -0.0103 -0.4561 -0.0522
10158TIP3    H154669   0.140   6.585  10.956  0.2200 -0.5078  1.9221
10158TIP3    H254670   0.214   6.478  11.035  2.0146 -1.2705 -0.6484
10159TIP3   OH254671   7.586   2.700  12.335 -0.0178  0.4155 -0.0806
10159TIP3    H154672   7.528   2.770  12.365  0.9041  1.2019 -0.0814
10159TIP3    H254673   7.590   2.711  12.240 -0.5513 -0.1812 -0.1733
10160TIP3   OH254674   4.132   3.374  10.771 -1.0255  0.7888 -0.4531
10160TIP3    H154675   4.145   3.451  10.715 -0.0003  1.0498  0.1219
10160TIP3    H254676   4.210   3.371  10.827 -0.8454 -0.8912 -0.7261
10161TIP3   OH254677   3.358   7.606  11.520 -0.1111 -0.5135 -0.5751
10161TIP3    H154678   3.416   7.531  11.501  0.0269 -0.5029 -0.2084
10161TIP3    H254679   3.277   7.565  11.552 -0.3849 -0.5353 -1.2895
10162TIP3   OH254680   0.956   3.175  11.712 -0.3835  0.5948 -0.3208
10162TIP3    H154681   0.965   3.083  11.739 -2.4910 -0.1440 -1.9059
10162TIP3    H254682   0.990   3.224  11.787  0.4756 -1.4457  0.7299
10163TIP3   OH254683   1.542   4.540  12.666  0.0567 -0.6970 -0.0501
10163TIP3    H154684   1.614   4.478  12.653  0.7718  0.0770  0.1371
10163TIP3    H254685   1.524   4.537  12.760  3.3193  2.7643  0.9346
10164TIP3   OH254686   0.793   6.782  12.680  0.3612 -0.1032  0.3300
10164TIP3    H154687   0.806   6.709  12.740  0.0221 -2.2040 -1.9699
10164TIP3    H254688   0.849   6.762  12.605 -0.2716  1.6574 -0.6755
10165TIP3   OH254689   5.190   3.629  10.924  0.6944 -0.2492 -0.5657
10165TIP3    H154690   5.259   3.695  10.935 -0.4276  0.8547  0.1544
10165TIP3    H254691   5.160   3.612  11.014 -0.6679  0.0846 -0.9342
10166TIP3   OH254692   5.735   2.160  12.721  0.2490 -0.0691  0.0470
10166TIP3    H154693   5.791   2.203  12.786  1.4500 -1.1421 -0.2311
10166TIP3    H254694   5.654   2.142  12.767  1.7415 -2.5860  1.9367
10167TIP3   OH254695   2.406   2.198  11.814  0.1820 -0.7896 -1.0052
10167TIP3    H154696   2.421   2.260  11.743  1.3737  0.4644  0.2671
10167TIP3    H254697   2.375   2.119  11.771  2.0134 -0.4962 -3.0462
10168TIP3   OH254698   3.652   6.678  11.469  0.0969  0.3078 -0.1997
10168TIP3    H154699   3.697   6.615  11.413  0.9134  0.4838  0.2479
10168TIP3    H254700   3.586   6.626  11.514 -0.4801  0.1376 -1.1990
10169TIP3   OH254701   1.585   1.759  13.080  0.2300  0.2257  0.0870
10169TIP3    H154702   1.605   1.727  13.167  1.8061 -2.0587 -1.0028
10169TIP3    H254703   1.590   1.855  13.087  3.1818  0.0566  1.8990
10170TIP3   OH254704   7.521   1.283  11.087 -0.0722 -0.5362 -0.1220
10170TIP3    H154705   7.443   1.252  11.042 -1.5614  1.3293  1.0022
10170TIP3    H254706   7.577   1.316  11.017 -0.1666 -2.0665 -0.9654
10171TIP3   OH254707   7.339   1.860  12.110  0.0037 -0.0476  1.0025
10171TIP3    H154708   7.276   1.862  12.182 -0.1708 -0.4002  0.8630
10171TIP3    H254709   7.292   1.818  12.038  0.3100 -0.0669  0.8100
10172TIP3   OH254710   7.637   0.340  12.084  0.1248 -0.2980 -0.2018
10172TIP3    H154711   7.694   0.308  12.154  0.0112 -1.0850 -0.4595
10172TIP3    H254712   7.592   0.262  12.052 -2.1348  0.4901  0.8813
10173TIP3   OH254713   1.251   7.577  12.696  0.2638 -0.0598 -0.6060
10173TIP3    H154714   1.191   7.649  12.678  0.1881 -0.1063 -0.5390
10173TIP3    H254715   1.306   7.608  12.768  1.1632  0.4817 -1.5047
10174TIP3   OH254716   1.374   1.850  13.344  0.1985  0.2424 -0.4744
10174TIP3    H154717   1.315   1.892  13.407  1.1028  0.7176  0.0775
10174TIP3    H254718   1.324   1.849  13.262 -1.4916 -1.5025  0.4806
10175TIP3   OH254719   4.569   0.808  12.295  0.1560  0.3806  0.1536
10175TIP3    H154720   4.584   0.837  12.205 -0.6477  0.3684  0.0009
10175TIP3    H254721   4.503   0.739  12.286  0.0639  0.3907  0.7488
10176TIP3   OH254722   6.179   0.484  11.272 -0.0303  0.7595  0.0851
10176TIP3    H154723   6.250   0.520  11.324  0.1164  1.7984 -0.8188
10176TIP3    H254724   6.218   0.411  11.225  0.2176  0.7925  0.2391
10177TIP3   OH254725   6.142   0.189  11.713 -0.1336  0.1883 -0.5670
10177TIP3    H154726   6.101   0.105  11.734 -0.1093 -0.0259 -1.3262
10177TIP3    H254727   6.130   0.198  11.618 -0.6480  1.3249 -0.4023
10178TIP3   OH254728   2.716   3.365  12.625  0.0140 -0.8452 -0.0730
10178TIP3    H154729   2.706   3.423  12.550  0.8532  0.6225  0.8820
10178TIP3    H254730   2.732   3.424  12.699  0.1642 -2.2708  1.0957
10179TIP3   OH254731   3.107   5.532  12.358 -0.3570  0.2966 -0.0998
10179TIP3    H154732   3.111   5.474  12.434 -4.2812 -0.0620  0.0625
10179TIP3    H254733   3.194   5.570  12.352  0.8149 -1.4908  3.0916
10180TIP3   OH254734   1.154   5.695  13.630 -0.9718  0.1311 -0.5525
10180TIP3    H154735   1.079   5.753  13.632 -1.2886 -0.2910 -0.1066
10180TIP3    H254736   1.117   5.607  13.636 -0.3661 -0.0319  1.9720
10181TIP3   OH254737   7.627   4.078  10.436  0.3198 -0.5216  0.3152
10181TIP3    H154738   7.596   4.168  10.433  1.9319  0.1068  1.2392
10181TIP3    H254739   7.683   4.070  10.359 -0.1412 -0.8805  0.0097
10182TIP3   OH254740   2.877   5.825  10.180  0.3393 -0.8299 -0.5813
10182TIP3    H154741   2.971   5.807  10.176  0.3353 -0.6710 -1.6660
10182TIP3    H254742   2.868   5.914  10.145  0.0053  0.0337  1.5485
10183TIP3   OH254743   3.333   2.338  11.792  0.3878 -0.4936 -0.2350
10183TIP3    H154744   3.358   2.430  11.780 -1.7984  0.0597 -0.9337
10183TIP3    H254745   3.342   2.299  11.705  0.6149 -0.7629 -0.0917
10184TIP3   OH254746   2.995   0.658  12.917  0.4040  0.1126 -0.0582
10184TIP3    H154747   2.907   0.627  12.938  0.4044  1.0230  1.3978
10184TIP3    H254748   3.045   0.645  12.998  1.3180  0.6404 -0.5267
10185TIP3   OH254749   3.468   0.432  11.554  0.2793 -0.3190  0.0684
10185TIP3    H154750   3.432   0.350  11.522 -1.5483  0.7139 -0.6725
10185TIP3    H254751   3.460   0.493  11.481  1.7251  0.5199  0.5542
10186TIP3   OH254752   2.367   2.071  11.412 -0.0380  0.1519 -0.6077
10186TIP3    H154753   2.347   2.039  11.500  0.7073  0.3320 -0.3636
10186TIP3    H254754   2.306   2.143  11.398 -0.3427 -0.0505 -0.3498
10187TIP3   OH254755   2.195   6.590  13.298 -1.1327 -0.5611 -0.4586
10187TIP3    H154756   2.276   6.538  13.304  0.3655  1.7695  1.5900
10187TIP3    H254757   2.158   6.567  13.213  0.5682 -3.2661 -0.5984
10188TIP3   OH254758   7.679   6.736  12.996  0.3120 -0.2906  0.0862
10188TIP3    H154759   7.626   6.816  12.996 -0.1277 -0.5679  1.0357
10188TIP3    H254760   7.623   6.671  13.037  0.9171 -0.9223 -0.0838
10189TIP3   OH254761   0.501   5.721  11.839 -0.1814 -0.7251 -0.2519
10189TIP3    H154762   0.563   5.678  11.897 -0.2802 -0.5402 -0.0048
10189TIP3    H254763   0.547   5.729  11.756 -0.1513 -1.2749 -0.2912
10190TIP3   OH254764   7.445   0.733  11.963  0.6448 -0.5848  0.3951
10190TIP3    H154765   7.475   0.731  11.872  0.2301  0.2229  0.2291
10190TIP3    H254766   7.487   0.810  12.000  0.1815 -0.4503  0.6545
10191TIP3   OH254767   0.106   2.390  13.098 -0.1153 -0.2777  0.3457
10191TIP3    H154768   0.065   2.415  13.015  0.4607  1.0533  0.4355
10191TIP3    H254769   0.157   2.312  13.077 -0.6987 -0.4856 -0.3308
10192TIP3   OH254770   0.569   7.282  11.785  0.0143 -0.1374  0.1341
10192TIP3    H154771   0.524   7.346  11.839  0.2422 -0.4500  0.6996
10192TIP3    H254772   0.549   7.198  11.825 -0.5751 -0.4654 -0.8055
10193TIP3   OH254773   4.644   2.019  12.497  0.3497  0.3987 -0.1691
10193TIP3    H154774   4.624   2.075  12.572 -0.2927 -1.8395  1.4451
10193TIP3    H254775   4.559   1.985  12.469  0.8941 -1.6343  0.4826
10194TIP3   OH254776   1.062   3.819  11.872  0.0876 -0.1980  0.0908
10194TIP3    H154777   1.057   3.724  11.864 -0.6012 -0.2127  0.5860
10194TIP3    H254778   1.151   3.841  11.847 -0.0360 -0.8702 -0.9838
10195TIP3   OH254779   2.471   5.797  11.479  0.5444 -0.3210 -0.1608
10195TIP3    H154780   2.459   5.719  11.424 -0.4202  0.7227 -1.4828
10195TIP3    H254781   2.446   5.870  11.423  0.8925  0.9129  1.2376
10196TIP3   OH254782   5.582   1.271  13.644 -0.3339 -0.3059  0.4046
10196TIP3    H154783   5.582   1.363  13.617  0.5278  0.4989  2.9333
10196TIP3    H254784   5.629   1.226  13.574  0.7547  1.4560 -0.0645
10197TIP3   OH254785   5.710   4.056  12.559  0.0671  0.2037  0.3354
10197TIP3    H154786   5.758   3.974  12.568  0.2533 -0.3947 -4.0377
10197TIP3    H254787   5.618   4.030  12.547 -0.3018  0.8743  1.4842
10198TIP3   OH254788   4.613   1.905  11.778 -0.4517 -0.1912 -0.1166
10198TIP3    H154789   4.518   1.897  11.768 -0.4625  0.4901 -0.6860
10198TIP3    H254790   4.631   1.999  11.767  0.4808 -0.5345 -2.0480
10199TIP3   OH254791   1.143   0.737  13.233  0.2404 -0.0934 -0.0689
10199TIP3    H154792   1.142   0.707  13.323  0.0076  0.8825  0.2650
10199TIP3    H254793   1.069   0.693  13.192  0.4817 -0.7131  0.1493
10200TIP3   OH254794   4.790   6.838  11.379 -0.1383 -0.5127 -0.4033
10200TIP3    H154795   4.849   6.883  11.319 -0.7904  1.6869  0.5301
10200TIP3    H254796   4.848   6.792  11.439  0.7604  2.0828  0.8615
10201TIP3   OH254797   1.956   1.397  11.233  0.0909  0.1022  0.0128
10201TIP3    H154798   2.041   1.396  11.278  0.8176  0.2111 -1.3012
10201TIP3    H254799   1.978   1.421  11.143 -1.3868  0.4648 -0.2662
10202TIP3   OH254800   6.597   5.394  12.411 -0.6629 -0.2586 -0.4305
10202TIP3    H154801   6.647   5.442  12.344 -0.0426  0.1866  0.3410
10202TIP3    H254802   6.655   5.389  12.486 -0.8261 -2.0052 -0.3806
10203TIP3   OH254803   3.006   7.172  11.874 -0.0478 -0.5081 -0.3502
10203TIP3    H154804   3.101   7.160  11.873  0.3004  1.7535 -0.3442
10203TIP3    H254805   2.976   7.120  11.949  1.0570 -1.8845 -0.8224
10204TIP3   OH254806   0.941   5.293  11.798 -0.3937  0.4086  0.7180
10204TIP3    H154807   0.851   5.292  11.764 -0.3738 -0.1195  0.6709
10204TIP3    H254808   0.953   5.206  11.835  0.0908  0.4926  0.7570
10205TIP3   OH254809   2.824   3.769  12.461 -0.0623 -0.5723  0.4593
10205TIP3    H154810   2.754   3.832  12.476  2.2032  1.7603  2.1703
10205TIP3    H254811   2.835   3.725  12.545 -0.2242 -1.7890 -0.1372
10206TIP3   OH254812   6.283   2.213  13.048  0.8841  0.0314 -0.2933
10206TIP3    H154813   6.239   2.259  12.977  0.6432 -0.1296 -0.2515
10206TIP3    H254814   6.277   2.272  13.123  1.0570  0.1622 -0.3830
10207TIP3   OH254815   1.339   6.106  10.446 -0.0334  0.0402  0.8785
10207TIP3    H154816   1.305   6.190  10.416  0.5449 -0.2207 -0.6402
10207TIP3    H254817   1.298   6.042  10.387  1.3879 -0.4832  0.4163
10208TIP3   OH254818   4.848   0.462  11.319 -0.3931 -0.2494  0.1274
10208TIP3    H154819   4.940   0.439  11.314 -0.4298 -0.5852  0.9448
10208TIP3    H254820   4.848   0.558  11.316 -0.0927 -0.2646 -0.8370
10209TIP3   OH254821   1.414   0.708  11.301  0.0007 -0.0995 -0.1468
10209TIP3    H154822   1.413   0.665  11.386  0.1473  0.5656  0.1959
10209TIP3    H254823   1.507   0.727  11.285 -0.2256  1.9512  0.6734
10210TIP3   OH254824   1.593   0.483  11.422 -0.7689 -0.2490 -0.3500
10210TIP3    H154825   1.662   0.550  11.428 -0.9903  0.0922 -1.4233
10210TIP3    H254826   1.530   0.507  11.490 -0.0994 -0.2624  0.2924
10211TIP3   OH254827   5.333   0.515  11.756 -0.4099 -0.0765 -0.2986
10211TIP3    H154828   5.316   0.499  11.663 -4.8347  2.6053 -0.2444
10211TIP3    H254829   5.326   0.610  11.765  3.6054  0.2178  2.3891
10212TIP3   OH254830   0.236   0.940  12.186  0.4973 -0.3232 -0.0446
10212TIP3    H154831   0.240   0.994  12.266  0.2299 -1.0958  0.5021
10212TIP3    H254832   0.242   1.003  12.115 -0.7183  0.5253  0.5630
10213TIP3   OH254833   7.546   3.559  10.881 -0.2799  0.8118  0.4439
10213TIP3    H154834   7.547   3.478  10.933 -3.0412 -0.1621 -0.8487
10213TIP3    H254835   7.487   3.617  10.927  1.9439  2.3258  1.5396
10214TIP3   OH254836   1.544   2.072  12.138 -0.3533  0.2751  0.0280
10214TIP3    H154837   1.455   2.080  12.104 -0.3216 -1.0124 -0.3965
10214TIP3    H254838   1.541   1.997  12.198  0.5351 -0.0286 -0.2908
10215TIP3   OH254839   3.230   4.893  11.832  0.0587 -0.1177  0.4801
10215TIP3    H154840   3.313   4.847  11.821  0.0339 -0.0763  0.0977
10215TIP3    H254841   3.243   4.978  11.790  0.2784  0.4517  1.6578
10216TIP3   OH254842   2.556   2.613  11.940 -0.1534  0.6367 -0.4589
10216TIP3    H154843   2.536   2.657  12.023 -1.5627 -2.5595  1.0645
10216TIP3    H254844   2.615   2.542  11.964 -0.0939  0.0057 -2.3072
10217TIP3   OH254845   5.327   5.909  12.840  0.6563 -0.5815  0.3776
10217TIP3    H154846   5.411   5.933  12.801  0.0216  0.5953 -0.3270
10217TIP3    H254847   5.303   5.984  12.893  0.2388 -1.0915  0.9218
10218TIP3   OH254848   3.799   5.338  12.930 -0.1951 -0.5422 -0.5732
10218TIP3    H154849   3.740   5.280  12.977  0.1906  1.0255  2.0389
10218TIP3    H254850   3.755   5.423  12.930  2.6344  1.2082  3.2508
10219TIP3   OH254851   5.722   0.284  11.234  0.0318  0.7233  0.2663
10219TIP3    H154852   5.670   0.306  11.311  1.5682  0.9462  1.2790
10219TIP3    H254853   5.688   0.342  11.166  0.1274  2.1328  1.3652
10220TIP3   OH254854   1.449   7.426  11.411 -0.0826  0.5457  0.3284
10220TIP3    H154855   1.510   7.366  11.453 -0.0466  0.9675  0.8873
10220TIP3    H254856   1.463   7.510  11.455  1.2645  1.4911 -1.7630
10221TIP3   OH254857   1.617   3.526  11.126  0.3380  0.0347 -0.5953
10221TIP3    H154858   1.672   3.589  11.079 -0.5765  1.5630  0.3042
10221TIP3    H254859   1.563   3.487  11.057  0.3921  0.7965 -1.0872
10222TIP3   OH254860   2.453   3.743  11.261 -0.1728  0.1416 -0.0755
10222TIP3    H154861   2.430   3.728  11.353  0.9452  0.3812  0.2580
10222TIP3    H254862   2.441   3.837  11.249 -2.5612 -0.1863 -0.8504
10223TIP3   OH254863   6.447   5.313  11.656 -0.0032 -0.0358 -0.2707
10223TIP3    H154864   6.542   5.323  11.664  0.2846  0.0868 -2.9746
10223TIP3    H254865   6.419   5.288  11.743  2.7006 -1.5025  0.2987
10224TIP3   OH254866   0.909   6.572  12.795 -0.5271 -0.3198 -0.2250
10224TIP3    H154867   0.906   6.495  12.852 -0.0663  0.6414  1.1287
10224TIP3    H254868   0.995   6.567  12.752  0.3135  0.4060  1.2935
10225TIP3   OH254869   4.184   0.779  12.715 -0.0881  0.2600  0.3515
10225TIP3    H154870   4.114   0.713  12.714 -1.8840  2.0717 -0.4497
10225TIP3    H254871   4.263   0.729  12.696 -1.0570 -1.9606  1.7505
10226TIP3   OH254872   0.725   6.656  12.020  0.2635  0.3604 -0.2545
10226TIP3    H154873   0.746   6.731  12.076  3.4574  0.3193 -1.1762
10226TIP3    H254874   0.715   6.694  11.932  0.8952 -0.1253 -0.5498
10227TIP3   OH254875   3.498   0.610  11.814  0.4865  0.6353 -0.1030
10227TIP3    H154876   3.484   0.609  11.909 -1.9398  0.1070 -0.3832
10227TIP3    H254877   3.580   0.562  11.801  0.5188  0.1283  1.6812
10228TIP3   OH254878   3.798   2.817  12.366  0.2796 -0.3364 -0.4220
10228TIP3    H154879   3.814   2.897  12.417 -0.5301 -0.1043 -0.5221
10228TIP3    H254880   3.730   2.771  12.415  0.8690 -1.0618 -0.2719
10229TIP3   OH254881   3.706   7.072  12.601  0.3393  0.1994  0.4260
10229TIP3    H154882   3.690   7.129  12.677 -2.4538  2.6078 -1.7236
10229TIP3    H254883   3.664   6.989  12.624  0.8772  0.3373  2.0634
10230TIP3   OH254884   7.302   1.243  12.449 -0.0600  0.3795  0.9861
10230TIP3    H154885   7.287   1.171  12.511  0.4870 -0.7173 -0.0995
10230TIP3    H254886   7.358   1.304  12.496  0.7781 -0.6841  1.4239
10231TIP3   OH254887   7.576   7.196  13.692 -0.0932  0.4569 -0.0087
10231TIP3    H154888   7.637   7.127  13.665 -0.8872  0.1455 -1.0693
10231TIP3    H254889   7.632   7.272  13.710  0.6969 -0.1499  0.1485
10232TIP3   OH254890   2.672   1.532  13.146  0.1713 -0.0836 -0.0493
10232TIP3    H154891   2.723   1.531  13.226  0.5955  0.0726 -0.3138
10232TIP3    H254892   2.710   1.463  13.092  0.6892  0.6234 -0.6053
10233TIP3   OH254893   7.608   5.223  11.773  0.3861  0.5259 -1.0046
10233TIP3    H154894   7.605   5.149  11.834  1.0044  0.8064 -0.6194
10233TIP3    H254895   7.591   5.300  11.828 -0.8427  0.6265 -1.5039
10234TIP3   OH254896   7.363   3.518  11.270  0.5467 -0.1299 -0.3646
10234TIP3    H154897   7.395   3.602  11.301  1.3148 -0.7300  0.5313
10234TIP3    H254898   7.436   3.481  11.219  0.9720 -1.0862  0.8843
10235TIP3   OH254899   6.373   6.151  12.463  0.2236 -0.0508 -0.0771
10235TIP3    H154900   6.319   6.131  12.386 -0.3108  0.7695  0.0778
10235TIP3    H254901   6.439   6.212  12.430  0.3203 -0.1165 -0.0039
10236TIP3   OH254902   2.555   0.809  12.740 -0.0775  0.1826  0.1459
10236TIP3    H154903   2.621   0.747  12.708 -1.2191 -1.2090  0.4338
10236TIP3    H254904   2.606   0.886  12.766  1.2219  0.0191 -1.7287
10237TIP3   OH254905   5.576   2.920  11.256  0.3735  0.4538  0.1666
10237TIP3    H154906   5.656   2.963  11.286  1.0875 -1.4200  1.1071
10237TIP3    H254907   5.598   2.889  11.168  0.6636  0.0248  0.3866
10238TIP3   OH254908   3.622   1.100  11.412  0.3318  0.2359  0.0400
10238TIP3    H154909   3.557   1.068  11.475 -0.0035  1.6150  0.4217
10238TIP3    H254910   3.572   1.154  11.351  0.7722 -0.5183 -1.0219
10239TIP3   OH254911   2.833   0.992  11.587 -0.1216 -0.0040  0.0610
10239TIP3    H154912   2.924   0.977  11.563 -0.7759 -1.8366 -1.5046
10239TIP3    H254913   2.833   0.995  11.682  1.7149  1.2875  0.0813
10240TIP3   OH254914   5.695   0.271  11.979 -0.2283 -0.6442 -0.3830
10240TIP3    H154915   5.653   0.329  12.042 -0.9325 -0.0917 -1.3236
10240TIP3    H254916   5.770   0.320  11.945  0.3922 -1.0991  0.3061
10241TIP3   OH254917   3.867   4.866  11.346 -0.0414  0.0966  0.4317
10241TIP3    H154918   3.937   4.804  11.326  0.2669  0.8712 -0.9851
10241TIP3    H254919   3.811   4.819  11.408  1.7881 -0.4758  1.7398
10242TIP3   OH254920   6.910   2.217  12.095 -0.2323 -0.3070 -0.2268
10242TIP3    H154921   6.888   2.147  12.157  0.1863  0.3539  0.6868
10242TIP3    H254922   7.004   2.231  12.106 -0.5184  1.2188  0.4918
10243TIP3   OH254923   2.251   5.163  11.502  0.1477 -0.3342 -0.2802
10243TIP3    H154924   2.332   5.114  11.515  0.2900 -0.0994 -0.2598
10243TIP3    H254925   2.199   5.145  11.580 -0.3419 -1.4629 -0.8419
10244TIP3   OH254926   5.679   3.143  13.295  0.1571 -0.3384 -0.7079
10244TIP3    H154927   5.703   3.204  13.225  0.4247  0.4829  0.0751
10244TIP3    H254928   5.643   3.067  13.250 -2.9089  1.5158 -1.6950
10245TIP3   OH254929   1.255   6.071  12.065  0.8671  0.2122 -0.0078
10245TIP3    H154930   1.349   6.089  12.069  0.5590  2.1621 -0.3734
10245TIP3    H254931   1.217   6.152  12.030 -0.9981 -0.3805  0.5455
10246TIP3   OH254932   6.265   6.528  12.268 -0.4009 -0.1472 -0.3891
10246TIP3    H154933   6.324   6.458  12.240 -0.7222 -0.3157 -0.6586
10246TIP3    H254934   6.177   6.490  12.257 -0.5535  0.0502  0.1390
10247TIP3   OH254935   6.897   7.344  11.774  0.5238 -0.2356  0.7422
10247TIP3    H154936   6.948   7.273  11.813 -0.7227 -0.3349  2.3252
10247TIP3    H254937   6.955   7.421  11.778  1.2058 -0.7396  0.7393
10248TIP3   OH254938   5.886   2.835  12.194  0.4322  0.0700  0.3920
10248TIP3    H154939   5.850   2.859  12.279 -0.5580 -1.2192  0.3853
10248TIP3    H254940   5.808   2.815  12.141  1.0985 -0.8669 -0.2580
10249TIP3   OH254941   4.483   6.300  11.335  0.0591 -0.1221  0.5561
10249TIP3    H154942   4.511   6.208  11.342 -0.2512 -0.2278  0.4133
10249TIP3    H254943   4.388   6.296  11.326  0.1336  0.1602 -0.4472
10250TIP3   OH254944   6.316   0.812  13.304 -0.1584 -0.0833  0.3454
10250TIP3    H154945   6.256   0.745  13.273  1.1637 -0.5443 -1.3715
10250TIP3    H254946   6.263   0.891  13.311 -0.7196 -0.1037 -2.5774
10251TIP3   OH254947   3.267   3.447  11.749 -0.0574 -0.3247  0.4278
10251TIP3    H154948   3.271   3.464  11.843  2.4865  0.6774  0.2001
10251TIP3    H254949   3.355   3.419  11.725  0.0140  1.5943 -2.0200
10252TIP3   OH254950   5.983   1.392  12.718  0.0752 -0.3439  0.3136
10252TIP3    H154951   5.973   1.434  12.633 -0.4081 -0.9474  0.0653
10252TIP3    H254952   5.993   1.464  12.780  1.9006  0.0911 -0.4129
10253TIP3   OH254953   0.308   3.600  13.183  0.8983 -0.0324  0.0201
10253TIP3    H154954   0.216   3.612  13.159  1.3548  2.1488 -0.9364
10253TIP3    H254955   0.340   3.689  13.198  3.1208 -0.6231 -0.7678
10254TIP3   OH254956   4.217   5.354  11.303 -0.5125  0.1671 -0.0265
10254TIP3    H154957   4.148   5.339  11.239 -2.0723  0.6437  1.4678
10254TIP3    H254958   4.234   5.448  11.299 -1.0230  0.2974  0.6190
10255TIP3   OH254959   6.485   5.019  13.709 -0.0047  0.0825  0.2522
10255TIP3    H154960   6.522   4.946  13.757  1.4348  1.5339  1.4631
10255TIP3    H254961   6.552   5.043  13.645  0.3269  1.4146  1.0580
10256TIP3   OH254962   1.760   5.103  11.392  0.5915  0.2986  0.0731
10256TIP3    H154963   1.775   5.028  11.451  0.9427 -1.2575 -1.8958
10256TIP3    H254964   1.836   5.159  11.405  0.2227  0.4651  1.7385
10257TIP3   OH254965   0.016   4.649  11.194  0.0975 -0.5178 -0.0514
10257TIP3    H154966  -0.007   4.649  11.101 -0.6985  1.0819  0.1018
10257TIP3    H254967   0.112   4.645  11.194  0.2801  1.8719 -1.0877
10258TIP3   OH254968   0.132   3.332  10.514 -0.0072 -0.3438 -0.1422
10258TIP3    H154969   0.138   3.425  10.494 -0.0745 -0.5069 -0.9652
10258TIP3    H254970   0.038   3.313  10.512 -0.1676  0.0098  2.1918
10259TIP3   OH254971   5.141   1.523  11.105 -0.6582 -0.2657 -0.3624
10259TIP3    H154972   5.131   1.538  11.011 -1.6604 -0.8094 -0.3599
10259TIP3    H254973   5.215   1.463  11.112  1.4976  2.1728 -0.5571
10260TIP3   OH254974   3.039   1.734  11.501  0.2096 -0.1268  0.0368
10260TIP3    H154975   3.130   1.711  11.482  0.0873 -0.4442 -0.1793
10260TIP3    H254976   3.013   1.672  11.569  0.5211  0.7446  0.9787
10261TIP3   OH254977   6.812   1.754  12.076  0.5836  0.1026 -0.2643
10261TIP3    H154978   6.835   1.676  12.126  2.4754 -0.0251 -1.2559
10261TIP3    H254979   6.720   1.769  12.097  0.6582 -1.3380  1.3375
10262TIP3   OH254980   0.253   4.202  12.264 -0.4343  0.4056  0.0183
10262TIP3    H154981   0.288   4.284  12.300  0.4301 -0.2872  0.8082
10262TIP3    H254982   0.330   4.154  12.233 -0.6702 -0.9286  1.3366
10263TIP3   OH254983   5.865   3.357  10.890  0.4950 -0.2918 -0.2434
10263TIP3    H154984   5.841   3.327  10.977  0.0345  0.4943 -0.0894
10263TIP3    H254985   5.908   3.282  10.849  1.7650 -0.3328  1.0692
10264TIP3   OH254986   4.060   5.158  11.564  0.0295 -0.1553 -0.1374
10264TIP3    H154987   4.024   5.247  11.562 -0.8374 -0.4805  0.2280
10264TIP3    H254988   4.057   5.129  11.473  0.9064  0.4144 -0.3513
10265TIP3   OH254989   4.808   0.908  13.367  0.2009 -0.0969  0.0856
10265TIP3    H154990   4.837   0.949  13.448  0.4067 -0.4069  0.1693
10265TIP3    H254991   4.885   0.908  13.311  0.0546  0.1343 -0.1196
10266TIP3   OH254992   6.779   2.383  12.610  0.1517 -0.1888  0.3212
10266TIP3    H154993   6.834   2.308  12.633 -0.1902  0.1222  2.3373
10266TIP3    H254994   6.841   2.455  12.600  0.4003 -0.5386 -0.7936
10267TIP3   OH254995   0.574   4.606  11.712  0.1247  0.6258 -0.1206
10267TIP3    H154996   0.593   4.687  11.760 -0.2408  0.8410 -0.3352
10267TIP3    H254997   0.638   4.605  11.641  2.0846 -0.7422  1.5304
10268TIP3   OH254998   6.505   1.210  12.285  0.2511  0.1667  0.2848
10268TIP3    H154999   6.495   1.271  12.212 -1.6006  1.3696  1.4477
10268TIP3    H255000   6.507   1.123  12.244 -1.8578  0.7286 -1.1791
10269TIP3   OH255001   0.601   3.221  11.852  0.3242  0.2234  0.1454
10269TIP3    H155002   0.510   3.223  11.879  0.2805  1.9844  0.0177
10269TIP3    H255003   0.647   3.180  11.925 -0.3843  0.7037  0.8816
10270TIP3   OH255004   7.651   7.297  11.024 -0.0610 -0.7765  0.2781
10270TIP3    H155005   7.727   7.349  11.051 -1.2605  2.1938 -1.5483
10270TIP3    H255006   7.588   7.307  11.095 -0.6482  1.2669 -0.4554
10271TIP3   OH255007   6.865   6.568  12.658  0.1832  0.2729 -0.2844
10271TIP3    H155008   6.833   6.522  12.735  0.2387  1.0856  0.2340
10271TIP3    H255009   6.894   6.498  12.599 -0.5664 -0.3840  0.1059
10272TIP3   OH255010   5.165   5.830  11.377  0.0805  0.8172 -0.0977
10272TIP3    H155011   5.171   5.925  11.387  0.6839  0.9191 -1.2481
10272TIP3    H255012   5.073   5.813  11.359 -0.1614  1.0935  0.8155
10273TIP3   OH255013   5.620   0.460  11.058 -0.4615  0.4054  0.1633
10273TIP3    H155014   5.534   0.455  11.100 -1.4807 -1.8209 -1.9016
10273TIP3    H255015   5.615   0.537  11.002 -2.0052 -0.8409 -1.5352
10274TIP3   OH255016   4.926   6.715  11.578 -0.0399 -0.1188 -0.1620
10274TIP3    H155017   5.001   6.769  11.551  0.0146  0.0292  0.2763
10274TIP3    H255018   4.946   6.628  11.545 -0.7400  0.3932 -2.0264
10275TIP3   OH255019   1.096   7.336  12.810  0.6436  0.0092  0.5401
10275TIP3    H155020   1.144   7.397  12.754 -1.9447  0.6340 -1.1788
10275TIP3    H255021   1.030   7.390  12.854 -0.7808 -1.2551  0.0669
10276TIP3   OH255022   7.543   6.828  12.632 -0.1724 -0.2470 -0.1905
10276TIP3    H155023   7.561   6.758  12.569  0.0135  1.8709 -2.6885
10276TIP3    H255024   7.461   6.868  12.600 -0.7377  0.1586  1.6672
10277TIP3   OH255025   0.108   0.119  11.027 -0.6923  0.0553 -0.3985
10277TIP3    H155026   0.161   0.047  10.994 -1.1358 -0.5687  0.2191
10277TIP3    H255027   0.101   0.180  10.953  2.5526  1.1940  0.0577
10278TIP3   OH255028   0.069   1.329  13.318 -0.5634 -0.7444 -0.7307
10278TIP3    H155029   0.156   1.313  13.282 -0.4084  2.6988 -2.2460
10278TIP3    H255030   0.074   1.294  13.407  2.3617 -0.6959 -0.7755
10279TIP3   OH255031   4.102   6.587  12.293 -0.2689  0.4134  0.2044
10279TIP3    H155032   4.011   6.560  12.282 -0.4322  0.9767  0.1428
10279TIP3    H255033   4.098   6.663  12.351  0.1208  0.7010 -0.1350
10280TIP3   OH255034   1.046   0.106  12.587  0.3298  0.5886  0.3252
10280TIP3    H155035   1.096   0.174  12.542 -1.9797  1.7880 -0.5617
10280TIP3    H255036   1.036   0.037  12.521 -0.5898  1.0810 -0.0577
10281TIP3   OH255037   4.607   2.481  11.966 -0.1061  0.4810 -0.5069
10281TIP3    H155038   4.541   2.445  11.906 -0.4367  0.9254 -0.4189
10281TIP3    H255039   4.648   2.404  12.005 -0.1586  0.1918 -1.0124
10282TIP3   OH255040   6.875   3.751  11.395 -0.3805  0.6859  0.0999
10282TIP3    H155041   6.915   3.837  11.404  0.4146  0.4479 -0.8934
10282TIP3    H255042   6.782   3.769  11.378 -0.4760  1.2843  1.1602
10283TIP3   OH255043   7.076   4.868  10.512  0.5169  0.1951 -0.3953
10283TIP3    H155044   7.166   4.839  10.523  1.0309  2.1105  0.9641
10283TIP3    H255045   7.080   4.929  10.438 -0.0648 -1.1648 -1.5848
10284TIP3   OH255046   4.229   0.295  10.882  0.0116  0.2321  0.3162
10284TIP3    H155047   4.182   0.267  10.804 -0.5154 -0.1792  0.7715
10284TIP3    H255048   4.305   0.237  10.887 -0.5436 -0.4882  0.7047
10285TIP3   OH255049   4.521   3.556  12.131 -0.3172  0.0949  0.0230
10285TIP3    H155050   4.491   3.615  12.062  0.9666 -0.5737 -1.1619
10285TIP3    H255051   4.584   3.498  12.087  2.5647  1.2989  2.2375
10286TIP3   OH255052   6.071   4.759  11.948  0.4462  1.0228 -0.2424
10286TIP3    H155053   6.120   4.808  11.881 -0.9413 -0.0677 -2.1447
10286TIP3    H255054   6.118   4.677  11.957  0.4209  1.0193 -0.1418
10287TIP3   OH255055   2.513   6.690  11.730 -0.2955 -0.8878  0.0838
10287TIP3    H155056   2.427   6.665  11.695 -0.5056 -0.8220  0.5542
10287TIP3    H255057   2.522   6.638  11.810 -0.3509 -0.1110  0.5983
10288TIP3   OH255058   0.924   6.919  12.917  0.2208 -0.0638 -0.0605
10288TIP3    H155059   0.977   6.852  12.960  0.9229  0.7362  0.3441
10288TIP3    H255060   0.869   6.870  12.856  0.6454 -1.0186  0.3051
10289TIP3   OH255061   2.373   5.777  10.962  0.3960 -0.1767  0.0522
10289TIP3    H155062   2.351   5.710  11.027 -2.2961 -0.3557 -0.9147
10289TIP3    H255063   2.433   5.732  10.901 -0.4001 -1.3423  0.0942
10290TIP3   OH255064   2.817   0.891  12.061 -0.0263 -0.4826  0.0653
10290TIP3    H155065   2.788   0.817  12.114 -3.3251 -0.3433 -1.2665
10290TIP3    H255066   2.755   0.961  12.084  1.3073  1.0066 -0.7028
10291TIP3   OH255067   1.496   3.637  12.006  0.0113 -0.1561 -0.0220
10291TIP3    H155068   1.568   3.582  12.036  0.5217 -0.2667 -1.3783
10291TIP3    H255069   1.431   3.632  12.076  0.4868 -1.6429  0.3544
10292TIP3   OH255070   0.482   4.873  10.996 -0.1758 -0.3196 -0.3997
10292TIP3    H155071   0.538   4.798  10.974  0.5683 -0.0601  0.5512
10292TIP3    H255072   0.403   4.834  11.034  0.1778 -0.6285  0.0317
10293TIP3   OH255073   5.861   4.468  11.444  0.2002  0.3007 -0.6029
10293TIP3    H155074   5.868   4.508  11.531 -0.8209  0.1150 -0.4168
10293TIP3    H255075   5.893   4.379  11.455  0.9509  0.5621 -0.6404
10294TIP3   OH255076   1.245   0.996  11.938  0.4924 -0.7632  0.3267
10294TIP3    H155077   1.198   0.936  11.996  1.1653 -1.1263  0.5050
10294TIP3    H255078   1.334   0.998  11.972  0.9145 -1.0192 -0.7199
10295TIP3   OH255079   3.237   3.233  11.575 -0.2156  0.5651  0.3506
10295TIP3    H155080   3.279   3.169  11.633  0.7589  0.6395 -0.2580
10295TIP3    H255081   3.305   3.259  11.514 -1.6093 -0.7525 -1.9265
10296TIP3   OH255082   0.798   2.376  11.821  0.0336 -0.1472  0.6290
10296TIP3    H155083   0.753   2.308  11.871  0.1119 -1.1686 -0.6474
10296TIP3    H255084   0.878   2.334  11.790  1.2343  1.2286  1.7000
10297TIP3   OH255085   5.632   0.506  11.669  0.3515 -0.3218 -0.1403
10297TIP3    H155086   5.613   0.516  11.763  0.5650  0.0882 -0.1403
10297TIP3    H255087   5.701   0.440  11.665  2.9152  2.1608  0.2565
10298TIP3   OH255088   6.018   6.127  12.508  0.1500 -0.6641  0.1727
10298TIP3    H155089   6.005   6.093  12.420  1.1017 -2.1441  0.5681
10298TIP3    H255090   6.101   6.175  12.503 -0.6798  0.8048 -0.1328
10299TIP3   OH255091   5.591   0.791  11.226  0.3075 -0.1628  0.3473
10299TIP3    H155092   5.676   0.779  11.268  0.7812  0.1931 -0.5010
10299TIP3    H255093   5.528   0.781  11.298  1.0343 -0.8068  0.9082
10300TIP3   OH255094   1.557   5.005  11.772 -0.1721 -0.0331 -0.6296
10300TIP3    H155095   1.485   4.994  11.834 -0.8728  2.1876 -0.9558
10300TIP3    H255096   1.528   4.959  11.693 -0.7925  0.0003 -0.4253
10301TIP3   OH255097   2.622   7.021  12.341 -0.1561 -0.2611 -0.1820
10301TIP3    H155098   2.645   7.089  12.277  0.4955 -1.4862 -1.3153
10301TIP3    H255099   2.530   7.038  12.362  0.0868  1.1614 -0.1702
10302TIP3   OH255100   5.744   2.121  13.065 -0.2838 -0.4030 -0.2999
10302TIP3    H155101   5.801   2.179  13.016 -1.0343  1.5727  1.0453
10302TIP3    H255102   5.660   2.125  13.020 -0.4086 -0.2262 -0.0529
10303TIP3   OH255103   2.950   0.623  11.062 -0.2704 -0.4103 -0.2375
10303TIP3    H155104   2.857   0.607  11.049  0.0845 -1.7964 -1.1781
10303TIP3    H255105   2.953   0.683  11.137 -1.9033 -0.3998 -0.1457
10304TIP3   OH255106   0.897   5.140  10.862 -0.2070  0.1070 -0.3900
10304TIP3    H155107   0.866   5.230  10.873 -1.5688 -0.6160  2.8900
10304TIP3    H255108   0.855   5.109  10.782  0.0220  2.2426 -1.4035
10305TIP3   OH255109   2.486   1.131  11.260 -0.4148 -0.1298  0.6954
10305TIP3    H155110   2.475   1.139  11.355  0.0277  1.6013  0.6365
10305TIP3    H255111   2.455   1.214  11.225 -1.0673 -0.9390 -0.7473
10306TIP3   OH255112   0.462   2.854  12.387 -0.0636  0.6554  0.7456
10306TIP3    H155113   0.519   2.896  12.452  1.3374 -0.6261  0.4094
10306TIP3    H255114   0.483   2.898  12.305  0.6029  0.0692  0.5906
10307TIP3   OH255115   1.245   1.892  11.959 -0.3949  0.3147  0.3432
10307TIP3    H155116   1.304   1.819  11.940 -1.4053 -0.6370  0.7346
10307TIP3    H255117   1.158   1.851  11.964 -1.0778  1.6617 -0.1432
10308TIP3   OH255118   2.726   3.836  11.935  0.5859 -0.6348 -0.3814
10308TIP3    H155119   2.740   3.843  11.840 -0.8452 -2.0007 -0.7362
10308TIP3    H255120   2.733   3.742  11.953  0.6373 -0.4047  0.8408
10309TIP3   OH255121   0.328   5.748  13.106  0.7519  0.0423 -0.1916
10309TIP3    H155122   0.381   5.804  13.163  0.2684  0.2134  0.1006
10309TIP3    H255123   0.237   5.774  13.125  0.4848 -1.2127  0.3601
10310TIP3   OH255124   1.161   3.460  11.784  0.1620 -0.0327 -0.4839
10310TIP3    H155125   1.174   3.525  11.853 -0.6681 -2.0220  1.6892
10310TIP3    H255126   1.106   3.393  11.824  0.7145 -1.9432 -2.6848
10311TIP3   OH255127   0.214   1.949  12.238  0.3724  0.0379  0.1889
10311TIP3    H155128   0.168   2.033  12.241  1.1943  0.4697  1.8084
10311TIP3    H255129   0.270   1.955  12.161  0.0758  0.7870  0.0242
10312TIP3   OH255130   4.630   0.676  11.603 -0.8163  0.1905  0.1268
10312TIP3    H155131   4.580   0.735  11.547 -1.8167 -0.9662 -0.2481
10312TIP3    H255132   4.581   0.593  11.600  0.2590 -0.5047  1.0401
10313TIP3   OH255133   7.471   4.427  12.057  0.2443 -0.3365 -0.6495
10313TIP3    H155134   7.496   4.519  12.044 -2.2126  0.8039  1.7472
10313TIP3    H255135   7.551   4.385  12.088  0.8102  1.6812  0.8596
10314TIP3   OH255136   5.537   2.882  11.687  0.3609  0.4052 -0.0917
10314TIP3    H155137   5.518   2.972  11.663  0.1145  0.4250  0.1835
10314TIP3    H255138   5.453   2.837  11.685  0.7878 -0.4804 -2.9427
10315TIP3   OH255139   2.756   0.302  11.134 -0.3538  0.1301 -0.0947
10315TIP3    H155140   2.832   0.355  11.109 -0.8303  1.2445  0.7350
10315TIP3    H255141   2.707   0.357  11.195 -1.0710 -1.1420  0.5158
10316TIP3   OH255142   6.806   2.987  11.970  0.4917 -0.1127 -0.0063
10316TIP3    H155143   6.844   2.914  12.019  0.4757 -0.0068  0.1651
10316TIP3    H255144   6.851   2.984  11.885  1.0882  0.1753  0.2885
10317TIP3   OH255145   0.624   1.633  12.450 -0.1744  0.0455 -0.7603
10317TIP3    H155146   0.619   1.537  12.448  0.6995 -0.0139 -0.6015
10317TIP3    H255147   0.591   1.657  12.537  1.9222 -0.3011  0.1834
10318TIP3   OH255148   5.563   6.850  11.139 -0.4484 -0.0682 -0.0927
10318TIP3    H155149   5.558   6.801  11.056 -0.4059  0.4108 -0.3836
10318TIP3    H255150   5.548   6.941  11.113  0.2547  0.1734  0.3367
10319TIP3   OH255151   7.607   2.562  12.073  0.0697  0.5416  0.1551
10319TIP3    H155152   7.620   2.607  11.989  1.0291  1.2743  0.6714
10319TIP3    H255153   7.513   2.545  12.077  0.1316 -0.4367 -1.5271
10320TIP3   OH255154   7.453   0.687  12.673  0.1849  0.1298  0.6256
10320TIP3    H155155   7.401   0.736  12.737 -1.6024 -0.1838 -0.5300
10320TIP3    H255156   7.438   0.731  12.590 -0.2049 -1.4255 -0.1618
10321TIP3   OH255157   4.792   7.122  10.757 -0.1954  0.1752 -0.0952
10321TIP3    H155158   4.720   7.167  10.803 -0.4846 -1.0317  0.6846
10321TIP3    H255159   4.860   7.113  10.824  0.0288 -0.1498 -0.3700
10322TIP3   OH255160   1.487   6.515  12.050  0.1179 -0.0911 -0.5638
10322TIP3    H155161   1.546   6.447  12.016  0.6607  0.9531 -1.7658
10322TIP3    H255162   1.534   6.597  12.038 -0.2587  0.4676  1.4927
10323TIP3   OH255163   4.308   6.492  12.479 -0.4334 -0.0965 -0.6694
10323TIP3    H155164   4.272   6.545  12.408 -0.5127 -0.6293 -1.0372
10323TIP3    H255165   4.231   6.468  12.531 -0.1915  1.7535  0.6403
10324TIP3   OH255166   4.963   3.382  11.142 -0.1162 -0.2256 -0.1651
10324TIP3    H155167   5.027   3.441  11.182 -2.6431  1.8702  1.1109
10324TIP3    H255168   4.941   3.321  11.212 -1.6455  0.9528  0.4199
10325TIP3   OH255169   2.771   1.520  11.488  0.8248  0.3558  0.2331
10325TIP3    H155170   2.828   1.576  11.435  1.9032 -1.1090 -0.2203
10325TIP3    H255171   2.810   1.433  11.481 -1.2182 -0.6092  0.3233
10326TIP3   OH255172   0.267   5.106  12.597 -0.2095 -0.3399  0.5696
10326TIP3    H155173   0.344   5.049  12.593  1.6770  1.9521  2.0594
10326TIP3    H255174   0.229   5.100  12.509  1.4356 -1.7964 -0.1060
10327TIP3   OH255175   6.285   0.736  11.406  0.7013 -0.3837 -0.0736
10327TIP3    H155176   6.267   0.711  11.316  2.7044  0.4163 -0.7476
10327TIP3    H255177   6.356   0.678  11.434  2.0839  1.2523 -0.0326
10328TIP3   OH255178   0.224   4.386  12.596 -0.0617  0.1096  0.4430
10328TIP3    H155179   0.157   4.442  12.558 -0.4083  0.0089  0.9063
10328TIP3    H255180   0.242   4.425  12.681  1.8737  1.2962 -0.4311
10329TIP3   OH255181   6.614   1.250  11.273 -0.0897  0.2489  0.3812
10329TIP3    H155182   6.677   1.264  11.343  0.4848 -1.6753  0.3119
10329TIP3    H255183   6.665   1.211  11.202 -1.1039 -0.1404 -0.1642
10330TIP3   OH255184   0.927   2.381  12.171  0.9619 -0.0562 -0.0428
10330TIP3    H155185   0.852   2.412  12.222  0.0980 -1.4284 -0.4072
10330TIP3    H255186   0.901   2.293  12.143  1.8879  0.2079 -1.8557
10331TIP3   OH255187   1.307   5.820  11.277  0.2939 -0.5286 -0.2137
10331TIP3    H155188   1.287   5.758  11.347 -0.2094 -0.2521 -0.1093
10331TIP3    H255189   1.398   5.844  11.291  0.9134 -2.2178 -1.0052
10332TIP3   OH255190   5.448   2.431  12.473  0.2367 -0.1559  0.1466
10332TIP3    H155191   5.355   2.433  12.450  0.4931 -2.5399 -1.4280
10332TIP3    H255192   5.482   2.514  12.443 -0.9806 -0.1437 -1.2921
10333TIP3   OH255193   6.430   4.847  10.593 -0.3407 -0.2681  0.3047
10333TIP3    H155194   6.525   4.860  10.595 -0.4396  0.7092 -0.2465
10333TIP3    H255195   6.401   4.864  10.683 -0.0389 -0.1539  0.3804
10334TIP3   OH255196   2.035   6.227  11.320  0.9274  0.0550 -0.2536
10334TIP3    H155197   2.126   6.209  11.294  1.3367  0.7088  0.6499
10334TIP3    H255198   2.031   6.323  11.327 -0.2492  0.1495 -1.6877
10335TIP3   OH255199   0.939   1.074  11.317 -0.2895 -0.3146  0.4110
10335TIP3    H155200   0.852   1.090  11.354 -0.3916 -0.6163  0.3047
10335TIP3    H255201   0.927   1.085  11.223 -0.2371 -0.4638  0.3872
10336TIP3   OH255202   0.329   6.680  12.673 -0.5565  0.4465  0.0567
10336TIP3    H155203   0.246   6.724  12.694 -0.9818  0.0023 -0.6489
10336TIP3    H255204   0.388   6.706  12.743 -1.6513 -0.2592  1.2935
10337TIP3   OH255205   0.630   4.783  10.482  0.2240 -0.3110  0.0677
10337TIP3    H155206   0.560   4.721  10.503 -0.0661 -1.1339 -2.9101
10337TIP3    H255207   0.710   4.734  10.499  0.0741 -0.2364  1.0793
10338TIP3   OH255208   2.075   5.294  10.845 -0.0155 -0.6091  0.2051
10338TIP3    H155209   2.170   5.299  10.848  0.1056 -2.4923  0.8594
10338TIP3    H255210   2.049   5.279  10.936 -1.0854  1.3508  0.2716
10339TIP3   OH255211   3.929   5.956  10.974 -0.6655 -0.1220 -0.0813
10339TIP3    H155212   3.905   5.991  10.888  0.5549 -1.3008 -0.9321
10339TIP3    H255213   3.920   5.861  10.965  0.5623 -0.3381  0.7302
10340TIP3   OH255214   0.235   4.224  11.939  0.4450 -0.8590 -0.5733
10340TIP3    H155215   0.244   4.129  11.950  0.9524 -0.7926 -0.4277
10340TIP3    H255216   0.291   4.245  11.864  0.9066 -0.5692 -0.1556
10341TIP3   OH255217   0.355   3.838  10.255 -0.3507  0.2837 -0.3678
10341TIP3    H155218   0.318   3.788  10.328  2.1807  2.1540  2.4071
10341TIP3    H255219   0.438   3.795  10.236 -0.8725 -0.0380 -2.0975
10342TIP3   OH255220   4.499   1.608  11.650  0.0048 -0.4012 -0.0554
10342TIP3    H155221   4.590   1.625  11.625  0.0838 -1.0409 -0.2204
10342TIP3    H255222   4.459   1.694  11.653  0.3675 -0.1856 -0.9603
10343TIP3   OH255223   2.728   6.005  12.495 -0.4789  0.0603  0.0853
10343TIP3    H155224   2.766   6.023  12.581 -1.5645  0.2917  0.5309
10343TIP3    H255225   2.796   6.029  12.432  0.1840  0.2429  0.8688
10344TIP3   OH255226   2.617   6.152  11.870 -0.2829 -0.5841  0.3142
10344TIP3    H155227   2.560   6.224  11.842 -0.4845 -0.8173  0.1135
10344TIP3    H255228   2.689   6.154  11.807 -0.4931 -0.8092  0.0665
10345TIP3   OH255229   2.785   2.516  12.075  0.2405  0.2959 -0.6495
10345TIP3    H155230   2.777   2.572  12.152  0.7489  0.3765 -0.6542
10345TIP3    H255231   2.879   2.516  12.055  0.2840 -0.7595 -0.4976
10346TIP3   OH255232   6.811   5.573  11.083 -0.3620  0.1000  0.7321
10346TIP3    H155233   6.864   5.507  11.128 -0.6591  0.1013  1.0828
10346TIP3    H255234   6.794   5.640  11.149 -0.1395  0.4886  0.4012
10347TIP3   OH255235   7.276   4.471  12.792  0.2743 -0.3764 -0.1111
10347TIP3    H155236   7.230   4.428  12.719 -1.4356 -0.1405  0.7852
10347TIP3    H255237   7.269   4.409  12.864  0.7123  0.0045  0.2660
10348TIP3   OH255238   3.632   5.342  10.777  0.1457 -0.3669 -0.4746
10348TIP3    H155239   3.603   5.432  10.792  0.9578 -0.0074 -0.9597
10348TIP3    H255240   3.569   5.305  10.716 -0.0346 -0.0367 -0.4867
10349TIP3   OH255241   3.899   6.743  12.494  0.1740 -0.2701 -0.6476
10349TIP3    H155242   3.875   6.679  12.561  1.8775  0.4831  0.7499
10349TIP3    H255243   3.981   6.781  12.524  0.5817  0.7124 -2.7680
10350TIP3   OH255244   5.858   2.294  12.496  0.3208  0.0177  0.1454
10350TIP3    H155245   5.813   2.260  12.573  1.7101 -0.1836  0.9136
10350TIP3    H255246   5.833   2.235  12.425  0.4945 -0.9284  0.8580
10351TIP3   OH255247   7.607   2.244  12.337 -0.0166 -0.1737 -0.0502
10351TIP3    H155248   7.682   2.222  12.282  0.1618  1.2694 -0.4329
10351TIP3    H255249   7.545   2.173  12.324  1.3958 -1.5585  0.5222
10352TIP3   OH255250   4.529   0.701  10.774 -0.0964 -0.3527 -0.2479
10352TIP3    H155251   4.444   0.692  10.818  0.0520  0.8455  0.3333
10352TIP3    H255252   4.532   0.792  10.747  1.7791  0.1530  1.4311
10353TIP3   OH255253   3.000   2.325  11.309 -0.7662 -0.3792  0.2152
10353TIP3    H155254   2.948   2.310  11.388  0.7712 -1.7440  1.0485
10353TIP3    H255255   3.032   2.415  11.318 -2.5439  0.3185 -0.0935
10354TIP3   OH255256   6.507   2.912  12.491 -0.1116  0.1339 -0.2698
10354TIP3    H155257   6.510   2.988  12.548 -1.1520 -1.4962  2.0925
10354TIP3    H255258   6.433   2.928  12.432 -1.6031  0.1130  1.5350
10355TIP3   OH255259   2.241   7.137  11.120 -0.4394  0.2766  0.0547
10355TIP3    H155260   2.295   7.183  11.056 -0.6109  0.1448 -0.1866
10355TIP3    H255261   2.265   7.176  11.204 -0.4458  0.6732 -0.1258
10356TIP3   OH255262   5.651   3.771  12.336  0.1913  0.3361 -0.1153
10356TIP3    H155263   5.719   3.817  12.386  0.0482 -1.1905  1.5769
10356TIP3    H255264   5.569   3.800  12.375  0.0204 -0.0421 -0.1896
10357TIP3   OH255265   2.696   0.450  11.355 -0.0086 -0.0005 -0.8010
10357TIP3    H155266   2.707   0.540  11.387  0.6598  0.0512 -1.1602
10357TIP3    H255267   2.626   0.414  11.410 -0.0601  0.6330 -0.4356
10358TIP3   OH255268   4.665   0.225  11.503 -0.1954 -0.4036 -0.1923
10358TIP3    H155269   4.601   0.161  11.474 -1.0935  0.0528  0.7257
10358TIP3    H255270   4.614   0.291  11.550  0.7626  0.7514 -0.7136
10359TIP3   OH255271   6.247   4.520  12.967 -0.1734 -0.6142  0.5198
10359TIP3    H155272   6.281   4.608  12.986 -2.2302 -0.0370  1.8468
10359TIP3    H255273   6.218   4.487  13.052 -0.1723 -2.2621 -0.0941
10360TIP3   OH255274   0.094   0.786  13.482  0.7030  0.5785 -0.0293
10360TIP3    H155275   0.155   0.794  13.409  0.0009  0.8066 -0.5995
10360TIP3    H255276   0.130   0.841  13.551  1.1867  0.6387 -0.3328
10361TIP3   OH255277   5.220   3.729  12.216 -0.3501  0.4309 -0.6746
10361TIP3    H155278   5.223   3.730  12.121 -0.1545  1.7513 -0.6812
10361TIP3    H255279   5.197   3.819  12.240 -0.4484  0.1092  0.5255
10362TIP3   OH255280   0.501   1.664  12.709  0.6186 -0.5392 -0.1622
10362TIP3    H155281   0.573   1.700  12.761  0.1006  0.0810  0.1430
10362TIP3    H255282   0.486   1.577  12.746  1.1331 -0.6288 -0.1546
10363TIP3   OH255283   2.316   4.665  10.941  0.1638 -0.4321  0.4893
10363TIP3    H155284   2.263   4.664  10.862  0.2320 -0.2860  0.4417
10363TIP3    H255285   2.258   4.632  11.010  0.4695 -1.7357  0.1496
10364TIP3   OH255286   2.378   5.956  10.660  0.0693  0.0618  0.3711
10364TIP3    H155287   2.284   5.938  10.658 -0.2738  1.7009 -1.6618
10364TIP3    H255288   2.387   6.037  10.709  0.3064  0.4356 -0.2831
10365TIP3   OH255289   0.799   5.314  12.440  0.1168 -0.6497  0.1134
10365TIP3    H155290   0.887   5.351  12.431 -0.6090  1.2892  0.3674
10365TIP3    H255291   0.784   5.308  12.534 -0.6162  0.6787  0.1110
10366TIP3   OH255292   3.103   3.940  12.081  0.3957 -0.3168  0.1143
10366TIP3    H155293   3.106   3.907  11.991  0.2991 -0.2599  0.0895
10366TIP3    H255294   3.017   3.982  12.087  0.6483  0.2111  0.0507
10367TIP3   OH255295   1.736   6.929  12.970 -0.1584  0.2296  0.1751
10367TIP3    H155296   1.730   7.006  13.027 -0.9823 -0.6038  1.2426
10367TIP3    H255297   1.787   6.866  13.020  1.2172  0.3154 -1.0234
10368TIP3   OH255298   2.197   3.874  12.737 -0.1438 -0.3055 -0.0046
10368TIP3    H155299   2.220   3.931  12.811 -0.3295 -1.7386  1.1872
10368TIP3    H255300   2.129   3.816  12.771  0.4055 -1.5998 -1.0200
10369TIP3   OH255301   1.455   7.299  12.468  0.2635 -0.3140  0.6710
10369TIP3    H155302   1.484   7.358  12.538  0.0747 -0.5690  0.9679
10369TIP3    H255303   1.412   7.356  12.405  1.9823  0.1690 -0.1137
10370TIP3   OH255304   6.985   6.534  12.958 -0.1604 -0.3269  0.0927
10370TIP3    H155305   6.987   6.623  12.924  0.0009 -0.2710  0.2451
10370TIP3    H255306   6.948   6.481  12.888 -0.6321 -0.0728  0.1529
10371TIP3   OH255307   1.937   5.355  11.847 -0.3266  0.0285  0.6233
10371TIP3    H155308   1.879   5.381  11.918 -2.0484 -0.1729 -0.6379
10371TIP3    H255309   1.914   5.264  11.828 -0.9536  0.5067 -1.1294
10372TIP3   OH255310   1.722   2.863  12.695  0.0087 -0.5537 -0.4684
10372TIP3    H155311   1.796   2.804  12.711  0.0100 -0.5915 -0.6177
10372TIP3    H255312   1.759   2.936  12.645  0.0882 -0.2330  0.0510
10373TIP3   OH255313   5.151   1.142  12.208  0.0185  0.0442 -0.1900
10373TIP3    H155314   5.114   1.173  12.126 -3.0460  0.2363  1.1408
10373TIP3    H255315   5.091   1.173  12.275  2.4307 -0.0505  2.1811
10374TIP3   OH255316   0.448   6.203  11.178  0.4413  0.0687 -0.2391
10374TIP3    H155317   0.540   6.179  11.181  0.4789  0.2496  0.0814
10374TIP3    H255318   0.415   6.162  11.099  0.9124  0.4194 -0.6222
10375TIP3   OH255319   5.301   3.239  11.409 -0.3436  0.3089 -0.3974
10375TIP3    H155320   5.368   3.307  11.396 -0.3231  0.5693  0.9179
10375TIP3    H255321   5.218   3.286  11.402 -0.3593  0.2576 -0.5693
10376TIP3   OH255322   2.000   7.259  12.054 -0.1108  0.1003 -0.5674
10376TIP3    H155323   1.947   7.200  12.000  1.3562 -0.4642 -1.4407
10376TIP3    H255324   1.943   7.335  12.070 -0.4100  0.6010 -3.5024
10377TIP3   OH255325   5.270   5.586  11.444  0.3212 -0.2024 -0.5857
10377TIP3    H155326   5.188   5.537  11.436 -0.0530  0.4320 -0.7453
10377TIP3    H255327   5.242   5.678  11.448  0.9446 -0.0361  0.4962
10378TIP3   OH255328   5.374   0.895  12.234 -0.0066 -0.0534  0.3878
10378TIP3    H155329   5.425   0.947  12.296  0.8668  0.0683 -0.3988
10378TIP3    H255330   5.294   0.873  12.281  0.9052 -0.5215  1.7858
10379TIP3   OH255331   2.077   6.538  11.160 -0.2121 -0.5571  0.0294
10379TIP3    H155332   2.172   6.525  11.169 -0.2655 -0.9409  0.0230
10379TIP3    H255333   2.045   6.538  11.250 -0.1441  0.0495  0.0585
10380TIP3   OH255334   1.895   6.946  12.302 -0.4196 -0.2569  0.2934
10380TIP3    H155335   1.903   6.909  12.214  0.2550  0.8341 -0.1146
10380TIP3    H255336   1.837   7.021  12.291  0.1498  0.2434  0.6631
10381TIP3   OH255337   6.609   3.282  10.966 -0.3364 -0.2142  0.0103
10381TIP3    H155338   6.601   3.369  10.925  0.4849 -0.7689 -1.4125
10381TIP3    H255339   6.704   3.267  10.971 -0.4656 -1.5008 -0.8596
10382TIP3   OH255340   5.458   5.945  10.632  0.2247  0.5584 -0.4131
10382TIP3    H155341   5.479   5.858  10.596  0.9452 -0.1331  1.5502
10382TIP3    H255342   5.513   6.005  10.582  1.4626 -0.4058 -0.2589
10383TIP3   OH255343   6.892   6.819  12.877 -0.4875  0.3986  0.0836
10383TIP3    H155344   6.868   6.878  12.948  0.8260  0.7764  0.2462
10383TIP3    H255345   6.977   6.853  12.846 -1.3536  0.6948 -2.1558
10384TIP3   OH255346   1.676   2.006  13.056  0.5913 -0.6946 -0.0685
10384TIP3    H155347   1.620   2.057  13.114 -0.1806 -0.7643 -0.7329
10384TIP3    H255348   1.685   2.060  12.977  0.8359 -1.0151 -0.2629
10385TIP3   OH255349   3.986   3.055  11.926  0.2923 -0.6853 -0.1552
10385TIP3    H155350   3.959   3.021  12.011  0.2351 -1.9126 -0.6378
10385TIP3    H255351   4.080   3.037  11.922  0.3067 -0.5715 -0.3150
10386TIP3   OH255352   7.406   1.481  12.201  0.4918 -0.4717 -0.3293
10386TIP3    H155353   7.336   1.481  12.267  1.0470 -0.8349  0.2645
10386TIP3    H255354   7.379   1.415  12.137  0.4829 -0.8982  0.1087
10387TIP3   OH255355   2.199   3.480  13.010 -0.2078  0.0515  0.2199
10387TIP3    H155356   2.126   3.502  13.068 -0.8736  1.5254 -1.1284
10387TIP3    H255357   2.161   3.476  12.923  0.9270 -1.3962 -0.2523
10388TIP3   OH255358   7.627   3.781  11.843  0.6157 -0.4097 -0.1668
10388TIP3    H155359   7.657   3.850  11.902 -1.1289  0.3020 -0.0403
10388TIP3    H255360   7.657   3.700  11.883 -0.8506  0.0230  1.9947
10389TIP3   OH255361   1.942   0.029  11.210 -0.4887  0.3066  0.1050
10389TIP3    H155362   1.884  -0.042  11.237  0.0364  0.6793  2.4369
10389TIP3    H255363   1.883   0.102  11.189 -0.9522 -0.2441 -0.5646
10390TIP3   OH255364   4.489   5.985  10.852 -0.0501 -0.0238 -0.1023
10390TIP3    H155365   4.532   5.970  10.768 -1.6444 -0.0015 -0.9687
10390TIP3    H255366   4.444   5.903  10.872  1.7942 -0.6682  1.6930
10391TIP3   OH255367   1.380   7.065  13.890 -0.8312  0.2023  0.6806
10391TIP3    H155368   1.469   7.052  13.857 -0.3593 -1.5050  2.4624
10391TIP3    H255369   1.348   7.141  13.842  0.9648 -0.1665 -1.2336
10392TIP3   OH255370   4.260   2.140  12.237 -0.1036  0.4367  0.1839
10392TIP3    H155371   4.184   2.196  12.252 -0.8463 -0.9173  1.8721
10392TIP3    H255372   4.235   2.084  12.164 -0.8692 -0.1804  0.8992
10393TIP3   OH255373   2.533   3.224  11.059 -0.4596  0.2614  0.3169
10393TIP3    H155374   2.600   3.239  11.125 -0.4784  0.3207  0.3225
10393TIP3    H255375   2.450   3.241  11.104 -0.4970 -0.1187  0.3920
10394TIP3   OH255376   4.771   4.770  12.448  0.0409 -0.3434 -0.1417
10394TIP3    H155377   4.737   4.765  12.358  1.4600 -0.2263 -0.7195
10394TIP3    H255378   4.749   4.686  12.487  0.6936 -0.9777 -1.0935
10395TIP3   OH255379   5.251   1.286  11.862 -0.2041 -0.4221 -0.0804
10395TIP3    H155380   5.158   1.270  11.878 -0.1513  0.0786  0.7659
10395TIP3    H255381   5.275   1.220  11.797 -1.8321  1.2477 -2.5672
10396TIP3   OH255382   1.587   2.466  11.396  0.5891  0.2452 -0.6034
10396TIP3    H155383   1.608   2.530  11.328 -1.1147  0.5630 -0.8769
10396TIP3    H255384   1.492   2.465  11.400  0.6192 -0.0708  1.5160
10397TIP3   OH255385   7.518   6.010  11.046  0.3648 -0.1534 -0.1382
10397TIP3    H155386   7.455   6.027  10.976 -1.3682 -0.2823  1.3241
10397TIP3    H255387   7.581   5.949  11.007 -1.2081 -1.1471 -1.2417
10398TIP3   OH255388   0.481   0.985  13.075 -0.5367 -0.0356  0.4184
10398TIP3    H155389   0.498   1.037  13.153 -0.6391  0.7092 -0.0452
10398TIP3    H255390   0.484   1.048  13.003 -1.6563 -0.4865 -0.0470
10399TIP3   OH255391   7.655   2.594  11.813  0.0715 -0.0349  0.5856
10399TIP3    H155392   7.685   2.524  11.755 -0.5555 -0.7880  1.1408
10399TIP3    H255393   7.575   2.628  11.771  0.5383  0.5582  0.1652
10400TIP3   OH255394   2.246   5.210  11.069 -0.1163 -0.0248  0.4114
10400TIP3    H155395   2.244   5.115  11.085 -0.3397 -0.2329 -0.7381
10400TIP3    H255396   2.311   5.220  10.999  0.0892  0.7005  0.7036
10401TIP3   OH255397   2.406   1.685  11.784 -0.1555 -0.2990  0.3952
10401TIP3    H155398   2.330   1.640  11.822 -1.3184  0.9210 -0.4167
10401TIP3    H255399   2.408   1.656  11.693 -0.1809  0.3434  0.1874
10402TIP3   OH255400   0.337   6.782  10.988  0.2072  0.0796  0.6388
10402TIP3    H155401   0.413   6.725  11.003  1.0985  1.7084  2.8496
10402TIP3    H255402   0.351   6.856  11.046 -1.2499  2.2624 -1.5749
10403TIP3   OH255403   5.225   1.041  12.558 -0.6144  0.6298 -0.2025
10403TIP3    H155404   5.148   1.067  12.507  0.7742 -0.4402 -3.1051
10403TIP3    H255405   5.279   1.120  12.561 -1.0405  0.9025  0.2599
10404TIP3   OH255406   5.503   3.201  12.263  0.4286 -0.3935  0.3082
10404TIP3    H155407   5.509   3.129  12.326 -1.0635  0.0108  0.9565
10404TIP3    H255408   5.434   3.258  12.298  1.2828  1.1481 -0.4028
10405TIP3   OH255409   1.255   0.517  12.089 -0.0584  0.3710 -0.2557
10405TIP3    H155410   1.338   0.504  12.135 -0.3908 -1.4132 -0.1085
10405TIP3    H255411   1.276   0.508  11.997 -0.1397 -0.3904 -0.2005
10406TIP3   OH255412   6.648   0.364  11.388 -0.1715  0.2836 -0.2302
10406TIP3    H155413   6.608   0.278  11.378 -0.5979  0.2209  1.7123
10406TIP3    H255414   6.673   0.389  11.299 -1.9552 -0.9075 -1.1311
10407TIP3   OH255415   7.259   5.553  11.624 -0.2075  0.0649  0.4615
10407TIP3    H155416   7.329   5.618  11.618  1.5297 -1.7872 -4.0140
10407TIP3    H255417   7.300   5.477  11.665 -1.0035  0.3678  1.8793
10408TIP3   OH255418   0.756   2.909  11.919  0.1346  0.1603  0.6053
10408TIP3    H155419   0.738   2.847  11.990 -1.2035 -0.5630 -0.3176
10408TIP3    H255420   0.759   2.994  11.962 -1.7418 -0.1357  1.4295
10409TIP3   OH255421   3.281   3.517  12.009 -0.2749 -0.3505 -0.3995
10409TIP3    H155422   3.190   3.530  12.036 -0.7007 -2.3973 -0.6679
10409TIP3    H255423   3.333   3.555  12.079 -1.3309  0.3985  0.0019
10410TIP3   OH255424   2.400   1.797  11.336  0.4088 -0.2192  0.4082
10410TIP3    H155425   2.355   1.846  11.268  0.5649 -1.3440 -0.5493
10410TIP3    H255426   2.386   1.847  11.416  0.4534  1.2822 -0.4965
10411TIP3   OH255427   3.945   1.465  11.366 -0.7001  0.0949 -0.0601
10411TIP3    H155428   3.962   1.521  11.290  0.3406 -0.9898 -0.6504
10411TIP3    H255429   4.006   1.496  11.433  0.5304 -0.8606 -0.6860
10412TIP3   OH255430   0.756   6.417  11.606  0.2230 -0.2170 -0.4760
10412TIP3    H155431   0.720   6.385  11.524 -0.8120 -0.1071 -0.0894
10412TIP3    H255432   0.826   6.356  11.628  2.2715  1.2031 -2.7054
10413TIP3   OH255433   4.034   4.184  11.705 -0.1385  0.3798  0.4944
10413TIP3    H155434   3.947   4.221  11.711 -0.6184 -0.9530  2.5955
10413TIP3    H255435   4.089   4.256  11.673 -1.9349  1.2609 -0.8009
10414TIP3   OH255436   6.195   5.607  13.370 -0.1648 -0.3313 -0.2027
10414TIP3    H155437   6.194   5.596  13.274 -0.5215 -1.6946 -0.0588
10414TIP3    H255438   6.113   5.652  13.390 -0.6065 -1.0103 -0.4470
10415TIP3   OH255439   0.739   3.919  11.759  0.0038 -0.0600 -0.3870
10415TIP3    H155440   0.668   3.877  11.808 -0.7000  0.4037 -0.9790
10415TIP3    H255441   0.694   3.979  11.699  0.9011  0.2228 -0.7934
10416TIP3   OH255442   2.603   5.764  12.722  0.2681  0.1158  0.1028
10416TIP3    H155443   2.524   5.726  12.761  0.0863  2.6336  2.4851
10416TIP3    H255444   2.574   5.848  12.686  1.4080 -0.0439 -1.2629
10417TIP3   OH255445   2.272   6.623  11.905 -0.5050 -0.0598  0.2049
10417TIP3    H155446   2.231   6.606  11.990 -2.7505  0.5505 -0.6819
10417TIP3    H255447   2.312   6.710  11.914  1.1872 -0.8822  1.2452
10418TIP3   OH255448   0.750   1.546  12.105  0.4496 -0.1324 -0.5150
10418TIP3    H155449   0.782   1.625  12.149  0.8149 -0.5796  0.0421
10418TIP3    H255450   0.795   1.545  12.021  0.7483  0.0520 -0.3599
10419TIP3   OH255451   0.822   3.084  12.845 -0.1230  0.6154  0.1280
10419TIP3    H155452   0.839   3.003  12.797 -0.2439  1.1704 -0.8949
10419TIP3    H255453   0.863   3.071  12.930  0.3662 -0.2954 -0.2285
10420TIP3   OH255454   2.811   4.627  12.465  0.3825  0.3586  0.1490
10420TIP3    H155455   2.878   4.687  12.498  0.7520  1.4027 -2.2729
10420TIP3    H255456   2.767   4.677  12.396 -2.6569 -0.4545  1.3299
10421TIP3   OH255457   6.615   0.512  11.752  0.1574  0.1287  0.0293
10421TIP3    H155458   6.570   0.448  11.698  0.8342  0.5253 -1.0256
10421TIP3    H255459   6.688   0.463  11.791  1.1469  0.4099 -1.3991
10422TIP3   OH255460   3.408   5.174  12.274  0.3876  0.3520  0.7350
10422TIP3    H155461   3.412   5.105  12.340  0.7200  1.4529  1.9268
10422TIP3    H255462   3.498   5.184  12.243  0.2836  0.0447  0.3189
10423TIP3   OH255463   3.869   2.446  10.614  0.5312 -0.5005 -0.3522
10423TIP3    H155464   3.909   2.453  10.527 -0.7338 -1.4747 -1.0593
10423TIP3    H255465   3.934   2.400  10.667  0.9204 -0.7935 -1.0676
10424TIP3   OH255466   6.254   3.694  10.742  0.1706  0.0239 -0.1094
10424TIP3    H155467   6.331   3.671  10.690 -0.7137  2.0222 -2.4968
10424TIP3    H255468   6.263   3.787  10.760 -1.9495  0.4600 -1.0050
10425TIP3   OH255469   7.305   3.206  10.778  0.1797 -0.0613  0.1613
10425TIP3    H155470   7.239   3.153  10.824  0.3071 -0.6191 -0.2851
10425TIP3    H255471   7.307   3.288  10.826 -0.5622 -0.1840  0.4208
10426TIP3   OH255472   1.701   2.878  10.751  0.5148  0.3499 -0.4042
10426TIP3    H155473   1.755   2.815  10.703 -1.6689 -0.3802 -2.1274
10426TIP3    H255474   1.722   2.963  10.711  2.2027  0.5241  0.7421
10427TIP3   OH255475   2.462   1.641  12.061  0.3171  0.2330 -0.2869
10427TIP3    H155476   2.404   1.642  12.137  0.0696  1.3533 -0.4855
10427TIP3    H255477   2.406   1.665  11.987  1.0734  1.6385 -0.4346
10428TIP3   OH255478   1.264   5.170  12.359 -0.2882  0.0129 -0.7908
10428TIP3    H155479   1.345   5.208  12.392  1.0676 -2.0126 -1.5721
10428TIP3    H255480   1.195   5.208  12.413  1.3675  0.3052  1.2357
10429TIP3   OH255481   7.399   2.805  11.530 -0.6817  0.2980  0.1277
10429TIP3    H155482   7.348   2.725  11.518 -1.7375  0.8155  1.0134
10429TIP3    H255483   7.336   2.876  11.521  0.1880  1.0413 -0.3543
10430TIP3   OH255484   5.987   5.519  11.503  0.0940 -0.7231 -0.2685
10430TIP3    H155485   5.938   5.487  11.578 -0.6208 -1.6566 -1.1215
10430TIP3    H255486   5.974   5.614  11.505 -0.5439 -0.8173  0.3566
10431TIP3   OH255487   4.436   0.684  12.643 -0.6003 -0.1786 -0.1566
10431TIP3    H155488   4.462   0.764  12.596  0.5088 -0.8704 -0.7706
10431TIP3    H255489   4.437   0.616  12.576 -0.1280 -0.9740  0.6371
10432TIP3   OH255490   4.827   3.861  12.005 -0.0858 -0.8062  0.2317
10432TIP3    H155491   4.739   3.872  11.968  0.3154  1.5552 -0.1832
10432TIP3    H255492   4.835   3.767  12.020 -2.9961 -1.0436  1.0453
10433TIP3   OH255493   7.104   6.489  10.927  0.6671 -0.4622  0.2530
10433TIP3    H155494   7.014   6.519  10.920  1.1358  1.3120  1.1890
10433TIP3    H255495   7.151   6.536  10.857  1.4933  1.5470  2.0157
10434TIP3   OH255496   6.730   7.576  11.643  1.0161 -0.2448 -0.0215
10434TIP3    H155497   6.665   7.569  11.713  2.3454  0.4180  1.3257
10434TIP3    H255498   6.790   7.503  11.660  2.3472  0.9717  0.6231
10435TIP3   OH255499   3.644   6.285  11.545  0.1889 -0.4596 -0.4522
10435TIP3    H155500   3.717   6.241  11.589 -0.9823 -1.3217  0.6889
10435TIP3    H255501   3.573   6.283  11.608 -1.2992 -0.9793 -2.0535
10436TIP3   OH255502   3.221   3.131  12.448 -0.0709  0.0263 -0.1171
10436TIP3    H155503   3.164   3.208  12.451  0.1825  0.2045  0.9792
10436TIP3    H255504   3.163   3.057  12.467 -0.5340 -0.2334 -2.3130
10437TIP3   OH255505   6.758   3.339  12.349  0.2765  0.0903 -0.3226
10437TIP3    H155506   6.753   3.386  12.266 -0.2284  0.4488 -0.0979
10437TIP3    H255507   6.835   3.375  12.393 -1.7442  2.9927  1.1744
10438TIP3   OH255508   1.016   3.011  10.520 -0.0317  0.5858  0.2307
10438TIP3    H155509   0.987   2.987  10.431  1.0368  1.8412 -0.4914
10438TIP3    H255510   1.102   2.970  10.529 -0.3205  0.1044  0.8667
10439TIP3   OH255511   2.752   4.254  12.023  0.3683  0.2166 -0.3587
10439TIP3    H155512   2.788   4.223  11.940  0.1610  0.1818 -0.4352
10439TIP3    H255513   2.816   4.318  12.054 -0.5752  1.7942 -1.5739
   7.68049   7.68049  30.00000
